<event>
12    3  0.2269558E-007  0.7079577E+03  0.7818608E-02  0.9703719E-01
          1   -1    0    0  501    0  0.00000000000E+00  0.00000000000E+00  0.19143289333E+04  0.19143289333E+04  0.00000000000E+00 0. -1.
         -2   -1    0    0    0  501 -0.00000000000E+00 -0.00000000000E+00 -0.35761621713E+03  0.35761621713E+03  0.00000000000E+00 0.  1.
        -24    2    1    2    0    0  0.42954987255E+03 -0.54212369684E+03  0.93292427338E+03  0.11640478457E+04  0.79047400729E+02 0.  0.
    5000000    2    1    2    0    0 -0.42954987255E+03  0.54212369684E+03  0.62378844274E+03  0.11078973047E+04  0.59992767957E+03 0.  0.
        -24    2    4    4    0    0 -0.11248130384E+03  0.93598667905E+02 -0.10169218098E+03  0.19439063438E+03  0.77676667767E+02 0.  0.
         24    2    4    4    0    0 -0.31706856871E+03  0.44852502894E+03  0.72548062372E+03  0.91350667029E+03  0.80405985021E+02 0.  0.
         11    1    3    3    0    0  0.19023632152E+03 -0.29910449642E+03  0.45072383446E+03  0.57341549748E+03  0.00000000000E+00 0. -1.
        -12    1    3    3    0    0  0.23931355104E+03 -0.24301920043E+03  0.48220043892E+03  0.59063234823E+03  0.00000000000E+00 0.  1.
         13    1    5    5    0    0  0.40749717158E+01 -0.90534604687E+01 -0.96798000750E+01  0.13866112304E+02  0.00000000000E+00 0. -1.
        -14    1    5    5    0    0 -0.11655627556E+03  0.10265212837E+03 -0.92012380903E+02  0.18052452208E+03  0.00000000000E+00 0.  1.
          4    1    6    6  502    0 -0.20180464843E+03  0.21602415194E+03  0.38876654772E+03  0.48839633391E+03  0.00000000000E+00 0. -1.
         -3    1    6    6    0  502 -0.11526392028E+03  0.23250087700E+03  0.33671407599E+03  0.42511033638E+03  0.00000000000E+00 0.  1.
<mgrwt>
<rscale>  0 0.70795766E+03</rscale>
<asrwt>0</asrwt>
<pdfrwt beam="1">  1        1 0.29451214E+00 0.70795766E+03</pdfrwt>
<pdfrwt beam="2">  1       -2 0.55017881E-01 0.70795766E+03</pdfrwt>
<totfact> 0.97254766E+00</totfact>
</mgrwt>
</event>
<event>
12    3  0.2269558E-007  0.5690167E+03  0.7818608E-02  0.9971857E-01
          1   -1    0    0  501    0  0.00000000000E+00  0.00000000000E+00  0.71350988642E+03  0.71350988642E+03  0.00000000000E+00 0. -1.
         -2   -1    0    0    0  501 -0.00000000000E+00 -0.00000000000E+00 -0.66057560727E+03  0.66057560727E+03  0.00000000000E+00 0.  1.
        -24    2    1    2    0    0  0.29539471806E+03 -0.34150903331E+03  0.34142538967E+03  0.56969053556E+03  0.63949591866E+02 0.  0.
    5000000    2    1    2    0    0 -0.29539471806E+03  0.34150903331E+03 -0.28849111053E+03  0.80439495814E+03  0.59994805486E+03 0.  0.
        -24    2    4    4    0    0 -0.19504866796E+03 -0.10018613570E+03 -0.25167644060E+03  0.34336854769E+03  0.80496485191E+02 0.  0.
         24    2    4    4    0    0 -0.10034605010E+03  0.44169516901E+03 -0.36814669925E+02  0.46102641045E+03  0.77627824353E+02 0.  0.
         11    1    3    3    0    0  0.89657346727E+02 -0.64806095757E+02  0.95799596354E+02  0.14634149285E+03  0.00000000000E+00 0. -1.
        -12    1    3    3    0    0  0.20573737134E+03 -0.27670293755E+03  0.24562579332E+03  0.42334904270E+03  0.00000000000E+00 0.  1.
         13    1    5    5    0    0 -0.97877416925E+02 -0.21385035936E+02 -0.15796056337E+03  0.18705306222E+03  0.00000000000E+00 0. -1.
        -14    1    5    5    0    0 -0.97171251033E+02 -0.78801099761E+02 -0.93715877230E+02  0.15631548546E+03  0.00000000000E+00 0.  1.
          2    1    6    6  502    0 -0.27240564951E+02  0.36372172721E+02  0.99448178415E+01  0.46517552915E+02  0.00000000000E+00 0. -1.
         -1    1    6    6    0  502 -0.73105485154E+02  0.40532299629E+03 -0.46759487766E+02  0.41450885753E+03  0.00000000000E+00 0.  1.
<mgrwt>
<rscale>  0 0.56901667E+03</rscale>
<asrwt>0</asrwt>
<pdfrwt beam="1">  1        1 0.10977075E+00 0.56901667E+03</pdfrwt>
<pdfrwt beam="2">  1       -2 0.10162702E+00 0.56901667E+03</pdfrwt>
<totfact> 0.19168999E+01</totfact>
</mgrwt>
</event>
<event>
12    3  0.2269558E-007  0.8842301E+03  0.7818608E-02  0.9445512E-01
         -2   -1    0    0    0  501 -0.00000000000E+00  0.00000000000E+00  0.10049602850E+04  0.10049602850E+04  0.00000000000E+00 0.  1.
          1   -1    0    0  501    0  0.00000000000E+00 -0.00000000000E+00 -0.81669456695E+03  0.81669456695E+03  0.00000000000E+00 0. -1.
        -24    2    1    2    0    0  0.56648461190E+03 -0.55284427802E+03 -0.59985540637E+02  0.79785426301E+03  0.80196936750E+02 0.  0.
    5000000    2    1    2    0    0 -0.56648461190E+03  0.55284427802E+03  0.24825125873E+03  0.10238005890E+04  0.59999778938E+03 0.  0.
        -24    2    4    4    0    0 -0.36951310909E+03  0.65476118988E+03  0.21468615777E+03  0.78596528937E+03  0.79994601037E+02 0.  0.
         24    2    4    4    0    0 -0.19697150281E+03 -0.10191691186E+03  0.33565100962E+02  0.23783529960E+03  0.79083398329E+02 0.  0.
         11    1    5    5    0    0 -0.17146623113E+03  0.31350906642E+03  0.14332036241E+03  0.38500562259E+03  0.00000000000E+00 0. -1.
        -12    1    5    5    0    0 -0.19804687796E+03  0.34125212347E+03  0.71365795355E+02  0.40095966678E+03  0.00000000000E+00 0.  1.
         11    1    3    3    0    0  0.46138582156E+03 -0.48496475740E+03 -0.35158630710E+02  0.67030129164E+03  0.00000000000E+00 0. -1.
        -12    1    3    3    0    0  0.10509879034E+03 -0.67879520621E+02 -0.24826909927E+02  0.12755297138E+03  0.00000000000E+00 0.  1.
          4    1    6    6  502    0 -0.12163481111E+03 -0.56596224574E+02  0.58637387504E+02  0.14641210033E+03  0.00000000000E+00 0. -1.
         -3    1    6    6    0  502 -0.75336691700E+02 -0.45320687289E+02 -0.25072286542E+02  0.91423199272E+02  0.00000000000E+00 0.  1.
<mgrwt>
<rscale>  0 0.88423010E+03</rscale>
<asrwt>0</asrwt>
<pdfrwt beam="1">  1        1 0.12564532E+00 0.88423010E+03</pdfrwt>
<pdfrwt beam="2">  1       -2 0.15460928E+00 0.88423010E+03</pdfrwt>
<totfact> 0.52189736E+00</totfact>
</mgrwt>
</event>
<event>
12    3  0.2269558E-007  0.8067295E+03  0.7818608E-02  0.9550327E-01
         -2   -1    0    0    0  501 -0.00000000000E+00  0.00000000000E+00  0.47708571781E+03  0.47708571781E+03  0.00000000000E+00 0.  1.
          1   -1    0    0  501    0  0.00000000000E+00 -0.00000000000E+00 -0.24096415199E+04  0.24096415199E+04  0.00000000000E+00 0. -1.
        -24    2    1    2    0    0  0.39220123172E+03  0.69062325442E+03 -0.16797106540E+04  0.18596424227E+04  0.77844545974E+02 0.  0.
    5000000    2    1    2    0    0 -0.39220123172E+03 -0.69062325442E+03 -0.25284514812E+03  0.10270848151E+04  0.60015853132E+03 0.  0.
        -24    2    4    4    0    0 -0.31831564522E+03 -0.45301730606E+03 -0.43486475711E+03  0.70868526969E+03  0.81104407484E+02 0.  0.
         24    2    4    4    0    0 -0.73885586499E+02 -0.23760594836E+03  0.18201960899E+03  0.31839954539E+03  0.79570508718E+02 0.  0.
         13    1    3    3    0    0  0.15913446090E+03  0.24728193696E+03 -0.70202067512E+03  0.76112098992E+03  0.00000000000E+00 0. -1.
        -14    1    3    3    0    0  0.23306677082E+03  0.44334131747E+03 -0.97768997889E+03  0.10985214328E+04  0.00000000000E+00 0.  1.
         13    1    5    5    0    0 -0.11772468314E+03 -0.10431760682E+03 -0.12081690387E+03  0.19833806587E+03  0.00000000000E+00 0. -1.
        -14    1    5    5    0    0 -0.20059096208E+03 -0.34869969924E+03 -0.31404785323E+03  0.51034720381E+03  0.00000000000E+00 0.  1.
          2    1    6    6  502    0  0.14043809200E+02 -0.21909713060E+02  0.32392882203E+02  0.41551930408E+02  0.00000000000E+00 0. -1.
         -1    1    6    6    0  502 -0.87929395699E+02 -0.21569623530E+03  0.14962672679E+03  0.27684761498E+03  0.00000000000E+00 0.  1.
<mgrwt>
<rscale>  0 0.80672955E+03</rscale>
<asrwt>0</asrwt>
<pdfrwt beam="1">  1        1 0.37071407E+00 0.80672955E+03</pdfrwt>
<pdfrwt beam="2">  1       -2 0.73397804E-01 0.80672955E+03</pdfrwt>
<totfact> 0.24017556E+00</totfact>
</mgrwt>
</event>
<event>
12    3  0.2269558E-007  0.1352183E+04  0.7818608E-02  0.8989177E-01
         -2   -1    0    0    0  501 -0.00000000000E+00  0.00000000000E+00  0.16261395829E+04  0.16261395829E+04  0.00000000000E+00 0.  1.
          1   -1    0    0  501    0  0.00000000000E+00 -0.00000000000E+00 -0.17314050253E+04  0.17314050253E+04  0.00000000000E+00 0. -1.
        -24    2    1    2    0    0  0.87947442169E+03 -0.10031422584E+04  0.87433857655E+03  0.15970474980E+04  0.79518019451E+02 0.  0.
    5000000    2    1    2    0    0 -0.87947442169E+03  0.10031422584E+04 -0.97960401894E+03  0.17604971102E+04  0.59996365895E+03 0.  0.
        -24    2    4    4    0    0 -0.20130269422E+03  0.88981908593E+02 -0.44259332872E+03  0.49942384217E+03  0.71377620757E+02 0.  0.
         24    2    4    4    0    0 -0.67817172747E+03  0.91416034984E+03 -0.53701069022E+03  0.12610732680E+04  0.79493828607E+02 0.  0.
         11    1    3    3    0    0  0.13002843505E+03 -0.14349202310E+03  0.94677224452E+02  0.21554844338E+03  0.00000000000E+00 0. -1.
        -12    1    3    3    0    0  0.74944598664E+03 -0.85965023533E+03  0.77966135210E+03  0.13814990546E+04  0.00000000000E+00 0.  1.
         13    1    5    5    0    0 -0.16556972279E+03  0.40846985659E+02 -0.30738483575E+03  0.35152133163E+03  0.00000000000E+00 0. -1.
        -14    1    5    5    0    0 -0.35732971429E+02  0.48134922935E+02 -0.13520849296E+03  0.14790251054E+03  0.00000000000E+00 0.  1.
          4    1    6    6  502    0 -0.46196789224E+03  0.57544424374E+03 -0.37566415454E+03  0.82805432679E+03  0.00000000000E+00 0. -1.
         -3    1    6    6    0  502 -0.21620383523E+03  0.33871610610E+03 -0.16134653568E+03  0.43301894124E+03  0.00000000000E+00 0.  1.
<mgrwt>
<rscale>  0 0.13521831E+04</rscale>
<asrwt>0</asrwt>
<pdfrwt beam="1">  1        1 0.26637000E+00 0.13521831E+04</pdfrwt>
<pdfrwt beam="2">  1       -2 0.25017532E+00 0.13521831E+04</pdfrwt>
<totfact> 0.24407220E-01</totfact>
</mgrwt>
</event>
<event>
12    3  0.2269558E-007  0.6042036E+03  0.7818608E-02  0.9896723E-01
          1   -1    0    0  501    0  0.00000000000E+00  0.00000000000E+00  0.85418033719E+03  0.85418033719E+03  0.00000000000E+00 0. -1.
         -2   -1    0    0    0  501 -0.00000000000E+00 -0.00000000000E+00 -0.43465771928E+03  0.43465771928E+03  0.00000000000E+00 0.  1.
        -24    2    1    2    0    0 -0.27595098353E+03 -0.36395671634E+03  0.13335104255E+03  0.48228857433E+03  0.78780274841E+02 0.  0.
    5000000    2    1    2    0    0  0.27595098353E+03  0.36395671634E+03  0.28617157537E+03  0.80654948214E+03  0.60001204981E+03 0.  0.
        -24    2    4    4    0    0  0.11253480978E+02 -0.15028891083E+03  0.49940651533E+02  0.17681068386E+03  0.77810999864E+02 0.  0.
         24    2    4    4    0    0  0.26469750255E+03  0.51424562717E+03  0.23623092383E+03  0.62973879828E+03  0.79073205081E+02 0.  0.
         11    1    5    5    0    0 -0.19759451310E+02 -0.42008827539E+01  0.75698486792E+01  0.21572805590E+02  0.00000000000E+00 0. -1.
        -12    1    5    5    0    0  0.31012932288E+02 -0.14608802808E+03  0.42370802854E+02  0.15523787827E+03  0.00000000000E+00 0.  1.
         13    1    3    3    0    0 -0.19207393802E+03 -0.22187288005E+03  0.50913591358E+02  0.29784587684E+03  0.00000000000E+00 0. -1.
        -14    1    3    3    0    0 -0.83877045508E+02 -0.14208383629E+03  0.82437451189E+02  0.18444269749E+03  0.00000000000E+00 0.  1.
          2    1    6    6  502    0  0.11579218245E+03  0.27796912789E+03  0.88870356876E+02  0.31396274605E+03  0.00000000000E+00 0. -1.
         -3    1    6    6    0  502  0.14890532010E+03  0.23627649928E+03  0.14736056696E+03  0.31577605223E+03  0.00000000000E+00 0.  1.
<mgrwt>
<rscale>  0 0.60420362E+03</rscale>
<asrwt>0</asrwt>
<pdfrwt beam="1">  1        1 0.13141236E+00 0.60420362E+03</pdfrwt>
<pdfrwt beam="2">  1       -2 0.66870418E-01 0.60420362E+03</pdfrwt>
<totfact> 0.37018896E+01</totfact>
</mgrwt>
</event>
<event>
12    3  0.2269558E-007  0.8054915E+03  0.7818608E-02  0.9552102E-01
          1   -1    0    0  501    0  0.00000000000E+00  0.00000000000E+00  0.29600485577E+03  0.29600485577E+03  0.00000000000E+00 0. -1.
         -2   -1    0    0    0  501 -0.00000000000E+00 -0.00000000000E+00 -0.29691038245E+04  0.29691038245E+04  0.00000000000E+00 0.  1.
        -24    2    1    2    0    0  0.54661168724E+02 -0.74385579228E+03 -0.18729382716E+04  0.20175084371E+04  0.78315014778E+02 0.  0.
    5000000    2    1    2    0    0 -0.54661168724E+02  0.74385579228E+03 -0.80016069718E+03  0.12476002432E+04  0.59994994994E+03 0.  0.
        -24    2    4    4    0    0 -0.23470758903E+03  0.38575022586E+03 -0.68000412881E+03  0.82016024489E+03  0.79789241206E+02 0.  0.
         24    2    4    4    0    0  0.18004642031E+03  0.35810556642E+03 -0.12015656837E+03  0.42743999830E+03  0.87241280700E+02 0.  0.
         11    1    3    3    0    0  0.52063795684E+02 -0.22966867754E+03 -0.61381193375E+03  0.65743701621E+03  0.00000000000E+00 0. -1.
        -12    1    3    3    0    0  0.25973730398E+01 -0.51418711474E+03 -0.12591263379E+04  0.13600714209E+04  0.00000000000E+00 0.  1.
         11    1    5    5    0    0 -0.12326747974E+03  0.25181507115E+03 -0.36585745246E+03  0.46093098957E+03  0.00000000000E+00 0. -1.
        -12    1    5    5    0    0 -0.11144010929E+03  0.13393515471E+03 -0.31414667634E+03  0.35922925533E+03  0.00000000000E+00 0.  1.
          2    1    6    6  502    0  0.50658672955E+02  0.17705860937E+03 -0.26723727831E+02  0.18609193944E+03  0.00000000000E+00 0. -1.
         -1    1    6    6    0  502  0.12938774735E+03  0.18104695706E+03 -0.93432840541E+02  0.24134805886E+03  0.00000000000E+00 0.  1.
<mgrwt>
<rscale>  0 0.80549150E+03</rscale>
<asrwt>0</asrwt>
<pdfrwt beam="1">  1        1 0.45539210E-01 0.80549150E+03</pdfrwt>
<pdfrwt beam="2">  1       -2 0.45678519E+00 0.80549150E+03</pdfrwt>
<totfact> 0.25820814E-01</totfact>
</mgrwt>
</event>
<event>
12    3  0.2269558E-007  0.6003688E+03  0.7818608E-02  0.9904641E-01
         -2   -1    0    0    0  501 -0.00000000000E+00  0.00000000000E+00  0.45891388337E+03  0.45891388337E+03  0.00000000000E+00 0.  1.
          1   -1    0    0  501    0  0.00000000000E+00 -0.00000000000E+00 -0.16081360682E+04  0.16081360682E+04  0.00000000000E+00 0. -1.
        -24    2    1    2    0    0 -0.32738195645E+03  0.44619258714E+03 -0.11184701868E+04  0.12502678908E+04  0.76990063247E+02 0.  0.
    5000000    2    1    2    0    0  0.32738195645E+03 -0.44619258714E+03 -0.30751998021E+02  0.81678206074E+03  0.59993372895E+03 0.  0.
        -24    2    4    4    0    0  0.16085345660E+03 -0.19155440394E+02 -0.24481684932E+03  0.30447236339E+03  0.80792109543E+02 0.  0.
         24    2    4    4    0    0  0.16652849985E+03 -0.42703714675E+03  0.21406485130E+03  0.51230969734E+03  0.80901170980E+02 0.  0.
         11    1    5    5    0    0  0.63158817658E+02  0.31933811714E+02 -0.95712864474E+02  0.11903678845E+03  0.00000000000E+00 0. -1.
        -12    1    5    5    0    0  0.97694638941E+02 -0.51089252108E+02 -0.14910398484E+03  0.18543557494E+03  0.00000000000E+00 0.  1.
         13    1    3    3    0    0 -0.23091102004E+03  0.25280976186E+03 -0.70345099275E+03  0.78235284500E+03  0.00000000000E+00 0. -1.
        -14    1    3    3    0    0 -0.96470936402E+02  0.19338282528E+03 -0.41501919403E+03  0.46791504581E+03  0.00000000000E+00 0.  1.
          2    1    6    6  502    0  0.14733452462E+03 -0.31763458761E+03  0.13195171254E+03  0.37417969992E+03  0.00000000000E+00 0. -1.
         -1    1    6    6    0  502  0.19193975230E+02 -0.10940255914E+03  0.82113138759E+02  0.13812999742E+03  0.00000000000E+00 0.  1.
<mgrwt>
<rscale>  0 0.60036877E+03</rscale>
<asrwt>0</asrwt>
<pdfrwt beam="1">  1        1 0.24740555E+00 0.60036877E+03</pdfrwt>
<pdfrwt beam="2">  1       -2 0.70602136E-01 0.60036877E+03</pdfrwt>
<totfact> 0.93388094E+00</totfact>
</mgrwt>
</event>
<event>
12    3  0.2269558E-007  0.1853097E+04  0.7818608E-02  0.8678562E-01
          1   -1    0    0  501    0  0.00000000000E+00  0.00000000000E+00  0.19847357234E+04  0.19847357234E+04  0.00000000000E+00 0. -1.
         -2   -1    0    0    0  501 -0.00000000000E+00 -0.00000000000E+00 -0.18331731660E+04  0.18331731660E+04  0.00000000000E+00 0.  1.
        -24    2    1    2    0    0 -0.14459134351E+04 -0.11499163112E+04 -0.13711058531E+03  0.18542136955E+04  0.79598563791E+02 0.  0.
    5000000    2    1    2    0    0  0.14459134351E+04  0.11499163112E+04  0.28867314270E+03  0.19636951939E+04  0.59982784753E+03 0.  0.
        -24    2    4    4    0    0  0.60491146380E+03  0.35554942347E+03  0.37453000225E+03  0.80100320148E+03  0.94869039329E+02 0.  0.
         24    2    4    4    0    0  0.84100197126E+03  0.79436688773E+03 -0.85856859547E+02  0.11626919924E+04  0.78601532231E+02 0.  0.
         11    1    5    5    0    0  0.54090525795E+03  0.32440398880E+03  0.36622090678E+03  0.72933819219E+03  0.00000000000E+00 0. -1.
        -12    1    5    5    0    0  0.64006205848E+02  0.31145434677E+02  0.83090954683E+01  0.71665009285E+02  0.00000000000E+00 0.  1.
         11    1    3    3    0    0 -0.77957629718E+03 -0.61754515471E+03 -0.34056664006E+02  0.99511862488E+03  0.00000000000E+00 0. -1.
        -12    1    3    3    0    0 -0.66633713788E+03 -0.53237115650E+03 -0.10305392131E+03  0.85909507058E+03  0.00000000000E+00 0.  1.
          4    1    6    6  502    0  0.66971931986E+03  0.63495737939E+03 -0.10002623045E+03  0.92827802291E+03  0.00000000000E+00 0. -1.
         -3    1    6    6    0  502  0.17128265140E+03  0.15940950833E+03  0.14169370907E+02  0.23441396948E+03  0.00000000000E+00 0.  1.
<mgrwt>
<rscale>  0 0.18530972E+04</rscale>
<asrwt>0</asrwt>
<pdfrwt beam="1">  1        1 0.30534396E+00 0.18530972E+04</pdfrwt>
<pdfrwt beam="2">  1       -2 0.28202664E+00 0.18530972E+04</pdfrwt>
<totfact> 0.99090812E-02</totfact>
</mgrwt>
</event>
<event>
12    3  0.2269558E-007  0.6065416E+03  0.7818608E-02  0.9891927E-01
         -2   -1    0    0    0  501 -0.00000000000E+00  0.00000000000E+00  0.28231880617E+03  0.28231880617E+03  0.00000000000E+00 0.  1.
          1   -1    0    0  501    0  0.00000000000E+00 -0.00000000000E+00 -0.15483475679E+04  0.15483475679E+04  0.00000000000E+00 0. -1.
        -24    2    1    2    0    0 -0.47622902220E+03 -0.21219191363E+03 -0.51672913667E+03  0.73838572691E+03  0.79906140169E+02 0.  0.
    5000000    2    1    2    0    0  0.47622902220E+03  0.21219191363E+03 -0.74929962506E+03  0.10922806472E+04  0.59983964042E+03 0.  0.
        -24    2    4    4    0    0 -0.77210609683E+02 -0.35637406414E+02  0.10445544122E+02  0.11630092467E+03  0.78646631863E+02 0.  0.
         24    2    4    4    0    0  0.55343963188E+03  0.24782932004E+03 -0.75974516919E+03  0.97597972248E+03  0.87229000811E+02 0.  0.
         11    1    3    3    0    0 -0.18252071908E+03 -0.84738055722E+02 -0.14645736065E+03  0.24888573577E+03  0.00000000000E+00 0. -1.
        -12    1    3    3    0    0 -0.29370830312E+03 -0.12745385791E+03 -0.37027177602E+03  0.48949999115E+03  0.00000000000E+00 0.  1.
         11    1    5    5    0    0 -0.43699241177E+02 -0.22694532940E+02  0.44816964716E+02  0.66582473904E+02  0.00000000000E+00 0. -1.
        -12    1    5    5    0    0 -0.33511368506E+02 -0.12942873474E+02 -0.34371420594E+02  0.49718450766E+02  0.00000000000E+00 0.  1.
          4    1    6    6  502    0  0.43744830559E+03  0.20125649389E+03 -0.54277968643E+03  0.72558595934E+03  0.00000000000E+00 0. -1.
         -3    1    6    6    0  502  0.11599132630E+03  0.46572826155E+02 -0.21696548275E+03  0.25039376314E+03  0.00000000000E+00 0.  1.
<mgrwt>
<rscale>  0 0.60654158E+03</rscale>
<asrwt>0</asrwt>
<pdfrwt beam="1">  1        1 0.23820732E+00 0.60654158E+03</pdfrwt>
<pdfrwt beam="2">  1       -2 0.43433662E-01 0.60654158E+03</pdfrwt>
<totfact> 0.28028644E+01</totfact>
</mgrwt>
</event>
<event>
12    3  0.2269558E-007  0.1477669E+04  0.7818608E-02  0.8899440E-01
          1   -1    0    0  501    0  0.00000000000E+00  0.00000000000E+00  0.40899956623E+04  0.40899956623E+04  0.00000000000E+00 0. -1.
         -2   -1    0    0    0  501 -0.00000000000E+00 -0.00000000000E+00 -0.66135638609E+03  0.66135638609E+03  0.00000000000E+00 0.  1.
        -24    2    1    2    0    0  0.12267173630E+04  0.76875989213E+03  0.71246069442E+03  0.16155003547E+04  0.80086792478E+02 0.  0.
    5000000    2    1    2    0    0 -0.12267173630E+04 -0.76875989213E+03  0.27161785818E+04  0.31358516937E+04  0.60009373970E+03 0.  0.
        -24    2    4    4    0    0 -0.84420735501E+03 -0.73166411066E+03  0.15996961582E+04  0.19528345402E+04  0.80724925986E+02 0.  0.
         24    2    4    4    0    0 -0.38251000802E+03 -0.37095781465E+02  0.11164824236E+04  0.11830171535E+04  0.72846277797E+02 0.  0.
         11    1    5    5    0    0 -0.30349104546E+03 -0.30072526227E+03  0.56441518732E+03  0.70788911683E+03  0.00000000000E+00 0. -1.
        -12    1    5    5    0    0 -0.54071630955E+03 -0.43093884840E+03  0.10352809709E+04  0.12449454234E+04  0.00000000000E+00 0.  1.
         13    1    3    3    0    0  0.56663198763E+03  0.39308600691E+03  0.36552257449E+03  0.78050955837E+03  0.00000000000E+00 0. -1.
        -14    1    3    3    0    0  0.66008537539E+03  0.37567388522E+03  0.34693811993E+03  0.83499079629E+03  0.00000000000E+00 0.  1.
          2    1    6    6  502    0 -0.11730609892E+03  0.11617954297E+02  0.41772866674E+03  0.43404255174E+03  0.00000000000E+00 0. -1.
         -1    1    6    6    0  502 -0.26520390910E+03 -0.48713735762E+02  0.69875375682E+03  0.74897460179E+03  0.00000000000E+00 0.  1.
<mgrwt>
<rscale>  0 0.14776686E+04</rscale>
<asrwt>0</asrwt>
<pdfrwt beam="1">  1        1 0.62923009E+00 0.14776686E+04</pdfrwt>
<pdfrwt beam="2">  1       -2 0.10174714E+00 0.14776686E+04</pdfrwt>
<totfact> 0.53917220E-02</totfact>
</mgrwt>
</event>
<event>
12    3  0.2269558E-007  0.5231954E+03  0.7818608E-02  0.1007896E+00
         -2   -1    0    0    0  501 -0.00000000000E+00  0.00000000000E+00  0.43687328857E+03  0.43687328857E+03  0.00000000000E+00 0.  1.
          1   -1    0    0  501    0  0.00000000000E+00 -0.00000000000E+00 -0.77381993408E+03  0.77381993408E+03  0.00000000000E+00 0. -1.
        -24    2    1    2    0    0  0.32341684785E+03 -0.25031953745E+03 -0.23283410535E+03  0.47713510564E+03  0.78662952623E+02 0.  0.
    5000000    2    1    2    0    0 -0.32341684785E+03  0.25031953745E+03 -0.10411254016E+03  0.73355811701E+03  0.60000813470E+03 0.  0.
        -24    2    4    4    0    0 -0.10346340397E+03 -0.14492984380E+03 -0.18364184033E+03  0.26732180237E+03  0.77635590551E+02 0.  0.
         24    2    4    4    0    0 -0.21995344388E+03  0.39524938125E+03  0.79529300163E+02  0.46623631464E+03  0.80310650890E+02 0.  0.
         11    1    5    5    0    0 -0.67854966057E+02 -0.87417356229E+02 -0.16221366034E+03  0.19636537930E+03  0.00000000000E+00 0. -1.
        -12    1    5    5    0    0 -0.35608437912E+02 -0.57512487573E+02 -0.21428179990E+02  0.70956423071E+02  0.00000000000E+00 0.  1.
         11    1    3    3    0    0  0.18258213853E+03 -0.96910098132E+02 -0.13628165022E+03  0.24758936289E+03  0.00000000000E+00 0. -1.
        -12    1    3    3    0    0  0.14083470932E+03 -0.15340943932E+03 -0.96552455130E+02  0.22954574274E+03  0.00000000000E+00 0.  1.
          4    1    6    6  502    0 -0.11411965277E+03  0.23240931013E+03  0.72668814463E+01  0.25901774099E+03  0.00000000000E+00 0. -1.
         -3    1    6    6    0  502 -0.10583379111E+03  0.16284007112E+03  0.72262418716E+02  0.20721857364E+03  0.00000000000E+00 0.  1.
<mgrwt>
<rscale>  0 0.52319538E+03</rscale>
<asrwt>0</asrwt>
<pdfrwt beam="1">  1        1 0.11904922E+00 0.52319538E+03</pdfrwt>
<pdfrwt beam="2">  1       -2 0.67211276E-01 0.52319538E+03</pdfrwt>
<totfact> 0.43257655E+01</totfact>
</mgrwt>
</event>
<event>
12    3  0.2269558E-007  0.1713911E+04  0.7818608E-02  0.8753470E-01
          1   -1    0    0  501    0  0.00000000000E+00  0.00000000000E+00  0.29953703725E+04  0.29953703725E+04  0.00000000000E+00 0. -1.
         -2   -1    0    0    0  501 -0.00000000000E+00 -0.00000000000E+00 -0.11556833251E+04  0.11556833251E+04  0.00000000000E+00 0.  1.
        -24    2    1    2    0    0 -0.11579369667E+04  0.12133267990E+04  0.16600292436E+04  0.23607333574E+04  0.66218996114E+02 0.  0.
    5000000    2    1    2    0    0  0.11579369667E+04 -0.12133267990E+04  0.17965780379E+03  0.17903203401E+04  0.59999171143E+03 0.  0.
        -24    2    4    4    0    0 -0.96482752529E+01 -0.23892986647E+02  0.84846629724E+02  0.11899980575E+03  0.79360186282E+02 0.  0.
         24    2    4    4    0    0  0.11675852420E+04 -0.11894338123E+04  0.94811174069E+02  0.16713205344E+04  0.79467469502E+02 0.  0.
         11    1    3    3    0    0 -0.10314152317E+04  0.11088149407E+04  0.14931622622E+04  0.21266926186E+04  0.00000000000E+00 0. -1.
        -12    1    3    3    0    0 -0.12652173507E+03  0.10451185833E+03  0.16686698133E+03  0.23404073883E+03  0.00000000000E+00 0.  1.
         13    1    5    5    0    0 -0.33242957028E+02 -0.41443843825E+02  0.62724650488E+02  0.82201387834E+02  0.00000000000E+00 0. -1.
        -14    1    5    5    0    0  0.23594681776E+02  0.17550857178E+02  0.22121979236E+02  0.36798417916E+02  0.00000000000E+00 0.  1.
          4    1    6    6  502    0  0.48528650235E+03 -0.48253971116E+03  0.77213675374E+02  0.68870132414E+03  0.00000000000E+00 0. -1.
         -3    1    6    6    0  502  0.68229873963E+03 -0.70689410118E+03  0.17597498696E+02  0.98261921024E+03  0.00000000000E+00 0.  1.
<mgrwt>
<rscale>  0 0.17139110E+04</rscale>
<asrwt>0</asrwt>
<pdfrwt beam="1">  1        1 0.46082621E+00 0.17139110E+04</pdfrwt>
<pdfrwt beam="2">  1       -2 0.17779744E+00 0.17139110E+04</pdfrwt>
<totfact> 0.91575119E-02</totfact>
</mgrwt>
</event>
<event>
12    3  0.2269558E-007  0.1400122E+04  0.7818608E-02  0.8953730E-01
          1   -1    0    0  501    0  0.00000000000E+00  0.00000000000E+00  0.89596421348E+03  0.89596421348E+03  0.00000000000E+00 0. -1.
         -2   -1    0    0    0  501 -0.00000000000E+00 -0.00000000000E+00 -0.27027368894E+04  0.27027368894E+04  0.00000000000E+00 0.  1.
        -24    2    1    2    0    0 -0.13399073365E+04  0.10539820907E+03 -0.10754621781E+03  0.13506259135E+04  0.78509339533E+02 0.  0.
    5000000    2    1    2    0    0  0.13399073365E+04 -0.10539820907E+03 -0.16992264581E+04  0.22480751894E+04  0.60000920697E+03 0.  0.
        -24    2    4    4    0    0  0.78559250869E+03  0.20849346020E+03 -0.81759383091E+03  0.11574918011E+04  0.10345281351E+03 0.  0.
         24    2    4    4    0    0  0.55431482777E+03 -0.31389166927E+03 -0.88163262717E+03  0.10905833883E+04  0.79392248654E+02 0.  0.
         11    1    5    5    0    0  0.74122306449E+03  0.18421061826E+03 -0.73104661542E+03  0.10572484746E+04  0.00000000000E+00 0. -1.
        -12    1    5    5    0    0  0.44369444202E+02  0.24282841945E+02 -0.86547215492E+02  0.10024332647E+03  0.00000000000E+00 0.  1.
         13    1    3    3    0    0 -0.34090731025E+03  0.24016359415E+02 -0.61634467166E+02  0.34726558604E+03  0.00000000000E+00 0. -1.
        -14    1    3    3    0    0 -0.99900002621E+03  0.81381849658E+02 -0.45911750643E+02  0.10033603274E+04  0.00000000000E+00 0.  1.
          2    1    6    6  502    0  0.55635480590E+03 -0.30871082521E+03 -0.87574694123E+03  0.10824812926E+04  0.00000000000E+00 0. -1.
         -1    1    6    6    0  502 -0.20399781325E+01 -0.51808440608E+01 -0.58856859461E+01  0.81020957177E+01  0.00000000000E+00 0.  1.
<mgrwt>
<rscale>  0 0.14001223E+04</rscale>
<asrwt>0</asrwt>
<pdfrwt beam="1">  1        1 0.13784065E+00 0.14001223E+04</pdfrwt>
<pdfrwt beam="2">  1       -2 0.41580567E+00 0.14001223E+04</pdfrwt>
<totfact> 0.90536300E-02</totfact>
</mgrwt>
</event>
<event>
12    3  0.2269558E-007  0.2445942E+04  0.7818608E-02  0.8422501E-01
          1   -1    0    0  501    0  0.00000000000E+00  0.00000000000E+00  0.24973576924E+04  0.24973576924E+04  0.00000000000E+00 0. -1.
         -2   -1    0    0    0  501 -0.00000000000E+00 -0.00000000000E+00 -0.32170678145E+04  0.32170678145E+04  0.00000000000E+00 0.  1.
        -24    2    1    2    0    0 -0.11325370885E+04 -0.21442520848E+04 -0.17711274706E+04  0.30040429969E+04  0.83213881987E+02 0.  0.
    5000000    2    1    2    0    0  0.11325370885E+04  0.21442520848E+04  0.10514173485E+04  0.27103825099E+04  0.60019800842E+03 0.  0.
        -24    2    4    4    0    0  0.12746212192E+03  0.75303170351E+02 -0.27501861580E+02  0.16846813530E+03  0.75551308600E+02 0.  0.
         24    2    4    4    0    0  0.10050749666E+04  0.20689489144E+04  0.10789192101E+04  0.25419143746E+04  0.80850027489E+02 0.  0.
         11    1    5    5    0    0  0.13496376877E+03  0.59019528183E+02 -0.30112496329E+02  0.15035054381E+03  0.00000000000E+00 0. -1.
        -12    1    5    5    0    0 -0.75016468490E+01  0.16283642167E+02  0.26106347494E+01  0.18117591492E+02  0.00000000000E+00 0.  1.
         13    1    3    3    0    0 -0.16632093617E+03 -0.25628806505E+03 -0.22727618368E+03  0.38078956099E+03  0.00000000000E+00 0. -1.
        -14    1    3    3    0    0 -0.96621615235E+03 -0.18879640197E+04 -0.15438512869E+04  0.26232534359E+04  0.00000000000E+00 0.  1.
          4    1    6    6  502    0  0.64898023403E+03  0.13096769823E+04  0.64433617073E+03  0.15973722932E+04  0.00000000000E+00 0. -1.
         -3    1    6    6    0  502  0.35609473257E+03  0.75927193215E+03  0.43458303934E+03  0.94454208143E+03  0.00000000000E+00 0.  1.
<mgrwt>
<rscale>  0 0.24459423E+04</rscale>
<asrwt>0</asrwt>
<pdfrwt beam="1">  1        1 0.38420887E+00 0.24459423E+04</pdfrwt>
<pdfrwt beam="2">  1       -2 0.49493351E+00 0.24459423E+04</pdfrwt>
<totfact> 0.17637845E-03</totfact>
</mgrwt>
</event>
<event>
12    3  0.2269558E-007  0.5547581E+03  0.7818608E-02  0.1000399E+00
          3   -1    0    0  501    0  0.00000000000E+00  0.00000000000E+00  0.13958744236E+04  0.13958744236E+04  0.00000000000E+00 0. -1.
         -4   -1    0    0    0  501 -0.00000000000E+00 -0.00000000000E+00 -0.28726864023E+03  0.28726864023E+03  0.00000000000E+00 0.  1.
        -24    2    1    2    0    0  0.38796866319E+03 -0.21265712046E+03  0.70383910719E+03  0.83514415423E+03  0.79583509831E+02 0.  0.
    5000000    2    1    2    0    0 -0.38796866319E+03  0.21265712046E+03  0.40476667620E+03  0.84799890963E+03  0.59960266349E+03 0.  0.
        -24    2    4    4    0    0 -0.50384223142E+03  0.17426214771E+03  0.44213816170E+03  0.69707341220E+03  0.78745778771E+02 0.  0.
         24    2    4    4    0    0  0.11587356823E+03  0.38394972746E+02 -0.37371485498E+02  0.15092549743E+03  0.80504783084E+02 0.  0.
         13    1    5    5    0    0 -0.19286336845E+03  0.33536104990E+02  0.13402747082E+03  0.23724314988E+03  0.00000000000E+00 0. -1.
        -14    1    5    5    0    0 -0.31097886297E+03  0.14072604272E+03  0.30811069087E+03  0.45983026232E+03  0.00000000000E+00 0.  1.
         13    1    3    3    0    0  0.22180794894E+03 -0.76760123097E+02  0.37867791761E+03  0.44551975040E+03  0.00000000000E+00 0. -1.
        -14    1    3    3    0    0  0.16616071425E+03 -0.13589699736E+03  0.32516118958E+03  0.38962440383E+03  0.00000000000E+00 0.  1.
          2    1    6    6  502    0  0.16746567242E+02  0.11578937197E+02 -0.43524673910E+02  0.48051186666E+02  0.00000000000E+00 0. -1.
         -1    1    6    6    0  502  0.99127000988E+02  0.26816035549E+02  0.61531884124E+01  0.10287431076E+03  0.00000000000E+00 0.  1.
<mgrwt>
<rscale>  0 0.55475810E+03</rscale>
<asrwt>0</asrwt>
<pdfrwt beam="1">  1        3 0.21474991E+00 0.55475810E+03</pdfrwt>
<pdfrwt beam="2">  1       -4 0.44195176E-01 0.55475810E+03</pdfrwt>
<totfact> 0.13643028E+00</totfact>
</mgrwt>
</event>
<event>
12    3  0.2269558E-007  0.6726187E+03  0.7818608E-02  0.9765239E-01
          1   -1    0    0  501    0  0.00000000000E+00  0.00000000000E+00  0.15108438066E+04  0.15108438066E+04  0.00000000000E+00 0. -1.
         -2   -1    0    0    0  501 -0.00000000000E+00 -0.00000000000E+00 -0.30509246745E+03  0.30509246745E+03  0.00000000000E+00 0.  1.
        -24    2    1    2    0    0 -0.22260510191E+03  0.49140260471E+03  0.56601308397E+03  0.78636818529E+03  0.83513833025E+02 0.  0.
    5000000    2    1    2    0    0  0.22260510191E+03 -0.49140260471E+03  0.63973825522E+03  0.10295680888E+04  0.59976317239E+03 0.  0.
        -24    2    4    4    0    0  0.31325740479E+02  0.12633223501E+03  0.89981138321E+02  0.17751331471E+03  0.80456423145E+02 0.  0.
         24    2    4    4    0    0  0.19127936143E+03 -0.61773483972E+03  0.54975711690E+03  0.85205477408E+03  0.74701567176E+02 0.  0.
         11    1    3    3    0    0 -0.11721305148E+03  0.35278921968E+03  0.38829480383E+03  0.53756114781E+03  0.00000000000E+00 0. -1.
        -12    1    3    3    0    0 -0.10539205043E+03  0.13861338503E+03  0.17771828014E+03  0.24880703748E+03  0.00000000000E+00 0.  1.
         13    1    5    5    0    0  0.19839112623E+02 -0.52460752329E+01  0.16765905319E+02  0.26499193878E+02  0.00000000000E+00 0. -1.
        -14    1    5    5    0    0  0.11486627856E+02  0.13157831025E+03  0.73215233002E+02  0.15101412083E+03  0.00000000000E+00 0.  1.
          4    1    6    6  502    0  0.22383747262E+02 -0.61602857597E+02  0.88085468915E+02  0.10979523687E+03  0.00000000000E+00 0. -1.
         -3    1    6    6    0  502  0.16889561417E+03 -0.55613198212E+03  0.46167164798E+03  0.74225953721E+03  0.00000000000E+00 0.  1.
<mgrwt>
<rscale>  0 0.67261866E+03</rscale>
<asrwt>0</asrwt>
<pdfrwt beam="1">  1        1 0.23243751E+00 0.67261866E+03</pdfrwt>
<pdfrwt beam="2">  1       -2 0.46937303E-01 0.67261866E+03</pdfrwt>
<totfact> 0.25240209E+01</totfact>
</mgrwt>
</event>
<event>
12    3  0.2269558E-007  0.7937321E+03  0.7818608E-02  0.9569134E-01
         -2   -1    0    0    0  501 -0.00000000000E+00  0.00000000000E+00  0.97676168163E+03  0.97676168163E+03  0.00000000000E+00 0.  1.
          1   -1    0    0  501    0  0.00000000000E+00 -0.00000000000E+00 -0.84871035231E+03  0.84871035231E+03  0.00000000000E+00 0. -1.
        -24    2    1    2    0    0 -0.29504721325E+03  0.71184384290E+03 -0.19120011959E+03  0.79799882185E+03  0.80437051288E+02 0.  0.
    5000000    2    1    2    0    0  0.29504721325E+03 -0.71184384290E+03  0.31925144891E+03  0.10274732121E+04  0.60000433266E+03 0.  0.
        -24    2    4    4    0    0  0.27491689682E+03 -0.33276319787E+03  0.43958536536E+03  0.62109315786E+03  0.78808446793E+02 0.  0.
         24    2    4    4    0    0  0.20130316427E+02 -0.37908064503E+03 -0.12033391645E+03  0.40638005423E+03  0.80976119668E+02 0.  0.
         11    1    5    5    0    0  0.21812203607E+03 -0.28325849016E+03  0.39817034064E+03  0.53511887934E+03  0.00000000000E+00 0. -1.
        -12    1    5    5    0    0  0.56794860752E+02 -0.49504707716E+02  0.41415024720E+02  0.85974278517E+02  0.00000000000E+00 0.  1.
         13    1    3    3    0    0 -0.13936778540E+03  0.23852795965E+03 -0.77623247341E+02  0.28695702756E+03  0.00000000000E+00 0. -1.
        -14    1    3    3    0    0 -0.15567942784E+03  0.47331588326E+03 -0.11357687224E+03  0.51104179429E+03  0.00000000000E+00 0.  1.
          4    1    6    6  502    0  0.69722508900E+01 -0.28628797720E+03 -0.12517290733E+03  0.31253427796E+03  0.00000000000E+00 0. -1.
         -3    1    6    6    0  502  0.13158065537E+02 -0.92792667833E+02  0.48389908799E+01  0.93845776276E+02  0.00000000000E+00 0.  1.
<mgrwt>
<rscale>  0 0.79373212E+03</rscale>
<asrwt>0</asrwt>
<pdfrwt beam="1">  1        1 0.13057082E+00 0.79373212E+03</pdfrwt>
<pdfrwt beam="2">  1       -2 0.15027103E+00 0.79373212E+03</pdfrwt>
<totfact> 0.53425742E+00</totfact>
</mgrwt>
</event>
<event>
12    3  0.2269558E-007  0.9764908E+03  0.7818608E-02  0.9334712E-01
          3   -1    0    0  501    0  0.00000000000E+00  0.00000000000E+00  0.79128706310E+03  0.79128706310E+03  0.00000000000E+00 0. -1.
         -4   -1    0    0    0  501 -0.00000000000E+00 -0.00000000000E+00 -0.13663383628E+04  0.13663383628E+04  0.00000000000E+00 0.  1.
        -24    2    1    2    0    0 -0.90112542180E+03 -0.99620215844E+02 -0.56339388606E+03  0.10703752516E+04  0.79619690293E+02 0.  0.
    5000000    2    1    2    0    0  0.90112542180E+03  0.99620215844E+02 -0.11657413651E+02  0.10872501743E+04  0.60002152718E+03 0.  0.
        -24    2    4    4    0    0  0.12696654806E+03  0.22491138814E+03  0.10606854325E+03  0.29035184247E+03  0.79674460892E+02 0.  0.
         24    2    4    4    0    0  0.77415887374E+03 -0.12529117229E+03 -0.11772595690E+03  0.79689833187E+03  0.78534774214E+02 0.  0.
         11    1    5    5    0    0  0.59983617769E+02  0.14925686174E+03  0.99385475658E+02  0.18908494903E+03  0.00000000000E+00 0. -1.
        -12    1    5    5    0    0  0.66982930293E+02  0.75654526400E+02  0.66830675900E+01  0.10126689344E+03  0.00000000000E+00 0.  1.
         13    1    3    3    0    0 -0.55324012515E+03 -0.67776957999E+02 -0.39076862759E+03  0.68071173960E+03  0.00000000000E+00 0. -1.
        -14    1    3    3    0    0 -0.34788529665E+03 -0.31843257845E+02 -0.17262525846E+03  0.38966351197E+03  0.00000000000E+00 0.  1.
          2    1    6    6  502    0  0.35570098605E+03 -0.64732590044E+02 -0.15377424070E+02  0.36187009390E+03  0.00000000000E+00 0. -1.
         -1    1    6    6    0  502  0.41845788769E+03 -0.60558582248E+02 -0.10234853283E+03  0.43502823797E+03  0.00000000000E+00 0.  1.
<mgrwt>
<rscale>  0 0.97649076E+03</rscale>
<asrwt>0</asrwt>
<pdfrwt beam="1">  1        3 0.12173647E+00 0.97649076E+03</pdfrwt>
<pdfrwt beam="2">  1       -4 0.21020590E+00 0.97649076E+03</pdfrwt>
<totfact> 0.13695308E-01</totfact>
</mgrwt>
</event>
<event>
12    3  0.2269558E-007  0.2539992E+03  0.7818608E-02  0.1110803E+00
          1   -1    0    0  501    0  0.00000000000E+00  0.00000000000E+00  0.41042107794E+03  0.41042107794E+03  0.00000000000E+00 0. -1.
         -2   -1    0    0    0  501 -0.00000000000E+00 -0.00000000000E+00 -0.46146979526E+03  0.46146979526E+03  0.00000000000E+00 0.  1.
        -24    2    1    2    0    0  0.56312575660E+02  0.91745934866E+01  0.19724139881E+03  0.22009083344E+03  0.79249771087E+02 0.  0.
    5000000    2    1    2    0    0 -0.56312575660E+02 -0.91745934866E+01 -0.24829011613E+03  0.65180003976E+03  0.59995002352E+03 0.  0.
        -24    2    4    4    0    0 -0.22202928325E+03  0.29087757619E+02  0.97630093575E+02  0.25816848003E+03  0.83523820810E+02 0.  0.
         24    2    4    4    0    0  0.16571670759E+03 -0.38262351105E+02 -0.34592020971E+03  0.39363155974E+03  0.79743204403E+02 0.  0.
         11    1    5    5    0    0 -0.13143162049E+03  0.30916136917E+02  0.15561770045E+02  0.13591264501E+03  0.00000000000E+00 0. -1.
        -12    1    5    5    0    0 -0.90597662766E+02 -0.18283792984E+01  0.82068323530E+02  0.12225583502E+03  0.00000000000E+00 0.  1.
         11    1    3    3    0    0 -0.55354894836E+01  0.31431237824E+02  0.65583569538E+02  0.72936746214E+02  0.00000000000E+00 0. -1.
        -12    1    3    3    0    0  0.61848065143E+02 -0.22256644337E+02  0.13165782927E+03  0.14715408723E+03  0.00000000000E+00 0.  1.
          2    1    6    6  502    0  0.95404892738E+02 -0.58046066194E+02 -0.17295201925E+03  0.20587335991E+03  0.00000000000E+00 0. -1.
         -1    1    6    6    0  502  0.70311814857E+02  0.19783715089E+02 -0.17296819046E+03  0.18775819982E+03  0.00000000000E+00 0.  1.
<mgrwt>
<rscale>  0 0.25399919E+03</rscale>
<asrwt>0</asrwt>
<pdfrwt beam="1">  1        1 0.63141705E-01 0.25399919E+03</pdfrwt>
<pdfrwt beam="2">  1       -2 0.70995353E-01 0.25399919E+03</pdfrwt>
<totfact> 0.96505430E+01</totfact>
</mgrwt>
</event>
<event>
12    3  0.2269558E-007  0.5956043E+03  0.7818608E-02  0.9914568E-01
         -2   -1    0    0    0  501 -0.00000000000E+00  0.00000000000E+00  0.33871548165E+03  0.33871548165E+03  0.00000000000E+00 0.  1.
          1   -1    0    0  501    0  0.00000000000E+00 -0.00000000000E+00 -0.11726042010E+04  0.11726042010E+04  0.00000000000E+00 0. -1.
        -24    2    1    2    0    0 -0.26946447827E+03 -0.40073513659E+03 -0.35267316862E+03  0.60315095216E+03  0.78822284192E+02 0.  0.
    5000000    2    1    2    0    0  0.26946447827E+03  0.40073513659E+03 -0.48121555076E+03  0.90816873051E+03  0.60000190170E+03 0.  0.
        -24    2    4    4    0    0 -0.95676685226E+02 -0.43936452087E+02  0.30008975184E+02  0.13386376565E+03  0.77035895825E+02 0.  0.
         24    2    4    4    0    0  0.36514116350E+03  0.44467158867E+03 -0.51122452594E+03  0.77430496486E+03  0.84479415393E+02 0.  0.
         13    1    5    5    0    0 -0.89421573310E+02 -0.35846186910E+01  0.23363043483E+02  0.92492697361E+02  0.00000000000E+00 0. -1.
        -14    1    5    5    0    0 -0.62551119163E+01 -0.40351833396E+02  0.66459317011E+01  0.41371068293E+02  0.00000000000E+00 0.  1.
         13    1    3    3    0    0 -0.19924664650E+03 -0.29279421621E+03 -0.29955787162E+03  0.46385622517E+03  0.00000000000E+00 0. -1.
        -14    1    3    3    0    0 -0.70217831775E+02 -0.10794092038E+03 -0.53115297006E+02  0.13929472699E+03  0.00000000000E+00 0.  1.
          4    1    6    6  502    0  0.15896763075E+03  0.15191521834E+03 -0.15350427943E+03  0.26816507042E+03  0.00000000000E+00 0. -1.
         -3    1    6    6    0  502  0.20617353274E+03  0.29275637033E+03 -0.35772024652E+03  0.50613989444E+03  0.00000000000E+00 0.  1.
<mgrwt>
<rscale>  0 0.59560433E+03</rscale>
<asrwt>0</asrwt>
<pdfrwt beam="1">  1        1 0.18040064E+00 0.59560433E+03</pdfrwt>
<pdfrwt beam="2">  1       -2 0.52110075E-01 0.59560433E+03</pdfrwt>
<totfact> 0.35569616E+01</totfact>
</mgrwt>
</event>
<event>
12    3  0.2269558E-007  0.1229533E+04  0.7818608E-02  0.9087392E-01
          1   -1    0    0  501    0  0.00000000000E+00  0.00000000000E+00  0.36260246759E+04  0.36260246759E+04  0.00000000000E+00 0. -1.
         -2   -1    0    0    0  501 -0.00000000000E+00 -0.00000000000E+00 -0.51140465006E+03  0.51140465006E+03  0.00000000000E+00 0.  1.
        -24    2    1    2    0    0 -0.11524674054E+04 -0.12708223422E+03  0.60885714588E+03  0.13119654187E+04  0.78836672858E+02 0.  0.
    5000000    2    1    2    0    0  0.11524674054E+04  0.12708223422E+03  0.25057628800E+04  0.28254639073E+04  0.60005638587E+03 0.  0.
        -24    2    4    4    0    0  0.91183555140E+02 -0.16037384166E+03  0.32810234047E+03  0.38456269823E+03  0.78759845296E+02 0.  0.
         24    2    4    4    0    0  0.10612838502E+04  0.28745607588E+03  0.21776605395E+04  0.24409012091E+04  0.82697526717E+02 0.  0.
         11    1    5    5    0    0  0.10171820647E+03 -0.15845960960E+03  0.31936689130E+03  0.37074418763E+03  0.00000000000E+00 0. -1.
        -12    1    5    5    0    0 -0.10534651328E+02 -0.19142320521E+01  0.87354491704E+01  0.13818510598E+02  0.00000000000E+00 0.  1.
         11    1    3    3    0    0 -0.13938108782E+03  0.69229592577E+00  0.96437197899E+02  0.16949247787E+03  0.00000000000E+00 0. -1.
        -12    1    3    3    0    0 -0.10130863175E+04 -0.12777453014E+03  0.51241994798E+03  0.11424729408E+04  0.00000000000E+00 0.  1.
          4    1    6    6  502    0  0.65986519061E+03  0.18347140972E+03  0.14430972020E+04  0.15973770257E+04  0.00000000000E+00 0. -1.
         -3    1    6    6    0  502  0.40141865962E+03  0.10398466615E+03  0.73456333751E+03  0.84352418336E+03  0.00000000000E+00 0.  1.
<mgrwt>
<rscale>  0 0.12295326E+04</rscale>
<asrwt>0</asrwt>
<pdfrwt beam="1">  1        1 0.55784993E+00 0.12295326E+04</pdfrwt>
<pdfrwt beam="2">  1       -2 0.78677641E-01 0.12295326E+04</pdfrwt>
<totfact> 0.25010692E-01</totfact>
</mgrwt>
</event>
<event>
12    3  0.2269558E-007  0.8523889E+03  0.7818608E-02  0.9487136E-01
         -2   -1    0    0    0  501 -0.00000000000E+00  0.00000000000E+00  0.88033935095E+03  0.88033935095E+03  0.00000000000E+00 0.  1.
          1   -1    0    0  501    0  0.00000000000E+00 -0.00000000000E+00 -0.10050599423E+04  0.10050599423E+04  0.00000000000E+00 0. -1.
        -24    2    1    2    0    0 -0.51469879654E+03  0.63184680970E+03  0.15759899395E+03  0.83471284011E+03  0.88106983074E+02 0.  0.
    5000000    2    1    2    0    0  0.51469879654E+03 -0.63184680970E+03 -0.28231958529E+03  0.10506864531E+04  0.60007702214E+03 0.  0.
        -24    2    4    4    0    0  0.48111418307E+03 -0.35677609389E+03  0.53564444304E+02  0.60839437948E+03  0.92274226960E+02 0.  0.
         24    2    4    4    0    0  0.33584613467E+02 -0.27507071581E+03 -0.33588402960E+03  0.44229207367E+03  0.77539487584E+02 0.  0.
         11    1    5    5    0    0  0.38901469351E+03 -0.27409306214E+03  0.63337041911E+01  0.47591969310E+03  0.00000000000E+00 0. -1.
        -12    1    5    5    0    0  0.92099489568E+02 -0.82683031746E+02  0.47230740113E+02  0.13247468637E+03  0.00000000000E+00 0.  1.
         13    1    3    3    0    0 -0.16102843466E+03  0.25520754072E+03  0.35721761715E+02  0.30387018588E+03  0.00000000000E+00 0. -1.
        -14    1    3    3    0    0 -0.35367036188E+03  0.37663926898E+03  0.12187723223E+03  0.53084265423E+03  0.00000000000E+00 0.  1.
          4    1    6    6  502    0  0.56102987860E+02 -0.16270893650E+03 -0.21989259730E+03  0.27923914054E+03  0.00000000000E+00 0. -1.
         -3    1    6    6    0  502 -0.22518374392E+02 -0.11236177931E+03 -0.11599143230E+03  0.16305293313E+03  0.00000000000E+00 0.  1.
<mgrwt>
<rscale>  0 0.85238892E+03</rscale>
<asrwt>0</asrwt>
<pdfrwt beam="1">  1        1 0.15462461E+00 0.85238892E+03</pdfrwt>
<pdfrwt beam="2">  1       -2 0.13543682E+00 0.85238892E+03</pdfrwt>
<totfact> 0.52061485E+00</totfact>
</mgrwt>
</event>
<event>
12    3  0.2269558E-007  0.7045614E+03  0.7818608E-02  0.9709463E-01
          1   -1    0    0  501    0  0.00000000000E+00  0.00000000000E+00  0.17422137696E+04  0.17422137696E+04  0.00000000000E+00 0. -1.
         -2   -1    0    0    0  501 -0.00000000000E+00 -0.00000000000E+00 -0.33881989004E+03  0.33881989004E+03  0.00000000000E+00 0.  1.
        -24    2    1    2    0    0  0.15441259900E+03  0.61270927955E+03  0.39951453785E+03  0.75177537951E+03  0.79362732424E+02 0.  0.
    5000000    2    1    2    0    0 -0.15441259900E+03 -0.61270927955E+03  0.10038793417E+04  0.13292582802E+04  0.59991493616E+03 0.  0.
        -24    2    4    4    0    0  0.27337172831E+02 -0.58829239099E+03  0.46564498381E+03  0.75496632169E+03  0.79458401851E+02 0.  0.
         24    2    4    4    0    0 -0.18174977183E+03 -0.24416888560E+02  0.53823435792E+03  0.57429195846E+03  0.80534871310E+02 0.  0.
         13    1    3    3    0    0  0.29004692710E+02  0.43390244390E+02  0.48745298186E+02  0.71414911627E+02  0.00000000000E+00 0. -1.
        -14    1    3    3    0    0  0.12540790629E+03  0.56931903516E+03  0.35076923967E+03  0.68036046788E+03  0.00000000000E+00 0.  1.
         13    1    5    5    0    0  0.35153638164E+00 -0.22150595390E+02  0.41530003684E+02  0.47069243248E+02  0.00000000000E+00 0. -1.
        -14    1    5    5    0    0  0.26985636450E+02 -0.56614179561E+03  0.42411498012E+03  0.70789707844E+03  0.00000000000E+00 0.  1.
          2    1    6    6  502    0 -0.17850031217E+02 -0.10080546605E+02  0.16674228862E+03  0.16799771382E+03  0.00000000000E+00 0. -1.
         -1    1    6    6    0  502 -0.16389974062E+03 -0.14336341954E+02  0.37149206930E+03  0.40629424464E+03  0.00000000000E+00 0.  1.
<mgrwt>
<rscale>  0 0.70456139E+03</rscale>
<asrwt>0</asrwt>
<pdfrwt beam="1">  1        1 0.26803288E+00 0.70456139E+03</pdfrwt>
<pdfrwt beam="2">  1       -2 0.52126138E-01 0.70456139E+03</pdfrwt>
<totfact> 0.14176393E+01</totfact>
</mgrwt>
</event>
<event>
12    3  0.2269558E-007  0.3639792E+03  0.7818608E-02  0.1057019E+00
         -2   -1    0    0    0  501 -0.00000000000E+00  0.00000000000E+00  0.13614539766E+04  0.13614539766E+04  0.00000000000E+00 0.  1.
          1   -1    0    0  501    0  0.00000000000E+00 -0.00000000000E+00 -0.17707328662E+03  0.17707328662E+03  0.00000000000E+00 0. -1.
        -24    2    1    2    0    0  0.16143973479E+03 -0.19418148487E+03  0.63150400353E+03  0.68453330303E+03  0.77584144357E+02 0.  0.
    5000000    2    1    2    0    0 -0.16143973479E+03  0.19418148487E+03  0.55287668644E+03  0.85399396017E+03  0.59988650307E+03 0.  0.
        -24    2    4    4    0    0  0.88083195494E+02  0.18737337911E+03 -0.21385948692E+02  0.22296575415E+03  0.79930821313E+02 0.  0.
         24    2    4    4    0    0 -0.24952293028E+03  0.68081057629E+01  0.57426263513E+03  0.63102820602E+03  0.78172755146E+02 0.  0.
         13    1    5    5    0    0 -0.18370627000E+01  0.69075760038E+02  0.13322247907E+02  0.70372705742E+02  0.00000000000E+00 0. -1.
        -14    1    5    5    0    0  0.89920258194E+02  0.11829761907E+03 -0.34708196599E+02  0.15259304841E+03  0.00000000000E+00 0.  1.
         13    1    3    3    0    0  0.74913810612E+02 -0.68694823977E+02  0.16535475824E+03  0.19409599155E+03  0.00000000000E+00 0. -1.
        -14    1    3    3    0    0  0.86525924174E+02 -0.12548666089E+03  0.46614924529E+03  0.49043731149E+03  0.00000000000E+00 0.  1.
          4    1    6    6  502    0 -0.14351834742E+03  0.32437503759E+02  0.39101760540E+03  0.41778520250E+03  0.00000000000E+00 0. -1.
         -3    1    6    6    0  502 -0.10600458286E+03 -0.25629397996E+02  0.18324502973E+03  0.21324300352E+03  0.00000000000E+00 0.  1.
<mgrwt>
<rscale>  0 0.36397922E+03</rscale>
<asrwt>0</asrwt>
<pdfrwt beam="1">  1        1 0.27242045E-01 0.36397922E+03</pdfrwt>
<pdfrwt beam="2">  1       -2 0.20945445E+00 0.36397922E+03</pdfrwt>
<totfact> 0.18728525E+01</totfact>
</mgrwt>
</event>
<event>
12    3  0.2269558E-007  0.4090796E+03  0.7818608E-02  0.1040680E+00
          1   -1    0    0  501    0  0.00000000000E+00  0.00000000000E+00  0.11176509865E+04  0.11176509865E+04  0.00000000000E+00 0. -1.
         -2   -1    0    0    0  501 -0.00000000000E+00 -0.00000000000E+00 -0.17905343811E+03  0.17905343811E+03  0.00000000000E+00 0.  1.
        -24    2    1    2    0    0  0.19905438806E+03  0.77839568670E+02  0.40891088677E+03  0.46802666358E+03  0.78480549480E+02 0.  0.
    5000000    2    1    2    0    0 -0.19905438806E+03 -0.77839568670E+02  0.52968666163E+03  0.82867776104E+03  0.60038089933E+03 0.  0.
        -24    2    4    4    0    0 -0.28151606900E+03 -0.25712022825E+03  0.47280045336E+03  0.61259536592E+03  0.79816694716E+02 0.  0.
         24    2    4    4    0    0  0.82461680943E+02  0.17928065958E+03  0.56886208262E+02  0.21608239513E+03  0.67186881675E+02 0.  0.
         11    1    5    5    0    0 -0.96294551287E+02 -0.40862520356E+02  0.11871058404E+03  0.15822322504E+03  0.00000000000E+00 0. -1.
        -12    1    5    5    0    0 -0.18522151772E+03 -0.21625770790E+03  0.35408986932E+03  0.45437214088E+03  0.00000000000E+00 0.  1.
         11    1    3    3    0    0  0.21965380387E+02  0.36504343180E+02  0.11228417821E+03  0.12009488616E+03  0.00000000000E+00 0. -1.
        -12    1    3    3    0    0  0.17708900767E+03  0.41335225490E+02  0.29662670856E+03  0.34793177742E+03  0.00000000000E+00 0.  1.
          2    1    6    6  502    0  0.98331808942E+00  0.59448321828E+02 -0.24240173379E+01  0.59505846290E+02  0.00000000000E+00 0. -1.
         -1    1    6    6    0  502  0.81478362854E+02  0.11983233775E+03  0.59310225600E+02  0.15657654884E+03  0.00000000000E+00 0.  1.
<mgrwt>
<rscale>  0 0.40907957E+03</rscale>
<asrwt>0</asrwt>
<pdfrwt beam="1">  1        1 0.17194630E+00 0.40907957E+03</pdfrwt>
<pdfrwt beam="2">  1       -2 0.27546684E-01 0.40907957E+03</pdfrwt>
<totfact> 0.13598936E+02</totfact>
</mgrwt>
</event>
<event>
12    3  0.2269558E-007  0.5487481E+03  0.7818608E-02  0.1001784E+00
         -2   -1    0    0    0  501 -0.00000000000E+00  0.00000000000E+00  0.84035699108E+03  0.84035699108E+03  0.00000000000E+00 0.  1.
          1   -1    0    0  501    0  0.00000000000E+00 -0.00000000000E+00 -0.68833726578E+03  0.68833726578E+03  0.00000000000E+00 0. -1.
        -24    2    1    2    0    0 -0.13436607896E+03  0.50073439513E+03 -0.30885580054E+03  0.61151231557E+03  0.98824232519E+02 0.  0.
    5000000    2    1    2    0    0  0.13436607896E+03 -0.50073439513E+03  0.46087552584E+03  0.91718194130E+03  0.60002273747E+03 0.  0.
        -24    2    4    4    0    0 -0.35655828082E+02 -0.30567739150E+03  0.54704668558E+03  0.63294482958E+03  0.81541862512E+02 0.  0.
         24    2    4    4    0    0  0.17002190704E+03 -0.19505700362E+03 -0.86171159739E+02  0.28423711171E+03  0.80066118731E+02 0.  0.
         13    1    5    5    0    0 -0.96118993637E+01 -0.12414784380E+03  0.14553444361E+03  0.19153420062E+03  0.00000000000E+00 0. -1.
        -14    1    5    5    0    0 -0.26043928719E+02 -0.18152954770E+03  0.40151224197E+03  0.44141062897E+03  0.00000000000E+00 0.  1.
         13    1    3    3    0    0 -0.65295230432E+02  0.33555992549E+03 -0.15458648480E+03  0.37518117223E+03  0.00000000000E+00 0. -1.
        -14    1    3    3    0    0 -0.69070848523E+02  0.16517446964E+03 -0.15426931574E+03  0.23633114335E+03  0.00000000000E+00 0.  1.
          4    1    6    6  502    0  0.10384875735E+03 -0.64275812353E+02 -0.21390152118E+02  0.12398985065E+03  0.00000000000E+00 0. -1.
         -1    1    6    6    0  502  0.66173149691E+02 -0.13078119127E+03 -0.64781007620E+02  0.16024726107E+03  0.00000000000E+00 0.  1.
<mgrwt>
<rscale>  0 0.54874812E+03</rscale>
<asrwt>0</asrwt>
<pdfrwt beam="1">  1        1 0.10589804E+00 0.54874812E+03</pdfrwt>
<pdfrwt beam="2">  1       -2 0.12928569E+00 0.54874812E+03</pdfrwt>
<totfact> 0.11279711E+01</totfact>
</mgrwt>
</event>
<event>
12    3  0.2347656E-007  0.4941465E+03  0.7818608E-02  0.1015318E+00
         -2   -1    0    0    0  501 -0.00000000000E+00  0.00000000000E+00  0.20573008765E+03  0.20573008765E+03  0.00000000000E+00 0.  1.
          1   -1    0    0  501    0  0.00000000000E+00 -0.00000000000E+00 -0.17577211067E+04  0.17577211067E+04  0.00000000000E+00 0. -1.
        -24    2    1    2    0    0  0.91336451359E+02  0.42636113819E+03 -0.74758618421E+03  0.86925096148E+03  0.81153950655E+02 0.  0.
    5000000    2    1    2    0    0 -0.91336451359E+02 -0.42636113819E+03 -0.80440483481E+03  0.10942002328E+04  0.60006736603E+03 0.  0.
        -24    2    4    4    0    0  0.10618410664E+03 -0.28340133312E+03 -0.75540341383E+02  0.32169349348E+03  0.78670073421E+02 0.  0.
         24    2    4    4    0    0 -0.19752055800E+03 -0.14295980506E+03 -0.72886449343E+03  0.77250673936E+03  0.77918777442E+02 0.  0.
         11    1    5    5    0    0  0.57661566441E+02 -0.18732500901E+03 -0.11251523239E+02  0.19632145074E+03  0.00000000000E+00 0. -1.
        -12    1    5    5    0    0  0.48522540196E+02 -0.96076324108E+02 -0.64288818145E+02  0.12537204274E+03  0.00000000000E+00 0.  1.
         13    1    3    3    0    0  0.78948918617E+02  0.21468330712E+03 -0.33955414261E+03  0.40941283550E+03  0.00000000000E+00 0. -1.
        -14    1    3    3    0    0  0.12387532742E+02  0.21167783106E+03 -0.40803204161E+03  0.45983812598E+03  0.00000000000E+00 0.  1.
          4    1    6    6  502    0 -0.82773222026E+02 -0.63009540380E+02 -0.19966529361E+03  0.22513959656E+03  0.00000000000E+00 0. -1.
         -3    1    6    6    0  502 -0.11474733597E+03 -0.79950264685E+02 -0.52919919982E+03  0.54736714280E+03  0.00000000000E+00 0.  1.
<mgrwt>
<rscale>  0 0.49414649E+03</rscale>
<asrwt>0</asrwt>
<pdfrwt beam="1">  1        1 0.27041864E+00 0.49414649E+03</pdfrwt>
<pdfrwt beam="2">  1       -2 0.31650782E-01 0.49414649E+03</pdfrwt>
<totfact> 0.37878312E+01</totfact>
</mgrwt>
</event>
<event>
12    3  0.2269558E-007  0.1078668E+04  0.7818608E-02  0.9226236E-01
          1   -1    0    0  501    0  0.00000000000E+00  0.00000000000E+00  0.15172963312E+04  0.15172963312E+04  0.00000000000E+00 0. -1.
         -2   -1    0    0    0  501 -0.00000000000E+00 -0.00000000000E+00 -0.10037604227E+04  0.10037604227E+04  0.00000000000E+00 0.  1.
        -24    2    1    2    0    0 -0.91514665552E+03  0.55441222276E+03  0.69919950715E+03  0.12806760750E+04  0.79905847445E+02 0.  0.
    5000000    2    1    2    0    0  0.91514665552E+03 -0.55441222276E+03 -0.18566359866E+03  0.12403806790E+04  0.59933875483E+03 0.  0.
        -24    2    4    4    0    0  0.26186420849E+03 -0.22780820857E+03  0.20589470096E+03  0.40780374966E+03  0.58667084247E+02 0.  0.
         24    2    4    4    0    0  0.65328244703E+03 -0.32660401419E+03 -0.39155829962E+03  0.83257692931E+03  0.80114315368E+02 0.  0.
         11    1    3    3    0    0 -0.43538993444E+03  0.30889059591E+03  0.33560822921E+03  0.63056377851E+03  0.00000000000E+00 0. -1.
        -12    1    3    3    0    0 -0.47975672108E+03  0.24552162685E+03  0.36359127794E+03  0.65011229650E+03  0.00000000000E+00 0.  1.
         13    1    5    5    0    0  0.19166407416E+03 -0.19582629391E+03  0.14860690528E+03  0.31171632458E+03  0.00000000000E+00 0. -1.
        -14    1    5    5    0    0  0.70200134331E+02 -0.31981914657E+02  0.57287795684E+02  0.96087425086E+02  0.00000000000E+00 0.  1.
          4    1    6    6  502    0  0.45932278678E+03 -0.26303375850E+03 -0.30479784277E+03  0.61079121271E+03  0.00000000000E+00 0. -1.
         -3    1    6    6    0  502  0.19395966026E+03 -0.63570255692E+02 -0.86760456852E+02  0.22178571660E+03  0.00000000000E+00 0.  1.
<mgrwt>
<rscale>  0 0.10786684E+04</rscale>
<asrwt>0</asrwt>
<pdfrwt beam="1">  1        1 0.23343021E+00 0.10786684E+04</pdfrwt>
<pdfrwt beam="2">  1       -2 0.15442468E+00 0.10786684E+04</pdfrwt>
<totfact> 0.15302718E+00</totfact>
</mgrwt>
</event>
<event>
12    3  0.2269558E-007  0.6067069E+03  0.7818608E-02  0.9891588E-01
         -2   -1    0    0    0  501 -0.00000000000E+00  0.00000000000E+00  0.47764433342E+03  0.47764433342E+03  0.00000000000E+00 0.  1.
          1   -1    0    0  501    0  0.00000000000E+00 -0.00000000000E+00 -0.10083904343E+04  0.10083904343E+04  0.00000000000E+00 0. -1.
        -24    2    1    2    0    0  0.23528014403E+02  0.56001324121E+03 -0.24336943169E+03  0.61642059667E+03  0.81100394086E+02 0.  0.
    5000000    2    1    2    0    0 -0.23528014403E+02 -0.56001324121E+03 -0.28737666914E+03  0.86961417102E+03  0.59956238931E+03 0.  0.
        -24    2    4    4    0    0  0.97459706356E+02 -0.46162118031E+03  0.58102336163E+02  0.48199574273E+03  0.79696336565E+02 0.  0.
         24    2    4    4    0    0 -0.12098772076E+03 -0.98392060895E+02 -0.34547900531E+03  0.38761842829E+03  0.81075746202E+02 0.  0.
         11    1    3    3    0    0 -0.23362212782E+02  0.33776177135E+03 -0.15986334463E+03  0.37441300208E+03  0.00000000000E+00 0. -1.
        -12    1    3    3    0    0  0.46890227186E+02  0.22225146986E+03 -0.83506087061E+02  0.24200759458E+03  0.00000000000E+00 0.  1.
         13    1    5    5    0    0  0.95090841828E+02 -0.41203713118E+03  0.75182516296E+02  0.42949886662E+03  0.00000000000E+00 0. -1.
        -14    1    5    5    0    0  0.23688645279E+01 -0.49584049134E+02 -0.17080180133E+02  0.52496876108E+02  0.00000000000E+00 0.  1.
          4    1    6    6  502    0 -0.42512917084E+01  0.13097449614E+02 -0.36550294968E+02  0.39058171102E+02  0.00000000000E+00 0. -1.
         -3    1    6    6    0  502 -0.11673642905E+03 -0.11148951051E+03 -0.30892871034E+03  0.34856025719E+03  0.00000000000E+00 0.  1.
<mgrwt>
<rscale>  0 0.60670686E+03</rscale>
<asrwt>0</asrwt>
<pdfrwt beam="1">  1        1 0.15513699E+00 0.60670686E+03</pdfrwt>
<pdfrwt beam="2">  1       -2 0.73483744E-01 0.60670686E+03</pdfrwt>
<totfact> 0.22712289E+01</totfact>
</mgrwt>
</event>
<event>
12    3  0.2269558E-007  0.4239775E+03  0.7818608E-02  0.1035780E+00
          1   -1    0    0  501    0  0.00000000000E+00  0.00000000000E+00  0.33617707548E+03  0.33617707548E+03  0.00000000000E+00 0. -1.
         -2   -1    0    0    0  501 -0.00000000000E+00 -0.00000000000E+00 -0.85401599221E+03  0.85401599221E+03  0.00000000000E+00 0.  1.
        -24    2    1    2    0    0  0.34029279062E+03  0.11975969678E+03 -0.21268353640E+03  0.42644186815E+03  0.80478642740E+02 0.  0.
    5000000    2    1    2    0    0 -0.34029279062E+03 -0.11975969678E+03 -0.30515538034E+03  0.76375119954E+03  0.60004543189E+03 0.  0.
        -24    2    4    4    0    0 -0.18804239565E+02 -0.12042903533E+03 -0.39373136271E+03  0.42029632240E+03  0.82267008331E+02 0.  0.
         24    2    4    4    0    0 -0.32148855106E+03  0.66933855765E+00  0.88575982375E+02  0.34345487715E+03  0.82220505401E+02 0.  0.
         11    1    5    5    0    0  0.26351985904E+02 -0.86644494914E+02 -0.23526523989E+03  0.25209408712E+03  0.00000000000E+00 0. -1.
        -12    1    5    5    0    0 -0.45156225469E+02 -0.33784540420E+02 -0.15846612282E+03  0.16820223527E+03  0.00000000000E+00 0.  1.
         11    1    3    3    0    0  0.29659199983E+03  0.72653508471E+02 -0.17507304968E+03  0.35198852166E+03  0.00000000000E+00 0. -1.
        -12    1    3    3    0    0  0.43700790785E+02  0.47106188305E+02 -0.37610486722E+02  0.74453346488E+02  0.00000000000E+00 0.  1.
          2    1    6    6  502    0 -0.67673049751E+02 -0.33088224717E+02  0.27757634382E+02  0.80280499151E+02  0.00000000000E+00 0. -1.
         -1    1    6    6    0  502 -0.25381550130E+03  0.33757563274E+02  0.60818347993E+02  0.26317437800E+03  0.00000000000E+00 0.  1.
<mgrwt>
<rscale>  0 0.42397749E+03</rscale>
<asrwt>0</asrwt>
<pdfrwt beam="1">  1        1 0.51719550E-01 0.42397749E+03</pdfrwt>
<pdfrwt beam="2">  1       -2 0.13138708E+00 0.42397749E+03</pdfrwt>
<totfact> 0.29225603E+01</totfact>
</mgrwt>
</event>
<event>
12    3  0.2269558E-007  0.6971014E+03  0.7818608E-02  0.9722202E-01
         -2   -1    0    0    0  501 -0.00000000000E+00  0.00000000000E+00  0.30121491230E+03  0.30121491230E+03  0.00000000000E+00 0.  1.
          1   -1    0    0  501    0  0.00000000000E+00 -0.00000000000E+00 -0.17578472514E+04  0.17578472514E+04  0.00000000000E+00 0. -1.
        -24    2    1    2    0    0  0.23937850748E+02  0.59811900077E+03 -0.54258653064E+03  0.81254072841E+03  0.86619468465E+02 0.  0.
    5000000    2    1    2    0    0 -0.23937850748E+02 -0.59811900077E+03 -0.91404580847E+03  0.12465214353E+04  0.60001382391E+03 0.  0.
        -24    2    4    4    0    0  0.23958012850E+03 -0.23700540301E+03 -0.60489987920E+03  0.69697250783E+03  0.79351205346E+02 0.  0.
         24    2    4    4    0    0 -0.26351797925E+03 -0.36111359775E+03 -0.30914592928E+03  0.54954892746E+03  0.81166878812E+02 0.  0.
         13    1    5    5    0    0  0.71835871162E+02 -0.26421816872E+02 -0.14908499680E+03  0.16758532472E+03  0.00000000000E+00 0. -1.
        -14    1    5    5    0    0  0.16774425734E+03 -0.21058358614E+03 -0.45581488240E+03  0.52938718311E+03  0.00000000000E+00 0.  1.
         13    1    3    3    0    0 -0.18442246521E+02  0.24600300776E+03 -0.18031410110E+03  0.30556631250E+03  0.00000000000E+00 0. -1.
        -14    1    3    3    0    0  0.42380097269E+02  0.35211599301E+03 -0.36227242954E+03  0.50697441591E+03  0.00000000000E+00 0.  1.
          4    1    6    6  502    0 -0.59278953613E+02 -0.85713211617E+02 -0.11632546600E+03  0.15618054625E+03  0.00000000000E+00 0. -1.
         -3    1    6    6    0  502 -0.20423902564E+03 -0.27540038614E+03 -0.19282046327E+03  0.39336838121E+03  0.00000000000E+00 0.  1.
<mgrwt>
<rscale>  0 0.69710140E+03</rscale>
<asrwt>0</asrwt>
<pdfrwt beam="1">  1        1 0.27043804E+00 0.69710140E+03</pdfrwt>
<pdfrwt beam="2">  1       -2 0.46340755E-01 0.69710140E+03</pdfrwt>
<totfact> 0.17583278E+01</totfact>
</mgrwt>
</event>
<event>
12    3  0.2269558E-007  0.6736275E+03  0.7818608E-02  0.9763427E-01
          1   -1    0    0  501    0  0.00000000000E+00  0.00000000000E+00  0.13455694946E+04  0.13455694946E+04  0.00000000000E+00 0. -1.
         -2   -1    0    0    0  501 -0.00000000000E+00 -0.00000000000E+00 -0.65712409252E+03  0.65712409252E+03  0.00000000000E+00 0.  1.
        -24    2    1    2    0    0 -0.37769810178E+03 -0.54052840953E+03 -0.24924144471E+03  0.70886175264E+03  0.74410140500E+02 0.  0.
    5000000    2    1    2    0    0  0.37769810178E+03  0.54052840953E+03  0.93768684682E+03  0.12938318345E+04  0.59993114245E+03 0.  0.
        -24    2    4    4    0    0  0.25971980232E+03  0.21908507601E+03  0.67670771314E+02  0.35546228113E+03  0.79507570495E+02 0.  0.
         24    2    4    4    0    0  0.11797829946E+03  0.32144333352E+03  0.87001607550E+03  0.93836955338E+03  0.79779391227E+02 0.  0.
         11    1    3    3    0    0 -0.15585031337E+03 -0.19802919913E+03 -0.13093260426E+03  0.28398632140E+03  0.00000000000E+00 0. -1.
        -12    1    3    3    0    0 -0.22184778841E+03 -0.34249921040E+03 -0.11830884045E+03  0.42487543124E+03  0.00000000000E+00 0.  1.
         13    1    5    5    0    0  0.16823037511E+03  0.16344309110E+03  0.12208815533E+02  0.23487051393E+03  0.00000000000E+00 0. -1.
        -14    1    5    5    0    0  0.91489427214E+02  0.55641984909E+02  0.55461955781E+02  0.12059176720E+03  0.00000000000E+00 0.  1.
          4    1    6    6  502    0  0.10462245806E+03  0.22441030101E+03  0.69530899395E+03  0.73807888399E+03  0.00000000000E+00 0. -1.
         -3    1    6    6    0  502  0.13355841401E+02  0.97033032508E+02  0.17470708155E+03  0.20029066938E+03  0.00000000000E+00 0.  1.
<mgrwt>
<rscale>  0 0.67362753E+03</rscale>
<asrwt>0</asrwt>
<pdfrwt beam="1">  1        1 0.20701069E+00 0.67362753E+03</pdfrwt>
<pdfrwt beam="2">  1       -2 0.10109601E+00 0.67362753E+03</pdfrwt>
<totfact> 0.61740207E+00</totfact>
</mgrwt>
</event>
<event>
12    3  0.2269558E-007  0.6958799E+03  0.7818608E-02  0.9724304E-01
         -2   -1    0    0    0  501 -0.00000000000E+00  0.00000000000E+00  0.18587200955E+03  0.18587200955E+03  0.00000000000E+00 0.  1.
          1   -1    0    0  501    0  0.00000000000E+00 -0.00000000000E+00 -0.28164739456E+04  0.28164739456E+04  0.00000000000E+00 0. -1.
        -24    2    1    2    0    0  0.57240314279E+03  0.94995135269E+02 -0.13755399921E+04  0.14950624917E+04  0.80200688883E+02 0.  0.
    5000000    2    1    2    0    0 -0.57240314279E+03 -0.94995135269E+02 -0.12550619439E+04  0.15072834635E+04  0.60004460048E+03 0.  0.
        -24    2    4    4    0    0  0.11019076717E+03 -0.43437084536E+02 -0.25320308393E+03  0.29123959419E+03  0.81730741045E+02 0.  0.
         24    2    4    4    0    0 -0.68259390996E+03 -0.51558050732E+02 -0.10018588600E+04  0.12160438693E+04  0.80304658301E+02 0.  0.
         11    1    5    5    0    0  0.76388851690E+02 -0.38464834418E+02 -0.23970188007E+03  0.25450302839E+03  0.00000000000E+00 0. -1.
        -12    1    5    5    0    0  0.33801915482E+02 -0.49722501178E+01 -0.13501203857E+02  0.36736565804E+02  0.00000000000E+00 0.  1.
         13    1    3    3    0    0  0.39125646852E+03  0.91938138031E+02 -0.10117305069E+04  0.10886380776E+04  0.00000000000E+00 0. -1.
        -14    1    3    3    0    0  0.18114667427E+03  0.30569972381E+01 -0.36380948522E+03  0.40642441409E+03  0.00000000000E+00 0.  1.
          2    1    6    6  502    0 -0.21497204606E+03 -0.52787815622E+02 -0.33732598988E+03  0.40347039236E+03  0.00000000000E+00 0. -1.
         -1    1    6    6    0  502 -0.46762186390E+03  0.12297648892E+01 -0.66453287009E+03  0.81257347690E+03  0.00000000000E+00 0.  1.
<mgrwt>
<rscale>  0 0.69587992E+03</rscale>
<asrwt>0</asrwt>
<pdfrwt beam="1">  1        1 0.43330371E+00 0.69587992E+03</pdfrwt>
<pdfrwt beam="2">  1       -2 0.28595692E-01 0.69587992E+03</pdfrwt>
<totfact> 0.85247173E+00</totfact>
</mgrwt>
</event>
<event>
12    3  0.2269558E-007  0.1069690E+04  0.7818608E-02  0.9235248E-01
          1   -1    0    0  501    0  0.00000000000E+00  0.00000000000E+00  0.12025818292E+04  0.12025818292E+04  0.00000000000E+00 0. -1.
         -2   -1    0    0    0  501 -0.00000000000E+00 -0.00000000000E+00 -0.98266115662E+03  0.98266115662E+03  0.00000000000E+00 0.  1.
        -24    2    1    2    0    0 -0.39077923529E+03  0.91202736197E+03 -0.42333150863E+02  0.99628004422E+03  0.79243366486E+02 0.  0.
    5000000    2    1    2    0    0  0.39077923529E+03 -0.91202736197E+03  0.26225382343E+03  0.11889629416E+04  0.60029450177E+03 0.  0.
        -24    2    4    4    0    0  0.18529122413E+03  0.20135535363E+02  0.39435655131E+02  0.20553748851E+03  0.77150572046E+02 0.  0.
         24    2    4    4    0    0  0.20548801116E+03 -0.93216289734E+03  0.22281816830E+03  0.98342545308E+03  0.79527955676E+02 0.  0.
         11    1    5    5    0    0  0.67444446632E+02 -0.11112961719E+02 -0.18120907138E+02  0.70715051970E+02  0.00000000000E+00 0. -1.
        -12    1    5    5    0    0  0.11784677749E+03  0.31248497082E+02  0.57556562269E+02  0.13482243654E+03  0.00000000000E+00 0.  1.
         13    1    3    3    0    0 -0.15780651306E+03  0.42844585618E+03  0.12163402525E+02  0.45674576692E+03  0.00000000000E+00 0. -1.
        -14    1    3    3    0    0 -0.23297272223E+03  0.48358150580E+03 -0.54496553389E+02  0.53953427730E+03  0.00000000000E+00 0.  1.
          4    1    6    6  502    0  0.16721711717E+03 -0.82945341885E+03  0.17607535035E+03  0.86426678018E+03  0.00000000000E+00 0. -1.
         -3    1    6    6    0  502  0.38270893989E+02 -0.10270947849E+03  0.46742817943E+02  0.11915867290E+03  0.00000000000E+00 0.  1.
<mgrwt>
<rscale>  0 0.10696904E+04</rscale>
<asrwt>0</asrwt>
<pdfrwt beam="1">  1        1 0.18501259E+00 0.10696904E+04</pdfrwt>
<pdfrwt beam="2">  1       -2 0.15117864E+00 0.10696904E+04</pdfrwt>
<totfact> 0.27074364E+00</totfact>
</mgrwt>
</event>
<event>
12    3  0.2269558E-007  0.5929444E+03  0.7818608E-02  0.9920153E-01
          1   -1    0    0  501    0  0.00000000000E+00  0.00000000000E+00  0.10734802747E+04  0.10734802747E+04  0.00000000000E+00 0. -1.
         -2   -1    0    0    0  501 -0.00000000000E+00 -0.00000000000E+00 -0.35882940441E+03  0.35882940441E+03  0.00000000000E+00 0.  1.
        -24    2    1    2    0    0  0.29479925155E+03 -0.35465921512E+03  0.38628317814E+03  0.60734419770E+03  0.83441735234E+02 0.  0.
    5000000    2    1    2    0    0 -0.29479925155E+03  0.35465921512E+03  0.32836769211E+03  0.82496548137E+03  0.60004412059E+03 0.  0.
        -24    2    4    4    0    0 -0.37633246184E+03  0.45495482848E+03  0.31221629743E+03  0.67254555518E+03  0.78920780673E+02 0.  0.
         24    2    4    4    0    0  0.81533210293E+02 -0.10029561336E+03  0.16151394678E+02  0.15241992619E+03  0.79146016383E+02 0.  0.
         13    1    3    3    0    0  0.18347999563E+03 -0.23551599575E+03  0.19785490453E+03  0.35816093631E+03  0.00000000000E+00 0. -1.
        -14    1    3    3    0    0  0.11131925592E+03 -0.11914321936E+03  0.18842827361E+03  0.24918326138E+03  0.00000000000E+00 0.  1.
         13    1    5    5    0    0 -0.10298896585E+03  0.14877139523E+03  0.59190079561E+02  0.19037626072E+03  0.00000000000E+00 0. -1.
        -14    1    5    5    0    0 -0.27334349599E+03  0.30618343325E+03  0.25302621787E+03  0.48216929447E+03  0.00000000000E+00 0.  1.
          2    1    6    6  502    0  0.35306429848E+02 -0.67635508565E+02 -0.27332791653E+02  0.81044355183E+02  0.00000000000E+00 0. -1.
         -1    1    6    6    0  502  0.46226780445E+02 -0.32660104796E+02  0.43484186331E+02  0.71375571006E+02  0.00000000000E+00 0.  1.
<mgrwt>
<rscale>  0 0.59294441E+03</rscale>
<asrwt>0</asrwt>
<pdfrwt beam="1">  1        1 0.16515081E+00 0.59294441E+03</pdfrwt>
<pdfrwt beam="2">  1       -2 0.55204524E-01 0.59294441E+03</pdfrwt>
<totfact> 0.37377602E+01</totfact>
</mgrwt>
</event>
<event>
12    3  0.2269558E-007  0.8343037E+03  0.7818608E-02  0.9511650E-01
         -2   -1    0    0    0  501 -0.00000000000E+00  0.00000000000E+00  0.43882963784E+03  0.43882963784E+03  0.00000000000E+00 0.  1.
          1   -1    0    0  501    0  0.00000000000E+00 -0.00000000000E+00 -0.22565874113E+04  0.22565874113E+04  0.00000000000E+00 0. -1.
        -24    2    1    2    0    0  0.64789548055E+03 -0.34980543635E+03 -0.12029115536E+03  0.75029635003E+03  0.79638268410E+02 0.  0.
    5000000    2    1    2    0    0 -0.64789548055E+03  0.34980543635E+03 -0.16974666181E+04  0.19451206991E+04  0.59997434742E+03 0.  0.
        -24    2    4    4    0    0  0.76510625662E+02 -0.47477263329E+02 -0.19627739387E+03  0.22975565404E+03  0.78453035926E+02 0.  0.
         24    2    4    4    0    0 -0.72440610621E+03  0.39728269968E+03 -0.15011892242E+04  0.17153650451E+04  0.79438030932E+02 0.  0.
         11    1    5    5    0    0  0.82925044546E+02 -0.39161999629E+02 -0.19881933267E+03  0.21895057038E+03  0.00000000000E+00 0. -1.
        -12    1    5    5    0    0 -0.64144188839E+01 -0.83152637005E+01  0.25419387965E+01  0.10805083659E+02  0.00000000000E+00 0.  1.
         11    1    3    3    0    0  0.40119877192E+03 -0.22658010725E+03 -0.11312421622E+03  0.47444292374E+03  0.00000000000E+00 0. -1.
        -12    1    3    3    0    0  0.24669670863E+03 -0.12322532910E+03 -0.71669391479E+01  0.27585342629E+03  0.00000000000E+00 0.  1.
          4    1    6    6  502    0 -0.33512895722E+03  0.22832407640E+03 -0.74849993530E+03  0.85129046451E+03  0.00000000000E+00 0. -1.
         -3    1    6    6    0  502 -0.38927714900E+03  0.16895862328E+03 -0.75268928892E+03  0.86407458056E+03  0.00000000000E+00 0.  1.
<mgrwt>
<rscale>  0 0.83430369E+03</rscale>
<asrwt>0</asrwt>
<pdfrwt beam="1">  1        1 0.34716729E+00 0.83430369E+03</pdfrwt>
<pdfrwt beam="2">  1       -2 0.67512253E-01 0.83430369E+03</pdfrwt>
<totfact> 0.36445976E+00</totfact>
</mgrwt>
</event>
<event>
12    3  0.2269558E-007  0.5459464E+03  0.7818608E-02  0.1002437E+00
          1   -1    0    0  501    0  0.00000000000E+00  0.00000000000E+00  0.10082377555E+04  0.10082377555E+04  0.00000000000E+00 0. -1.
         -2   -1    0    0    0  501 -0.00000000000E+00 -0.00000000000E+00 -0.48066246191E+03  0.48066246191E+03  0.00000000000E+00 0.  1.
        -24    2    1    2    0    0  0.45340544535E+03  0.39263508029E+02 -0.13814514084E+03  0.48399004424E+03  0.89689252685E+02 0.  0.
    5000000    2    1    2    0    0 -0.45340544535E+03 -0.39263508029E+02  0.66572043444E+03  0.10049101732E+04  0.59961874420E+03 0.  0.
        -24    2    4    4    0    0 -0.46536075953E+02  0.15811461539E+03 -0.14910258271E+02  0.18365368660E+03  0.79627400035E+02 0.  0.
         24    2    4    4    0    0 -0.40686936940E+03 -0.19737812342E+03  0.68063069271E+03  0.82125648658E+03  0.81873497117E+02 0.  0.
         13    1    3    3    0    0  0.41314272093E+03  0.46472440343E+02 -0.14904925304E+03  0.44165855070E+03  0.00000000000E+00 0. -1.
        -14    1    3    3    0    0  0.40262724416E+02 -0.72089323138E+01  0.10904112199E+02  0.42331493540E+02  0.00000000000E+00 0.  1.
         13    1    5    5    0    0  0.22079259476E+02  0.26697394549E+02  0.94259338060E-01  0.34644674331E+02  0.00000000000E+00 0. -1.
        -14    1    5    5    0    0 -0.68615335429E+02  0.13141722084E+03 -0.15004517609E+02  0.14900901227E+03  0.00000000000E+00 0.  1.
          4    1    6    6  502    0 -0.31635720150E+02 -0.18606992340E+02  0.10514774954E+03  0.11136915276E+03  0.00000000000E+00 0. -1.
         -3    1    6    6    0  502 -0.37523364925E+03 -0.17877113108E+03  0.57548294317E+03  0.70988733382E+03  0.00000000000E+00 0.  1.
<mgrwt>
<rscale>  0 0.54594641E+03</rscale>
<asrwt>0</asrwt>
<pdfrwt beam="1">  1        1 0.15511350E+00 0.54594641E+03</pdfrwt>
<pdfrwt beam="2">  1       -2 0.73948072E-01 0.54594641E+03</pdfrwt>
<totfact> 0.22591391E+01</totfact>
</mgrwt>
</event>
<event>
12    3  0.2269558E-007  0.3613264E+03  0.7818608E-02  0.1058060E+00
         -2   -1    0    0    0  501 -0.00000000000E+00  0.00000000000E+00  0.47739230787E+03  0.47739230787E+03  0.00000000000E+00 0.  1.
          1   -1    0    0  501    0  0.00000000000E+00 -0.00000000000E+00 -0.54914411037E+03  0.54914411037E+03  0.00000000000E+00 0. -1.
        -24    2    1    2    0    0  0.26691120379E+03 -0.21184967588E+02  0.17065099774E+03  0.32624575708E+03  0.74994249270E+02 0.  0.
    5000000    2    1    2    0    0 -0.26691120379E+03  0.21184967588E+02 -0.24240280024E+03  0.70029066115E+03  0.59996458143E+03 0.  0.
        -24    2    4    4    0    0  0.72352412614E+01  0.12612521954E+03 -0.34775065543E+03  0.37836297204E+03  0.79171336629E+02 0.  0.
         24    2    4    4    0    0 -0.27414644505E+03 -0.10494025195E+03  0.10534785519E+03  0.32192768911E+03  0.79815641386E+02 0.  0.
         11    1    3    3    0    0  0.12165269836E+03 -0.44876654801E+02  0.64798009687E+02  0.14495542495E+03  0.00000000000E+00 0. -1.
        -12    1    3    3    0    0  0.14525850543E+03  0.23691687213E+02  0.10585298805E+03  0.18129033213E+03  0.00000000000E+00 0.  1.
         11    1    5    5    0    0 -0.27359357187E+02  0.76787019194E+02 -0.13950971893E+03  0.16157890462E+03  0.00000000000E+00 0. -1.
        -12    1    5    5    0    0  0.34594598448E+02  0.49338200346E+02 -0.20824093650E+03  0.21678406743E+03  0.00000000000E+00 0.  1.
          2    1    6    6  502    0 -0.10727648991E+03 -0.69305874720E+00  0.32082955482E+02  0.11197339706E+03  0.00000000000E+00 0. -1.
         -1    1    6    6    0  502 -0.16686995514E+03 -0.10424719320E+03  0.73264899705E+02  0.20995429205E+03  0.00000000000E+00 0.  1.
<mgrwt>
<rscale>  0 0.36132636E+03</rscale>
<asrwt>0</asrwt>
<pdfrwt beam="1">  1        1 0.84483710E-01 0.36132636E+03</pdfrwt>
<pdfrwt beam="2">  1       -2 0.73444970E-01 0.36132636E+03</pdfrwt>
<totfact> 0.60026421E+01</totfact>
</mgrwt>
</event>
<event>
12    3  0.2269558E-007  0.6420304E+03  0.7818608E-02  0.9821850E-01
         -2   -1    0    0    0  501 -0.00000000000E+00  0.00000000000E+00  0.12291197776E+04  0.12291197776E+04  0.00000000000E+00 0.  1.
          1   -1    0    0  501    0  0.00000000000E+00 -0.00000000000E+00 -0.50602063487E+03  0.50602063487E+03  0.00000000000E+00 0. -1.
        -24    2    1    2    0    0 -0.34902730300E+03 -0.46929333549E+03 -0.53045260718E+02  0.59300452112E+03  0.82366676616E+02 0.  0.
    5000000    2    1    2    0    0  0.34902730300E+03  0.46929333549E+03  0.77614440347E+03  0.11421358914E+04  0.60001497178E+03 0.  0.
        -24    2    4    4    0    0 -0.49477652049E+02  0.15547023506E+03 -0.32228728132E+02  0.18416174865E+03  0.79106426454E+02 0.  0.
         24    2    4    4    0    0  0.39850495505E+03  0.31382310042E+03  0.80837313160E+03  0.95797414272E+03  0.83403840881E+02 0.  0.
         11    1    5    5    0    0 -0.37650687937E+02  0.16291807506E+03 -0.27851852590E+02  0.16951577855E+03  0.00000000000E+00 0. -1.
        -12    1    5    5    0    0 -0.11826964112E+02 -0.74478399985E+01 -0.43768755420E+01  0.14645970103E+02  0.00000000000E+00 0.  1.
         13    1    3    3    0    0 -0.27611690377E+03 -0.41663349598E+03 -0.33355834833E+02  0.50093575061E+03  0.00000000000E+00 0. -1.
        -14    1    3    3    0    0 -0.72910399226E+02 -0.52659839508E+02 -0.19689425885E+02  0.92068770514E+02  0.00000000000E+00 0.  1.
          2    1    6    6  502    0  0.37389947325E+03  0.31437110502E+03  0.78074242624E+03  0.92097163034E+03  0.00000000000E+00 0. -1.
         -1    1    6    6    0  502  0.24605481799E+02 -0.54800459414E+00  0.27630705355E+02  0.37002512375E+02  0.00000000000E+00 0.  1.
<mgrwt>
<rscale>  0 0.64203040E+03</rscale>
<asrwt>0</asrwt>
<pdfrwt beam="1">  1        1 0.77849329E-01 0.64203040E+03</pdfrwt>
<pdfrwt beam="2">  1       -2 0.18909535E+00 0.64203040E+03</pdfrwt>
<totfact> 0.62216549E+00</totfact>
</mgrwt>
</event>
<event>
12    3  0.2269558E-007  0.5431524E+03  0.7818608E-02  0.1003091E+00
         -4   -1    0    0    0  501 -0.00000000000E+00  0.00000000000E+00  0.39410301539E+03  0.39410301539E+03  0.00000000000E+00 0.  1.
          3   -1    0    0  501    0  0.00000000000E+00 -0.00000000000E+00 -0.15536765742E+04  0.15536765742E+04  0.00000000000E+00 0. -1.
        -24    2    1    2    0    0 -0.77615036948E+02 -0.38823619889E+03 -0.11617230163E+04  0.12288599756E+04  0.61196675506E+02 0.  0.
    5000000    2    1    2    0    0  0.77615036948E+02  0.38823619889E+03  0.21494574470E+01  0.71891961397E+03  0.60007445462E+03 0.  0.
        -24    2    4    4    0    0  0.26732832980E+03  0.20355005213E+02 -0.76814321014E+02  0.29005757698E+03  0.79713210341E+02 0.  0.
         24    2    4    4    0    0 -0.18971329285E+03  0.36788119368E+03  0.78963778461E+02  0.42886203699E+03  0.79747490947E+02 0.  0.
         11    1    3    3    0    0 -0.73159154088E+02 -0.27741500353E+03 -0.76897991889E+03  0.82075663973E+03  0.00000000000E+00 0. -1.
        -12    1    3    3    0    0 -0.44558828600E+01 -0.11082119537E+03 -0.39274309739E+03  0.40810333591E+03  0.00000000000E+00 0.  1.
         13    1    5    5    0    0  0.13741910861E+03 -0.79548995579E+00  0.47602937769E+00  0.13742223553E+03  0.00000000000E+00 0. -1.
        -14    1    5    5    0    0  0.12990922119E+03  0.21150495168E+02 -0.77290350392E+02  0.15263534145E+03  0.00000000000E+00 0.  1.
          2    1    6    6  502    0 -0.95137842746E+02  0.11373025637E+03  0.48360522476E+02  0.15596320229E+03  0.00000000000E+00 0. -1.
         -1    1    6    6    0  502 -0.94575450102E+02  0.25415093732E+03  0.30603255985E+02  0.27289883469E+03  0.00000000000E+00 0.  1.
<mgrwt>
<rscale>  0 0.54315245E+03</rscale>
<asrwt>0</asrwt>
<pdfrwt beam="1">  1        3 0.23902717E+00 0.54315245E+03</pdfrwt>
<pdfrwt beam="2">  1       -4 0.60631233E-01 0.54315245E+03</pdfrwt>
<totfact> 0.50586925E-01</totfact>
</mgrwt>
</event>
<event>
12    3  0.2269558E-007  0.7676332E+03  0.7818608E-02  0.9608086E-01
         -2   -1    0    0    0  501 -0.00000000000E+00  0.00000000000E+00  0.31788361381E+03  0.31788361381E+03  0.00000000000E+00 0.  1.
          1   -1    0    0  501    0  0.00000000000E+00 -0.00000000000E+00 -0.26098667500E+04  0.26098667500E+04  0.00000000000E+00 0. -1.
        -24    2    1    2    0    0  0.17712157883E+03  0.65113448533E+03 -0.17435212076E+04  0.18712811133E+04  0.80489950116E+02 0.  0.
    5000000    2    1    2    0    0 -0.17712157883E+03 -0.65113448533E+03 -0.54846192865E+03  0.10564692506E+04  0.59997384818E+03 0.  0.
        -24    2    4    4    0    0 -0.21122456609E+03 -0.71941307438E+03 -0.57284449156E+03  0.94717584447E+03  0.82584986059E+02 0.  0.
         24    2    4    4    0    0  0.34102987258E+02  0.68278589053E+02  0.24382562911E+02  0.10929340608E+03  0.74334109100E+02 0.  0.
         13    1    3    3    0    0  0.45531907202E+01  0.90649781616E+01 -0.66619743804E+02  0.67387651979E+02  0.00000000000E+00 0. -1.
        -14    1    3    3    0    0  0.17256838811E+03  0.64206950717E+03 -0.16769014638E+04  0.18038934613E+04  0.00000000000E+00 0.  1.
         13    1    5    5    0    0 -0.61160560095E+02 -0.10429835015E+03 -0.10096591277E+03  0.15752103192E+03  0.00000000000E+00 0. -1.
        -14    1    5    5    0    0 -0.15006400599E+03 -0.61511472423E+03 -0.47187857879E+03  0.78965481255E+03  0.00000000000E+00 0.  1.
          2    1    6    6  502    0 -0.23596576871E+02  0.21524260276E+02  0.11340483676E+02  0.33892459198E+02  0.00000000000E+00 0. -1.
         -1    1    6    6    0  502  0.57699564129E+02  0.46754328777E+02  0.13042079235E+02  0.75400946883E+02  0.00000000000E+00 0.  1.
<mgrwt>
<rscale>  0 0.76763319E+03</rscale>
<asrwt>0</asrwt>
<pdfrwt beam="1">  1        1 0.40151796E+00 0.76763319E+03</pdfrwt>
<pdfrwt beam="2">  1       -2 0.48905171E-01 0.76763319E+03</pdfrwt>
<totfact> 0.41622855E+00</totfact>
</mgrwt>
</event>
<event>
12    3  0.2269558E-007  0.6090056E+03  0.7818608E-02  0.9886896E-01
          1   -1    0    0  501    0  0.00000000000E+00  0.00000000000E+00  0.51905349417E+03  0.51905349417E+03  0.00000000000E+00 0. -1.
         -2   -1    0    0    0  501 -0.00000000000E+00 -0.00000000000E+00 -0.11829101244E+04  0.11829101244E+04  0.00000000000E+00 0.  1.
        -24    2    1    2    0    0  0.28878836747E+03 -0.49369263491E+03 -0.65420592317E+03  0.87285326389E+03  0.82196663081E+02 0.  0.
    5000000    2    1    2    0    0 -0.28878836747E+03  0.49369263491E+03 -0.96507070203E+01  0.82911035464E+03  0.60016639782E+03 0.  0.
        -24    2    4    4    0    0 -0.34063003312E+02  0.30939409125E+03  0.25657404663E+03  0.40936648689E+03  0.69754478662E+02 0.  0.
         24    2    4    4    0    0 -0.25472536416E+03  0.18429854367E+03 -0.26622475365E+03  0.41974386775E+03  0.80363740029E+02 0.  0.
         11    1    3    3    0    0  0.17883973026E+03 -0.23851307605E+03 -0.37347400069E+03  0.47786500788E+03  0.00000000000E+00 0. -1.
        -12    1    3    3    0    0  0.10994863721E+03 -0.25517955887E+03 -0.28073192248E+03  0.39498825601E+03  0.00000000000E+00 0.  1.
         13    1    5    5    0    0 -0.46850830163E+02  0.13319709667E+03  0.96991988153E+02  0.17130064978E+03  0.00000000000E+00 0. -1.
        -14    1    5    5    0    0  0.12787826851E+02  0.17619699457E+03  0.15958205848E+03  0.23806583711E+03  0.00000000000E+00 0.  1.
          2    1    6    6  502    0 -0.78059377947E+02  0.10422572726E+03 -0.11630195968E+03  0.17459213766E+03  0.00000000000E+00 0. -1.
         -1    1    6    6    0  502 -0.17666598621E+03  0.80072816409E+02 -0.14992279397E+03  0.24515173009E+03  0.00000000000E+00 0.  1.
<mgrwt>
<rscale>  0 0.60900562E+03</rscale>
<asrwt>0</asrwt>
<pdfrwt beam="1">  1        1 0.79854385E-01 0.60900562E+03</pdfrwt>
<pdfrwt beam="2">  1       -2 0.18198617E+00 0.60900562E+03</pdfrwt>
<totfact> 0.67369377E+00</totfact>
</mgrwt>
</event>
<event>
12    3  0.2269558E-007  0.2972469E+03  0.7818608E-02  0.1086625E+00
          3   -1    0    0  501    0  0.00000000000E+00  0.00000000000E+00  0.53987196563E+03  0.53987196563E+03  0.00000000000E+00 0. -1.
         -4   -1    0    0    0  501 -0.00000000000E+00 -0.00000000000E+00 -0.36577860855E+03  0.36577860855E+03  0.00000000000E+00 0.  1.
        -24    2    1    2    0    0  0.21902514041E+03  0.54974847060E+02 -0.69169219235E+01  0.23955913287E+03  0.79664850428E+02 0.  0.
    5000000    2    1    2    0    0 -0.21902514041E+03 -0.54974847060E+02  0.18101027900E+03  0.66609144130E+03  0.59993236379E+03 0.  0.
        -24    2    4    4    0    0  0.91852940190E+00  0.92230659977E+02 -0.17615951227E+03  0.21464579436E+03  0.80828862025E+02 0.  0.
         24    2    4    4    0    0 -0.21994366981E+03 -0.14720550704E+03  0.35716979127E+03  0.45144564694E+03  0.78665323723E+02 0.  0.
         11    1    3    3    0    0  0.65254856072E+02  0.32602028381E+02  0.31554647778E+02  0.79478200105E+02  0.00000000000E+00 0. -1.
        -12    1    3    3    0    0  0.15377028434E+03  0.22372818680E+02 -0.38471569702E+02  0.16008093277E+03  0.00000000000E+00 0.  1.
         13    1    5    5    0    0 -0.10271966325E+01  0.89418116701E+01 -0.10411678196E+03  0.10450509755E+03  0.00000000000E+00 0. -1.
        -14    1    5    5    0    0  0.19457260344E+01  0.83288848307E+02 -0.72042730308E+02  0.11014069680E+03  0.00000000000E+00 0.  1.
          2    1    6    6  502    0 -0.14989781593E+03 -0.13697872066E+03  0.28871877584E+03  0.35297458359E+03  0.00000000000E+00 0. -1.
         -3    1    6    6    0  502 -0.70045853883E+02 -0.10226786379E+02  0.68451015427E+02  0.98471063358E+02  0.00000000000E+00 0.  1.
<mgrwt>
<rscale>  0 0.29724686E+03</rscale>
<asrwt>0</asrwt>
<pdfrwt beam="1">  1        3 0.83057225E-01 0.29724686E+03</pdfrwt>
<pdfrwt beam="2">  1       -4 0.56273632E-01 0.29724686E+03</pdfrwt>
<totfact> 0.88850167E+00</totfact>
</mgrwt>
</event>
<event>
12    3  0.2269558E-007  0.1231493E+04  0.7818608E-02  0.9085729E-01
         -2   -1    0    0    0  501 -0.00000000000E+00  0.00000000000E+00  0.88319471488E+03  0.88319471488E+03  0.00000000000E+00 0.  1.
          1   -1    0    0  501    0  0.00000000000E+00 -0.00000000000E+00 -0.17404157322E+04  0.17404157322E+04  0.00000000000E+00 0. -1.
        -24    2    1    2    0    0  0.34256955964E+03 -0.11072200241E+04 -0.27142903687E+03  0.11929598507E+04  0.78672730634E+02 0.  0.
    5000000    2    1    2    0    0 -0.34256955964E+03  0.11072200241E+04 -0.58579198046E+03  0.14306505964E+04  0.60026560758E+03 0.  0.
        -24    2    4    4    0    0 -0.49711779660E+03  0.73404440693E+03 -0.36258905046E+03  0.96116717645E+03  0.80151272760E+02 0.  0.
         24    2    4    4    0    0  0.15454823697E+03  0.37317561713E+03 -0.22320293000E+03  0.46948341991E+03  0.86313005074E+02 0.  0.
         13    1    5    5    0    0 -0.12460497339E+03  0.23582113129E+03 -0.13327102163E+03  0.29815963939E+03  0.00000000000E+00 0. -1.
        -14    1    5    5    0    0 -0.37251282321E+03  0.49822327563E+03 -0.22931802883E+03  0.66300753705E+03  0.00000000000E+00 0.  1.
         13    1    3    3    0    0  0.20572582693E+03 -0.53603639480E+03 -0.12412228191E+03  0.58742188696E+03  0.00000000000E+00 0. -1.
        -14    1    3    3    0    0  0.13684373271E+03 -0.57118362926E+03 -0.14730675496E+03  0.60553796377E+03  0.00000000000E+00 0.  1.
          2    1    6    6  502    0  0.71410589757E+02  0.27454605768E+03 -0.14433115248E+03  0.31828680729E+03  0.00000000000E+00 0. -1.
         -1    1    6    6    0  502  0.83137647209E+02  0.98629559448E+02 -0.78871777522E+02  0.15119661263E+03  0.00000000000E+00 0.  1.
<mgrwt>
<rscale>  0 0.12314930E+04</rscale>
<asrwt>0</asrwt>
<pdfrwt beam="1">  1        1 0.26775626E+00 0.12314930E+04</pdfrwt>
<pdfrwt beam="2">  1       -2 0.13587611E+00 0.12314930E+04</pdfrwt>
<totfact> 0.14832301E+00</totfact>
</mgrwt>
</event>
<event>
12    3  0.2269558E-007  0.6492283E+03  0.7818608E-02  0.9808228E-01
         -2   -1    0    0    0  501 -0.00000000000E+00  0.00000000000E+00  0.44650320500E+03  0.44650320500E+03  0.00000000000E+00 0.  1.
          1   -1    0    0  501    0  0.00000000000E+00 -0.00000000000E+00 -0.13073954751E+04  0.13073954751E+04  0.00000000000E+00 0. -1.
        -24    2    1    2    0    0 -0.33008509535E+03 -0.47190045911E+03 -0.69211129306E+03  0.90527372250E+03  0.94107689373E+02 0.  0.
    5000000    2    1    2    0    0  0.33008509535E+03  0.47190045911E+03 -0.16878097708E+03  0.84862495763E+03  0.60002590528E+03 0.  0.
        -24    2    4    4    0    0  0.40586925232E+03  0.45583507334E+03  0.34708609686E+02  0.61651704014E+03  0.79831755115E+02 0.  0.
         24    2    4    4    0    0 -0.75784156980E+02  0.16065385776E+02 -0.20348958676E+03  0.23210791750E+03  0.80403596774E+02 0.  0.
         13    1    3    3    0    0 -0.10603459177E+03 -0.14129148064E+03 -0.28251392016E+03  0.33319773745E+03  0.00000000000E+00 0. -1.
        -14    1    3    3    0    0 -0.22405050357E+03 -0.33060897847E+03 -0.40959737290E+03  0.57207598506E+03  0.00000000000E+00 0.  1.
         13    1    5    5    0    0  0.20636827757E+03  0.20469010813E+03  0.52136593239E+02  0.29530345530E+03  0.00000000000E+00 0. -1.
        -14    1    5    5    0    0  0.19950097475E+03  0.25114496520E+03 -0.17427983553E+02  0.32121358484E+03  0.00000000000E+00 0.  1.
          2    1    6    6  502    0 -0.54107734130E-01 -0.24914800610E+02 -0.36001548455E+02  0.43781979264E+02  0.00000000000E+00 0. -1.
         -1    1    6    6    0  502 -0.75730049245E+02  0.40980186386E+02 -0.16748803831E+03  0.18832593823E+03  0.00000000000E+00 0.  1.
<mgrwt>
<rscale>  0 0.64922826E+03</rscale>
<asrwt>0</asrwt>
<pdfrwt beam="1">  1        1 0.20113776E+00 0.64922826E+03</pdfrwt>
<pdfrwt beam="2">  1       -2 0.68692801E-01 0.64922826E+03</pdfrwt>
<totfact> 0.15818613E+01</totfact>
</mgrwt>
</event>
<event>
12    3  0.2269558E-007  0.4845359E+03  0.7818608E-02  0.1017896E+00
          1   -1    0    0  501    0  0.00000000000E+00  0.00000000000E+00  0.65924050996E+03  0.65924050996E+03  0.00000000000E+00 0. -1.
         -2   -1    0    0    0  501 -0.00000000000E+00 -0.00000000000E+00 -0.58976882075E+03  0.58976882075E+03  0.00000000000E+00 0.  1.
        -24    2    1    2    0    0  0.24542601762E+03 -0.18314255318E+03 -0.33696477639E+03  0.46228229438E+03  0.79903280666E+02 0.  0.
    5000000    2    1    2    0    0 -0.24542601762E+03  0.18314255318E+03  0.40643646560E+03  0.78672703633E+03  0.59997808644E+03 0.  0.
        -24    2    4    4    0    0 -0.29223206160E+03 -0.13446482590E+03  0.28551013062E+03  0.43802777484E+03  0.82897102605E+02 0.  0.
         24    2    4    4    0    0  0.46806043980E+02  0.31760737908E+03  0.12092633498E+03  0.34869926148E+03  0.62471941442E+02 0.  0.
         11    1    3    3    0    0  0.13673066457E+03 -0.14961997765E+03 -0.21965905865E+03  0.29888378075E+03  0.00000000000E+00 0. -1.
        -12    1    3    3    0    0  0.10869535304E+03 -0.33522575535E+02 -0.11730571774E+03  0.16339851364E+03  0.00000000000E+00 0.  1.
         11    1    5    5    0    0 -0.14830151396E+03 -0.33167696525E+02  0.16728350167E+03  0.22600266606E+03  0.00000000000E+00 0. -1.
        -12    1    5    5    0    0 -0.14393054763E+03 -0.10129712937E+03  0.11822662895E+03  0.21202510878E+03  0.00000000000E+00 0.  1.
          2    1    6    6  502    0  0.11934070687E+02  0.23097478021E+03  0.10484334350E+03  0.25393679886E+03  0.00000000000E+00 0. -1.
         -1    1    6    6    0  502  0.34871973293E+02  0.86632598870E+02  0.16082991480E+02  0.94762462628E+02  0.00000000000E+00 0.  1.
<mgrwt>
<rscale>  0 0.48453588E+03</rscale>
<asrwt>0</asrwt>
<pdfrwt beam="1">  1        1 0.10142162E+00 0.48453588E+03</pdfrwt>
<pdfrwt beam="2">  1       -2 0.90733665E-01 0.48453588E+03</pdfrwt>
<totfact> 0.28394392E+01</totfact>
</mgrwt>
</event>
<event>
12    3  0.2269558E-007  0.1238181E+04  0.7818608E-02  0.9080078E-01
          1   -1    0    0  501    0  0.00000000000E+00  0.00000000000E+00  0.12592308841E+04  0.12592308841E+04  0.00000000000E+00 0. -1.
         -2   -1    0    0    0  501 -0.00000000000E+00 -0.00000000000E+00 -0.13324060211E+04  0.13324060211E+04  0.00000000000E+00 0.  1.
        -24    2    1    2    0    0 -0.26426985693E+03 -0.11955709414E+04 -0.29918105682E+02  0.12274997989E+04  0.81438504427E+02 0.  0.
    5000000    2    1    2    0    0  0.26426985693E+03  0.11955709414E+04 -0.43257031328E+02  0.13641371064E+04  0.59980867027E+03 0.  0.
        -24    2    4    4    0    0  0.29039863376E+03  0.97156770556E+03  0.18476197367E+03  0.10339370278E+04  0.81324150894E+02 0.  0.
         24    2    4    4    0    0 -0.26128776834E+02  0.22400323588E+03 -0.22801900500E+03  0.33020007860E+03  0.78608285838E+02 0.  0.
         11    1    3    3    0    0 -0.12716786086E+02 -0.11174324898E+03 -0.23250152691E+02  0.11484267474E+03  0.00000000000E+00 0. -1.
        -12    1    3    3    0    0 -0.25155307084E+03 -0.10838276925E+04 -0.66679529908E+01  0.11126571242E+04  0.00000000000E+00 0.  1.
         11    1    5    5    0    0  0.34941449615E+02  0.20348963862E+03  0.59389801697E+02  0.21483967621E+03  0.00000000000E+00 0. -1.
        -12    1    5    5    0    0  0.25545718414E+03  0.76807806694E+03  0.12537217197E+03  0.81909735157E+03  0.00000000000E+00 0.  1.
          4    1    6    6  502    0 -0.44441592144E+02  0.20145343967E+03 -0.17855928729E+03  0.27284054417E+03  0.00000000000E+00 0. -1.
         -3    1    6    6    0  502  0.18312815311E+02  0.22549796211E+02 -0.49459717707E+02  0.57359534425E+02  0.00000000000E+00 0.  1.
<mgrwt>
<rscale>  0 0.12381807E+04</rscale>
<asrwt>0</asrwt>
<pdfrwt beam="1">  1        1 0.19372783E+00 0.12381807E+04</pdfrwt>
<pdfrwt beam="2">  1       -2 0.20498554E+00 0.12381807E+04</pdfrwt>
<totfact> 0.10158286E+00</totfact>
</mgrwt>
</event>
<event>
12    3  0.2269558E-007  0.7627333E+03  0.7818608E-02  0.9615583E-01
          1   -1    0    0  501    0  0.00000000000E+00  0.00000000000E+00  0.69734176559E+03  0.69734176559E+03  0.00000000000E+00 0. -1.
         -2   -1    0    0    0  501 -0.00000000000E+00 -0.00000000000E+00 -0.15550421984E+04  0.15550421984E+04  0.00000000000E+00 0.  1.
        -24    2    1    2    0    0 -0.19732501887E+03  0.61614256226E+03 -0.11508435276E+04  0.13224476201E+04  0.76537982243E+02 0.  0.
    5000000    2    1    2    0    0  0.19732501887E+03 -0.61614256226E+03  0.29314309488E+03  0.92993634383E+03  0.60023321250E+03 0.  0.
        -24    2    4    4    0    0  0.38534184172E+03 -0.53184286275E+03  0.21311309572E+03  0.69470326949E+03  0.76487093223E+02 0.  0.
         24    2    4    4    0    0 -0.18801682285E+03 -0.84299699513E+02  0.80029999162E+02  0.23523307434E+03  0.80455164437E+02 0.  0.
         11    1    3    3    0    0 -0.29108481259E+02  0.18630470748E+03 -0.29637072839E+03  0.35127248164E+03  0.00000000000E+00 0. -1.
        -12    1    3    3    0    0 -0.16821653761E+03  0.42983785478E+03 -0.85447279925E+03  0.97117513848E+03  0.00000000000E+00 0.  1.
         13    1    5    5    0    0  0.37472667791E+03 -0.52284316624E+03  0.19561728061E+03  0.67234751438E+03  0.00000000000E+00 0. -1.
        -14    1    5    5    0    0  0.10615163814E+02 -0.89996965058E+01  0.17495815107E+02  0.22355755103E+02  0.00000000000E+00 0.  1.
          4    1    6    6  502    0 -0.18296788701E+03 -0.95109708526E+02  0.65355144300E+02  0.21632013133E+03  0.00000000000E+00 0. -1.
         -3    1    6    6    0  502 -0.50489358386E+01  0.10810009013E+02  0.14674854862E+02  0.18912943007E+02  0.00000000000E+00 0.  1.
<mgrwt>
<rscale>  0 0.76273334E+03</rscale>
<asrwt>0</asrwt>
<pdfrwt beam="1">  1        1 0.10728335E+00 0.76273334E+03</pdfrwt>
<pdfrwt beam="2">  1       -2 0.23923726E+00 0.76273334E+03</pdfrwt>
<totfact> 0.18567072E+00</totfact>
</mgrwt>
</event>
<event>
12    3  0.2269558E-007  0.5855091E+03  0.7818608E-02  0.9935935E-01
          1   -1    0    0  501    0  0.00000000000E+00  0.00000000000E+00  0.67995518775E+03  0.67995518775E+03  0.00000000000E+00 0. -1.
         -2   -1    0    0    0  501 -0.00000000000E+00 -0.00000000000E+00 -0.53276948098E+03  0.53276948098E+03  0.00000000000E+00 0.  1.
        -24    2    1    2    0    0 -0.30477669750E+03  0.32796843839E+03  0.42494914917E+02  0.45693115026E+03  0.80796821511E+02 0.  0.
    5000000    2    1    2    0    0  0.30477669750E+03 -0.32796843839E+03  0.10469079185E+03  0.75579351848E+03  0.59984293674E+03 0.  0.
        -24    2    4    4    0    0  0.37682751086E+03 -0.44574923149E+03  0.66827416491E+02  0.59273115907E+03  0.78568269826E+02 0.  0.
         24    2    4    4    0    0 -0.72050813357E+02  0.11778079311E+03  0.37863375361E+02  0.16306235940E+03  0.78051668333E+02 0.  0.
         13    1    3    3    0    0 -0.14319167807E+03  0.15692826397E+03  0.60673327680E+02  0.22093345015E+03  0.00000000000E+00 0. -1.
        -14    1    3    3    0    0 -0.16158501943E+03  0.17104017441E+03 -0.18178412762E+02  0.23599770011E+03  0.00000000000E+00 0.  1.
         13    1    5    5    0    0  0.16797258627E+03 -0.22937876175E+03 -0.16353857925E+01  0.28430983200E+03  0.00000000000E+00 0. -1.
        -14    1    5    5    0    0  0.20885492458E+03 -0.21637046974E+03  0.68462802283E+02  0.30842132707E+03  0.00000000000E+00 0.  1.
          4    1    6    6  502    0 -0.32620430933E+02  0.46679016865E+02 -0.23087106461E+02  0.61449472044E+02  0.00000000000E+00 0. -1.
         -3    1    6    6    0  502 -0.39430382424E+02  0.71101776244E+02  0.60950481822E+02  0.10161288736E+03  0.00000000000E+00 0.  1.
<mgrwt>
<rscale>  0 0.58550910E+03</rscale>
<asrwt>0</asrwt>
<pdfrwt beam="1">  1        1 0.10460849E+00 0.58550910E+03</pdfrwt>
<pdfrwt beam="2">  1       -2 0.81964536E-01 0.58550910E+03</pdfrwt>
<totfact> 0.33774055E+01</totfact>
</mgrwt>
</event>
<event>
12    3  0.2269558E-007  0.4980114E+03  0.7818608E-02  0.1014299E+00
          1   -1    0    0  501    0  0.00000000000E+00  0.00000000000E+00  0.78143134274E+03  0.78143134274E+03  0.00000000000E+00 0. -1.
         -2   -1    0    0    0  501 -0.00000000000E+00 -0.00000000000E+00 -0.49823869412E+03  0.49823869412E+03  0.00000000000E+00 0.  1.
        -24    2    1    2    0    0  0.39071639394E+03  0.78642575512E+02 -0.15698498382E+03  0.43567649142E+03  0.79534677026E+02 0.  0.
    5000000    2    1    2    0    0 -0.39071639394E+03 -0.78642575512E+02  0.44017763244E+03  0.84399354544E+03  0.59977062404E+03 0.  0.
        -24    2    4    4    0    0 -0.29182493606E+03 -0.24364847524E+03  0.37850682595E+02  0.39070185377E+03  0.81785644063E+02 0.  0.
         24    2    4    4    0    0 -0.98891457880E+02  0.16500589973E+03  0.40232694984E+03  0.45329169166E+03  0.81239865667E+02 0.  0.
         11    1    5    5    0    0 -0.11780895778E+03 -0.12810143231E+03 -0.16629250822E+02  0.17482980145E+03  0.00000000000E+00 0. -1.
        -12    1    5    5    0    0 -0.17401597829E+03 -0.11554704292E+03  0.54479933417E+02  0.21587205232E+03  0.00000000000E+00 0.  1.
         13    1    3    3    0    0  0.10158953596E+03 -0.10895246222E+02 -0.23304954621E+02  0.10479628389E+03  0.00000000000E+00 0. -1.
        -14    1    3    3    0    0  0.28912685798E+03  0.89537821734E+02 -0.13368002920E+03  0.33088020753E+03  0.00000000000E+00 0.  1.
          2    1    6    6  502    0 -0.11228697261E+03  0.15561222692E+03  0.36076982185E+03  0.40862989825E+03  0.00000000000E+00 0. -1.
         -1    1    6    6    0  502  0.13395514732E+02  0.93936728021E+01  0.41557127995E+02  0.44661793413E+02  0.00000000000E+00 0.  1.
<mgrwt>
<rscale>  0 0.49801142E+03</rscale>
<asrwt>0</asrwt>
<pdfrwt beam="1">  1        1 0.12022021E+00 0.49801142E+03</pdfrwt>
<pdfrwt beam="2">  1       -2 0.76652107E-01 0.49801142E+03</pdfrwt>
<totfact> 0.32077671E+01</totfact>
</mgrwt>
</event>
<event>
12    3  0.2269558E-007  0.5417768E+03  0.7818608E-02  0.1003415E+00
          1   -1    0    0  501    0  0.00000000000E+00  0.00000000000E+00  0.13071856988E+04  0.13071856988E+04  0.00000000000E+00 0. -1.
         -2   -1    0    0    0  501 -0.00000000000E+00 -0.00000000000E+00 -0.32342809630E+03  0.32342809630E+03  0.00000000000E+00 0.  1.
        -24    2    1    2    0    0  0.21771850901E+03  0.45782896522E+03  0.34698832230E+03  0.61943375527E+03  0.79300509434E+02 0.  0.
    5000000    2    1    2    0    0 -0.21771850901E+03 -0.45782896522E+03  0.63676928021E+03  0.10111800398E+04  0.60000103848E+03 0.  0.
        -24    2    4    4    0    0 -0.12067241508E+03 -0.22871954670E+02  0.52478104459E+03  0.54490903305E+03  0.80285437471E+02 0.  0.
         24    2    4    4    0    0 -0.97046093938E+02 -0.43495701056E+03  0.11198823562E+03  0.46627100679E+03  0.79131166243E+02 0.  0.
         11    1    5    5    0    0 -0.18813634301E+02  0.58807052983E+01  0.24477815637E+03  0.24557052219E+03  0.00000000000E+00 0. -1.
        -12    1    5    5    0    0 -0.10185878077E+03 -0.28752659968E+02  0.28000288821E+03  0.29933851086E+03  0.00000000000E+00 0.  1.
         13    1    3    3    0    0  0.25921486815E+02  0.12342835929E+03  0.10650186236E+03  0.16507310514E+03  0.00000000000E+00 0. -1.
        -14    1    3    3    0    0  0.19179702220E+03  0.33440060594E+03  0.24048645994E+03  0.45436065013E+03  0.00000000000E+00 0.  1.
          2    1    6    6  502    0 -0.20594413096E+02 -0.14758541385E+03  0.74342003477E+02  0.16653023063E+03  0.00000000000E+00 0. -1.
         -1    1    6    6    0  502 -0.76451680843E+02 -0.28737159671E+03  0.37646232145E+02  0.29974077616E+03  0.00000000000E+00 0.  1.
<mgrwt>
<rscale>  0 0.54177676E+03</rscale>
<asrwt>0</asrwt>
<pdfrwt beam="1">  1        1 0.20110549E+00 0.54177676E+03</pdfrwt>
<pdfrwt beam="2">  1       -2 0.49758170E-01 0.54177676E+03</pdfrwt>
<totfact> 0.31578118E+01</totfact>
</mgrwt>
</event>
<event>
12    3  0.2269558E-007  0.4899061E+03  0.7818608E-02  0.1016448E+00
          1   -1    0    0  501    0  0.00000000000E+00  0.00000000000E+00  0.12859212159E+04  0.12859212159E+04  0.00000000000E+00 0. -1.
         -2   -1    0    0    0  501 -0.00000000000E+00 -0.00000000000E+00 -0.21015271565E+03  0.21015271565E+03  0.00000000000E+00 0.  1.
        -24    2    1    2    0    0  0.33134060699E+03  0.60132588024E+02  0.29264915925E+03  0.45367866930E+03  0.82330301754E+02 0.  0.
    5000000    2    1    2    0    0 -0.33134060699E+03 -0.60132588024E+02  0.78311934096E+03  0.10423952622E+04  0.59992454068E+03 0.  0.
        -24    2    4    4    0    0  0.13840616181E+03  0.47021160243E+02  0.35540253799E+03  0.39284312264E+03  0.81532201369E+02 0.  0.
         24    2    4    4    0    0 -0.46974676880E+03 -0.10715374827E+03  0.42771680297E+03  0.64955213957E+03  0.82658126674E+02 0.  0.
         11    1    3    3    0    0  0.13611607211E+03  0.38950962314E+02  0.17370547992E+03  0.22409452538E+03  0.00000000000E+00 0. -1.
        -12    1    3    3    0    0  0.19522453488E+03  0.21181625709E+02  0.11894367933E+03  0.22958414391E+03  0.00000000000E+00 0.  1.
         11    1    5    5    0    0  0.11777969969E+03  0.19109135321E+02  0.32669386431E+03  0.34780180806E+03  0.00000000000E+00 0. -1.
        -12    1    5    5    0    0  0.20626462124E+02  0.27912024922E+02  0.28708673679E+02  0.45041314583E+02  0.00000000000E+00 0.  1.
          4    1    6    6  502    0 -0.31697463794E+03 -0.10858411713E+03  0.31285175499E+03  0.45840991720E+03  0.00000000000E+00 0. -1.
         -3    1    6    6    0  502 -0.15277213086E+03  0.14303688590E+01  0.11486504798E+03  0.19114222236E+03  0.00000000000E+00 0.  1.
<mgrwt>
<rscale>  0 0.48990608E+03</rscale>
<asrwt>0</asrwt>
<pdfrwt beam="1">  1        1 0.19783403E+00 0.48990608E+03</pdfrwt>
<pdfrwt beam="2">  1       -2 0.32331188E-01 0.48990608E+03</pdfrwt>
<totfact> 0.76027393E+01</totfact>
</mgrwt>
</event>
<event>
12    3  0.5223911E-007  0.6516205E+03  0.7818608E-02  0.9803743E-01
         -2   -1    0    0    0  501 -0.00000000000E+00  0.00000000000E+00  0.65419410302E+03  0.65419410302E+03  0.00000000000E+00 0.  1.
          1   -1    0    0  501    0  0.00000000000E+00 -0.00000000000E+00 -0.10563836731E+04  0.10563836731E+04  0.00000000000E+00 0. -1.
        -24    2    1    2    0    0  0.26022845923E+03  0.48049855873E+03  0.30782649911E+03  0.63233368925E+03  0.80566898120E+02 0.  0.
    5000000    2    1    2    0    0 -0.26022845923E+03 -0.48049855873E+03 -0.71001606919E+03  0.10782440869E+04  0.59990814001E+03 0.  0.
        -24    2    4    4    0    0  0.16847782717E+02  0.10075098995E+03 -0.23348114750E+03  0.27320299967E+03  0.98447057012E+02 0.  0.
         24    2    4    4    0    0 -0.27707624195E+03 -0.58124954868E+03 -0.47653492170E+03  0.80504108721E+03  0.79895799651E+02 0.  0.
         11    1    5    5    0    0 -0.60810838079E+01  0.53835569125E+02 -0.27600402420E+02  0.60803209595E+02  0.00000000000E+00 0. -1.
        -12    1    5    5    0    0  0.22928866525E+02  0.46915420830E+02 -0.20588074508E+03  0.21239979008E+03  0.00000000000E+00 0.  1.
         13    1    3    3    0    0  0.16527975585E+03  0.22079380246E+03  0.15690205674E+03  0.31730987427E+03  0.00000000000E+00 0. -1.
        -14    1    3    3    0    0  0.94948703388E+02  0.25970475627E+03  0.15092444236E+03  0.31502381498E+03  0.00000000000E+00 0.  1.
          4    1    6    6  502    0 -0.80400187221E+02 -0.14036907935E+03 -0.80854525981E+02  0.18084557754E+03  0.00000000000E+00 0. -1.
         -3    1    6    6    0  502 -0.19667605473E+03 -0.44088046933E+03 -0.39568039571E+03  0.62419550967E+03  0.00000000000E+00 0.  1.
<mgrwt>
<rscale>  0 0.65162049E+03</rscale>
<asrwt>0</asrwt>
<pdfrwt beam="1">  1        1 0.16252056E+00 0.65162049E+03</pdfrwt>
<pdfrwt beam="2">  1       -2 0.10064525E+00 0.65162049E+03</pdfrwt>
<totfact> 0.10132082E+01</totfact>
</mgrwt>
</event>
<event>
12    3  0.2269558E-007  0.4188087E+03  0.7818608E-02  0.1037455E+00
          1   -1    0    0  501    0  0.00000000000E+00  0.00000000000E+00  0.15166736120E+04  0.15166736120E+04  0.00000000000E+00 0. -1.
         -2   -1    0    0    0  501 -0.00000000000E+00 -0.00000000000E+00 -0.28722380347E+03  0.28722380347E+03  0.00000000000E+00 0.  1.
        -24    2    1    2    0    0  0.77310947171E+02  0.21990417937E+03 -0.14497760038E+03  0.28618243876E+03  0.80913861506E+02 0.  0.
    5000000    2    1    2    0    0 -0.77310947171E+02 -0.21990417937E+03  0.13744274089E+04  0.15177149767E+04  0.60006101147E+03 0.  0.
        -24    2    4    4    0    0  0.24261748236E+01  0.17690636917E+03  0.22832160744E+03  0.29959081865E+03  0.79511964011E+02 0.  0.
         24    2    4    4    0    0 -0.79737121994E+02 -0.39681054854E+03  0.11461058015E+04  0.12181241580E+04  0.80320210373E+02 0.  0.
         11    1    5    5    0    0  0.35099736071E+02  0.52322612153E+02  0.96874582722E+02  0.11556094493E+03  0.00000000000E+00 0. -1.
        -12    1    5    5    0    0 -0.32673561247E+02  0.12458375702E+03  0.13144702472E+03  0.18402987373E+03  0.00000000000E+00 0.  1.
         13    1    3    3    0    0  0.85253666695E+02  0.16726504394E+03 -0.13686861288E+03  0.23233338073E+03  0.00000000000E+00 0. -1.
        -14    1    3    3    0    0 -0.79427195247E+01  0.52639135433E+02 -0.81089875041E+01  0.53849058032E+02  0.00000000000E+00 0.  1.
          4    1    6    6  502    0 -0.23048305595E+02 -0.95233361134E+02  0.39005850325E+03  0.40217689319E+03  0.00000000000E+00 0. -1.
         -3    1    6    6    0  502 -0.56688816400E+02 -0.30157718741E+03  0.75604729822E+03  0.81594726485E+03  0.00000000000E+00 0.  1.
<mgrwt>
<rscale>  0 0.41880873E+03</rscale>
<asrwt>0</asrwt>
<pdfrwt beam="1">  1        1 0.23333440E+00 0.41880873E+03</pdfrwt>
<pdfrwt beam="2">  1       -2 0.44188279E-01 0.41880873E+03</pdfrwt>
<totfact> 0.29396902E+01</totfact>
</mgrwt>
</event>
<event>
12    3  0.2269558E-007  0.6007501E+03  0.7818608E-02  0.9903851E-01
         -2   -1    0    0    0  501 -0.00000000000E+00  0.00000000000E+00  0.18571419793E+04  0.18571419793E+04  0.00000000000E+00 0.  1.
          1   -1    0    0  501    0  0.00000000000E+00 -0.00000000000E+00 -0.82117572625E+03  0.82117572625E+03  0.00000000000E+00 0. -1.
        -24    2    1    2    0    0 -0.46052633800E+03 -0.10325263793E+02  0.16429572785E+04  0.17081731523E+04  0.79723145884E+02 0.  0.
    5000000    2    1    2    0    0  0.46052633800E+03  0.10325263793E+02 -0.60699102551E+03  0.97014455324E+03  0.60045918269E+03 0.  0.
        -24    2    4    4    0    0  0.17430257554E+03 -0.27468954373E+03 -0.32730248104E+03  0.47222790707E+03  0.10018257756E+03 0.  0.
         24    2    4    4    0    0  0.28622376246E+03  0.28501480752E+03 -0.27968854447E+03  0.49791664617E+03  0.80856798912E+02 0.  0.
         11    1    5    5    0    0  0.11599006789E+03 -0.23272024346E+03 -0.29562556483E+03  0.39370913394E+03  0.00000000000E+00 0. -1.
        -12    1    5    5    0    0  0.58312507650E+02 -0.41969300264E+02 -0.31676916209E+02  0.78518773128E+02  0.00000000000E+00 0.  1.
         11    1    3    3    0    0 -0.21204175868E+03  0.22471682814E+02  0.65049054662E+03  0.68454702920E+03  0.00000000000E+00 0. -1.
        -12    1    3    3    0    0 -0.24848457932E+03 -0.32796946607E+02  0.99246673190E+03  0.10236261231E+04  0.00000000000E+00 0.  1.
          4    1    6    6  502    0  0.98525151917E+02  0.12465074093E+03 -0.15238876995E+03  0.22015301493E+03  0.00000000000E+00 0. -1.
         -3    1    6    6    0  502  0.18769861054E+03  0.16036406659E+03 -0.12729977452E+03  0.27776363125E+03  0.00000000000E+00 0.  1.
<mgrwt>
<rscale>  0 0.60075010E+03</rscale>
<asrwt>0</asrwt>
<pdfrwt beam="1">  1        1 0.12633473E+00 0.60075010E+03</pdfrwt>
<pdfrwt beam="2">  1       -2 0.28571415E+00 0.60075010E+03</pdfrwt>
<totfact> 0.78038382E-01</totfact>
</mgrwt>
</event>
<event>
12    3  0.2269558E-007  0.1096067E+04  0.7818608E-02  0.9209034E-01
          1   -1    0    0  501    0  0.00000000000E+00  0.00000000000E+00  0.53696389604E+03  0.53696389604E+03  0.00000000000E+00 0. -1.
         -2   -1    0    0    0  501 -0.00000000000E+00 -0.00000000000E+00 -0.23660391803E+04  0.23660391803E+04  0.00000000000E+00 0.  1.
        -24    2    1    2    0    0 -0.73361262840E+03 -0.74178687370E+03 -0.94213786119E+03  0.14079531712E+04  0.79203081653E+02 0.  0.
    5000000    2    1    2    0    0  0.73361262840E+03  0.74178687370E+03 -0.88693742303E+03  0.14950499051E+04  0.60006747283E+03 0.  0.
        -24    2    4    4    0    0  0.58536467635E+03  0.26464610181E+03 -0.28042535006E+03  0.70535532087E+03  0.78729843089E+02 0.  0.
         24    2    4    4    0    0  0.14824795205E+03  0.47714077189E+03 -0.60651207297E+03  0.78969458428E+03  0.78229599841E+02 0.  0.
         11    1    5    5    0    0  0.22974859259E+03  0.89197060363E+02 -0.14701277502E+03  0.28697262481E+03  0.00000000000E+00 0. -1.
        -12    1    5    5    0    0  0.35561608377E+03  0.17544904145E+03 -0.13341257504E+03  0.41838269605E+03  0.00000000000E+00 0.  1.
         13    1    3    3    0    0 -0.39230540487E+03 -0.41331746574E+03 -0.46357699544E+03  0.73460090449E+03  0.00000000000E+00 0. -1.
        -14    1    3    3    0    0 -0.34130722353E+03 -0.32846940796E+03 -0.47856086575E+03  0.67335226666E+03  0.00000000000E+00 0.  1.
          2    1    6    6  502    0  0.15771173917E+03  0.45229152714E+03 -0.57034596323E+03  0.74480543497E+03  0.00000000000E+00 0. -1.
         -1    1    6    6    0  502 -0.94637871230E+01  0.24849244756E+02 -0.36166109742E+02  0.44889149307E+02  0.00000000000E+00 0.  1.
<mgrwt>
<rscale>  0 0.10960666E+04</rscale>
<asrwt>0</asrwt>
<pdfrwt beam="1">  1        1 0.82609830E-01 0.10960666E+04</pdfrwt>
<pdfrwt beam="2">  1       -2 0.36400603E+00 0.10960666E+04</pdfrwt>
<totfact> 0.44819497E-01</totfact>
</mgrwt>
</event>
<event>
12    3  0.2269558E-007  0.1086573E+04  0.7818608E-02  0.9218378E-01
          1   -1    0    0  501    0  0.00000000000E+00  0.00000000000E+00  0.13377982939E+04  0.13377982939E+04  0.00000000000E+00 0. -1.
         -2   -1    0    0    0  501 -0.00000000000E+00 -0.00000000000E+00 -0.10369583177E+04  0.10369583177E+04  0.00000000000E+00 0.  1.
        -24    2    1    2    0    0  0.12117364072E+03 -0.10373451559E+04 -0.20689778614E+03  0.10676546621E+04  0.79446585825E+02 0.  0.
    5000000    2    1    2    0    0 -0.12117364072E+03  0.10373451559E+04  0.50773776236E+03  0.13071019495E+04  0.59995820481E+03 0.  0.
        -24    2    4    4    0    0 -0.17442660243E+03  0.16306647540E+03 -0.62506924906E+02  0.25884322862E+03  0.77957592998E+02 0.  0.
         24    2    4    4    0    0  0.53252961715E+02  0.87427868048E+03  0.57024468726E+03  0.10482587209E+04  0.80425453307E+02 0.  0.
         11    1    3    3    0    0  0.11959345160E+03 -0.84243017796E+03 -0.14501356322E+03  0.86314548711E+03  0.00000000000E+00 0. -1.
        -12    1    3    3    0    0  0.15801891188E+01 -0.19491497791E+03 -0.61884222919E+02  0.20450917500E+03  0.00000000000E+00 0.  1.
         13    1    5    5    0    0 -0.11863082226E+02  0.47208758408E+02 -0.28311685199E+02  0.56311198789E+02  0.00000000000E+00 0. -1.
        -14    1    5    5    0    0 -0.16256352021E+03  0.11585771699E+03 -0.34195239707E+02  0.20253202983E+03  0.00000000000E+00 0.  1.
          2    1    6    6  502    0  0.70528526533E+02  0.58175538064E+03  0.36279219473E+03  0.68922548742E+03  0.00000000000E+00 0. -1.
         -1    1    6    6    0  502 -0.17275564818E+02  0.29252329984E+03  0.20745249254E+03  0.35903323349E+03  0.00000000000E+00 0.  1.
<mgrwt>
<rscale>  0 0.10865735E+04</rscale>
<asrwt>0</asrwt>
<pdfrwt beam="1">  1        1 0.20581512E+00 0.10865735E+04</pdfrwt>
<pdfrwt beam="2">  1       -2 0.15953205E+00 0.10865735E+04</pdfrwt>
<totfact> 0.18685657E+00</totfact>
</mgrwt>
</event>
<event>
12    3  0.2269558E-007  0.5798939E+03  0.7818608E-02  0.9948021E-01
          1   -1    0    0  501    0  0.00000000000E+00  0.00000000000E+00  0.33450546452E+03  0.33450546452E+03  0.00000000000E+00 0. -1.
         -2   -1    0    0    0  501 -0.00000000000E+00 -0.00000000000E+00 -0.26870306706E+04  0.26870306706E+04  0.00000000000E+00 0.  1.
        -24    2    1    2    0    0  0.10296943693E+03  0.51106260450E+03  0.11141382235E+02  0.52778855147E+03  0.81540995822E+02 0.  0.
    5000000    2    1    2    0    0 -0.10296943693E+03 -0.51106260450E+03 -0.23636665883E+04  0.24937475837E+04  0.60005798021E+03 0.  0.
        -24    2    4    4    0    0  0.48350149605E+02 -0.46261093921E+03 -0.22125527170E+04  0.22627240465E+04  0.90465280336E+02 0.  0.
         24    2    4    4    0    0 -0.15131958653E+03 -0.48451665296E+02 -0.15111387130E+03  0.23102353716E+03  0.72741263989E+02 0.  0.
         11    1    5    5    0    0 -0.17382865557E+02 -0.21427981681E+03 -0.11117569563E+04  0.11323522128E+04  0.00000000000E+00 0. -1.
        -12    1    5    5    0    0  0.65733015162E+02 -0.24833112239E+03 -0.11007957607E+04  0.11303718337E+04  0.00000000000E+00 0.  1.
         13    1    3    3    0    0  0.10462432590E+03  0.47934626682E+03 -0.80192383859E+01  0.49069685272E+03  0.00000000000E+00 0. -1.
        -14    1    3    3    0    0 -0.16548889669E+01  0.31716337678E+02  0.19160620621E+02  0.37091698744E+02  0.00000000000E+00 0.  1.
          2    1    6    6  502    0 -0.80413908313E+02 -0.13873037684E+01 -0.36634698382E+02  0.88376594115E+02  0.00000000000E+00 0. -1.
         -1    1    6    6    0  502 -0.70905678222E+02 -0.47064361528E+02 -0.11447917291E+03  0.14264694305E+03  0.00000000000E+00 0.  1.
<mgrwt>
<rscale>  0 0.57989393E+03</rscale>
<asrwt>0</asrwt>
<pdfrwt beam="1">  1        1 0.51462380E-01 0.57989393E+03</pdfrwt>
<pdfrwt beam="2">  1       -2 0.41338933E+00 0.57989393E+03</pdfrwt>
<totfact> 0.44683241E-01</totfact>
</mgrwt>
</event>
<event>
12    3  0.2269558E-007  0.5832250E+03  0.7818608E-02  0.9940833E-01
         -2   -1    0    0    0  501 -0.00000000000E+00  0.00000000000E+00  0.26069266375E+03  0.26069266375E+03  0.00000000000E+00 0.  1.
          1   -1    0    0  501    0  0.00000000000E+00 -0.00000000000E+00 -0.18869360450E+04  0.18869360450E+04  0.00000000000E+00 0. -1.
        -24    2    1    2    0    0 -0.27244151329E+03  0.33691541575E+03 -0.12320527885E+04  0.13086020540E+04  0.82151608299E+02 0.  0.
    5000000    2    1    2    0    0  0.27244151329E+03 -0.33691541575E+03 -0.39419059278E+03  0.83902665471E+03  0.60070219604E+03 0.  0.
        -24    2    4    4    0    0  0.41132267482E+03 -0.38939426871E+03 -0.31834160586E+03  0.65450651746E+03  0.78887033438E+02 0.  0.
         24    2    4    4    0    0 -0.13888116153E+03  0.52478852960E+02 -0.75848986927E+02  0.18452013725E+03  0.79073416490E+02 0.  0.
         11    1    5    5    0    0  0.33208946247E+03 -0.27232544688E+03 -0.25625984075E+03  0.50011365317E+03  0.00000000000E+00 0. -1.
        -12    1    5    5    0    0  0.79233212350E+02 -0.11706882183E+03 -0.62081765107E+02  0.15439286429E+03  0.00000000000E+00 0.  1.
         13    1    3    3    0    0 -0.15215550962E+03  0.12482471173E+03 -0.52365159468E+03  0.55941353253E+03  0.00000000000E+00 0. -1.
        -14    1    3    3    0    0 -0.12028600367E+03  0.21209070403E+03 -0.70840119378E+03  0.74918852151E+03  0.00000000000E+00 0.  1.
          4    1    6    6  502    0 -0.87736334824E+02  0.55391826770E+02 -0.82900100252E+02  0.13280943319E+03  0.00000000000E+00 0. -1.
         -3    1    6    6    0  502 -0.51144826709E+02 -0.29129738095E+01  0.70511133251E+01  0.51710704062E+02  0.00000000000E+00 0.  1.
<mgrwt>
<rscale>  0 0.58322497E+03</rscale>
<asrwt>0</asrwt>
<pdfrwt beam="1">  1        1 0.29029784E+00 0.58322497E+03</pdfrwt>
<pdfrwt beam="2">  1       -2 0.40106565E-01 0.58322497E+03</pdfrwt>
<totfact> 0.19519979E+01</totfact>
</mgrwt>
</event>
<event>
12    3  0.2269558E-007  0.7378676E+03  0.7818608E-02  0.9654579E-01
         -2   -1    0    0    0  501 -0.00000000000E+00  0.00000000000E+00  0.35523174245E+03  0.35523174245E+03  0.00000000000E+00 0.  1.
          1   -1    0    0  501    0  0.00000000000E+00 -0.00000000000E+00 -0.16589708642E+04  0.16589708642E+04  0.00000000000E+00 0. -1.
        -24    2    1    2    0    0  0.64023482585E+03  0.92242422701E+02 -0.61588915641E+03  0.89556773903E+03  0.65672105386E+02 0.  0.
    5000000    2    1    2    0    0 -0.64023482585E+03 -0.92242422701E+02 -0.68784996537E+03  0.11186348677E+04  0.59983088908E+03 0.  0.
        -24    2    4    4    0    0  0.24576411141E+02  0.10674983682E+03 -0.27677219441E+03  0.30818991664E+03  0.79866447748E+02 0.  0.
         24    2    4    4    0    0 -0.66481123699E+03 -0.19899225952E+03 -0.41107777096E+03  0.81044495101E+03  0.79146602344E+02 0.  0.
         11    1    3    3    0    0  0.84259799599E+02  0.13133550177E+02 -0.11426112187E+03  0.14257562183E+03  0.00000000000E+00 0. -1.
        -12    1    3    3    0    0  0.55597502625E+03  0.79108872524E+02 -0.50162803454E+03  0.75299211720E+03  0.00000000000E+00 0.  1.
         13    1    5    5    0    0  0.42195221072E+02  0.10783625896E+03 -0.21830006875E+03  0.24711134220E+03  0.00000000000E+00 0. -1.
        -14    1    5    5    0    0 -0.17618809931E+02 -0.10864221432E+01 -0.58472125662E+02  0.61078574442E+02  0.00000000000E+00 0.  1.
          4    1    6    6  502    0 -0.24378625991E+03 -0.50288982263E+02 -0.11154066965E+03  0.27276737936E+03  0.00000000000E+00 0. -1.
         -3    1    6    6    0  502 -0.42102497708E+03 -0.14870327726E+03 -0.29953710131E+03  0.53767757165E+03  0.00000000000E+00 0.  1.
<mgrwt>
<rscale>  0 0.73786758E+03</rscale>
<asrwt>0</asrwt>
<pdfrwt beam="1">  1        1 0.25522629E+00 0.73786758E+03</pdfrwt>
<pdfrwt beam="2">  1       -2 0.54651037E-01 0.73786758E+03</pdfrwt>
<totfact> 0.14560935E+01</totfact>
</mgrwt>
</event>
<event>
12    3  0.2269558E-007  0.5144656E+03  0.7818608E-02  0.1010071E+00
         -2   -1    0    0    0  501 -0.00000000000E+00  0.00000000000E+00  0.16376918738E+04  0.16376918738E+04  0.00000000000E+00 0.  1.
          1   -1    0    0  501    0  0.00000000000E+00 -0.00000000000E+00 -0.26464464280E+03  0.26464464280E+03  0.00000000000E+00 0. -1.
        -24    2    1    2    0    0 -0.31057737172E+03  0.32593113991E+03  0.17680825821E+03  0.49036142465E+03  0.80645860607E+02 0.  0.
    5000000    2    1    2    0    0  0.31057737172E+03 -0.32593113991E+03  0.11962389728E+04  0.14119750920E+04  0.59999714042E+03 0.  0.
        -24    2    4    4    0    0  0.58923891299E+02 -0.30989552923E+03  0.10701048413E+04  0.11183091612E+04  0.77354668276E+02 0.  0.
         24    2    4    4    0    0  0.25165348042E+03 -0.16035610674E+02  0.12613413152E+03  0.29366593075E+03  0.82117262108E+02 0.  0.
         13    1    3    3    0    0 -0.76153561192E+02  0.11315348643E+03  0.22748117500E+02  0.13827708857E+03  0.00000000000E+00 0. -1.
        -14    1    3    3    0    0 -0.23442381053E+03  0.21277765348E+03  0.15406014071E+03  0.35208433609E+03  0.00000000000E+00 0.  1.
         13    1    5    5    0    0  0.22494274490E+02 -0.24032888424E+03  0.71568650398E+03  0.75529539715E+03  0.00000000000E+00 0. -1.
        -14    1    5    5    0    0  0.36429616809E+02 -0.69566644998E+02  0.35441833733E+03  0.36301376408E+03  0.00000000000E+00 0.  1.
          2    1    6    6  502    0  0.78662606422E+02  0.15565554639E+02  0.54273975632E+01  0.80371318172E+02  0.00000000000E+00 0. -1.
         -1    1    6    6    0  502  0.17299087400E+03 -0.31601165312E+02  0.12070673395E+03  0.21329461258E+03  0.00000000000E+00 0.  1.
<mgrwt>
<rscale>  0 0.51446557E+03</rscale>
<asrwt>0</asrwt>
<pdfrwt beam="1">  1        1 0.40714561E-01 0.51446557E+03</pdfrwt>
<pdfrwt beam="2">  1       -2 0.25195259E+00 0.51446557E+03</pdfrwt>
<totfact> 0.60099810E+00</totfact>
</mgrwt>
</event>
<event>
12    3  0.2269558E-007  0.4128104E+03  0.7818608E-02  0.1039432E+00
          1   -1    0    0  501    0  0.00000000000E+00  0.00000000000E+00  0.52832320636E+03  0.52832320636E+03  0.00000000000E+00 0. -1.
         -2   -1    0    0    0  501 -0.00000000000E+00 -0.00000000000E+00 -0.45584807942E+03  0.45584807942E+03  0.00000000000E+00 0.  1.
        -24    2    1    2    0    0  0.20700450025E+03  0.35032426071E+02  0.23662873341E+03  0.32760960408E+03  0.85186625754E+02 0.  0.
    5000000    2    1    2    0    0 -0.20700450025E+03 -0.35032426071E+02 -0.16415360646E+03  0.65656168171E+03  0.60004058310E+03 0.  0.
        -24    2    4    4    0    0  0.17379741310E+03 -0.13087975880E+03 -0.88486253214E+02  0.24818980845E+03  0.80207929438E+02 0.  0.
         24    2    4    4    0    0 -0.38080191336E+03  0.95847332727E+02 -0.75667353245E+02  0.40837187326E+03  0.82735905834E+02 0.  0.
         11    1    3    3    0    0  0.11471208111E+03  0.34501243875E+02  0.74540575722E+02  0.14108683430E+03  0.00000000000E+00 0. -1.
        -12    1    3    3    0    0  0.92292419140E+02  0.53118219679E+00  0.16208815768E+03  0.18652276978E+03  0.00000000000E+00 0.  1.
         11    1    5    5    0    0  0.13598289110E+02 -0.13531757094E+02  0.14916275545E+02  0.24300559518E+02  0.00000000000E+00 0. -1.
        -12    1    5    5    0    0  0.16019912399E+03 -0.11734800170E+03 -0.10340252876E+03  0.22388924893E+03  0.00000000000E+00 0.  1.
          4    1    6    6  502    0 -0.32882586125E+03  0.64547192172E+02 -0.87988842657E+02  0.34646042123E+03  0.00000000000E+00 0. -1.
         -3    1    6    6    0  502 -0.51976052105E+02  0.31300140555E+02  0.12321489412E+02  0.61911452030E+02  0.00000000000E+00 0.  1.
<mgrwt>
<rscale>  0 0.41281043E+03</rscale>
<asrwt>0</asrwt>
<pdfrwt beam="1">  1        1 0.81280493E-01 0.41281043E+03</pdfrwt>
<pdfrwt beam="2">  1       -2 0.70130474E-01 0.41281043E+03</pdfrwt>
<totfact> 0.69541165E+01</totfact>
</mgrwt>
</event>
<event>
12    3  0.2269558E-007  0.9174894E+03  0.7818608E-02  0.9403979E-01
          1   -1    0    0  501    0  0.00000000000E+00  0.00000000000E+00  0.14507708031E+04  0.14507708031E+04  0.00000000000E+00 0. -1.
         -2   -1    0    0    0  501 -0.00000000000E+00 -0.00000000000E+00 -0.79914112605E+03  0.79914112605E+03  0.00000000000E+00 0.  1.
        -24    2    1    2    0    0  0.75546995773E+03 -0.46888363049E+03  0.75941807092E+03  0.11719216412E+04  0.78088480178E+02 0.  0.
    5000000    2    1    2    0    0 -0.75546995773E+03  0.46888363049E+03 -0.10778839385E+03  0.10779902880E+04  0.59988166092E+03 0.  0.
        -24    2    4    4    0    0 -0.14248810004E+03 -0.16777721964E+02 -0.23173808709E+03  0.28204993794E+03  0.72562220736E+02 0.  0.
         24    2    4    4    0    0 -0.61298185769E+03  0.48566135245E+03  0.12394969324E+03  0.79594035002E+03  0.80893802044E+02 0.  0.
         11    1    5    5    0    0 -0.76140577721E+02 -0.45217484803E+02 -0.13067716951E+03  0.15785604562E+03  0.00000000000E+00 0. -1.
        -12    1    5    5    0    0 -0.66347522322E+02  0.28439762839E+02 -0.10106091758E+03  0.12419389232E+03  0.00000000000E+00 0.  1.
         13    1    3    3    0    0  0.71414647320E+03 -0.42529168504E+03  0.69125577087E+03  0.10810701843E+04  0.00000000000E+00 0. -1.
        -14    1    3    3    0    0  0.41323484531E+02 -0.43591945454E+02  0.68162300049E+02  0.90851456951E+02  0.00000000000E+00 0.  1.
          4    1    6    6  502    0 -0.28631098316E+03  0.20271843573E+03  0.19641053970E+02  0.35136094585E+03  0.00000000000E+00 0. -1.
         -3    1    6    6    0  502 -0.32667087453E+03  0.28294291672E+03  0.10430863927E+03  0.44457940417E+03  0.00000000000E+00 0.  1.
<mgrwt>
<rscale>  0 0.91748938E+03</rscale>
<asrwt>0</asrwt>
<pdfrwt beam="1">  1        1 0.22319551E+00 0.91748938E+03</pdfrwt>
<pdfrwt beam="2">  1       -2 0.12294479E+00 0.91748938E+03</pdfrwt>
<totfact> 0.31315063E+00</totfact>
</mgrwt>
</event>
<event>
12    3  0.2269558E-007  0.8227161E+03  0.7818608E-02  0.9527706E-01
         -2   -1    0    0    0  501 -0.00000000000E+00  0.00000000000E+00  0.11132227455E+04  0.11132227455E+04  0.00000000000E+00 0.  1.
          1   -1    0    0  501    0  0.00000000000E+00 -0.00000000000E+00 -0.72907504417E+03  0.72907504417E+03  0.00000000000E+00 0. -1.
        -24    2    1    2    0    0  0.30994750145E+03 -0.72952820504E+03  0.27240682135E+03  0.84189892454E+03  0.79432154742E+02 0.  0.
    5000000    2    1    2    0    0 -0.30994750145E+03  0.72952820504E+03  0.11174087997E+03  0.10003988651E+04  0.60002750725E+03 0.  0.
        -24    2    4    4    0    0 -0.21823920926E+03  0.69846059271E+03 -0.11111675625E+03  0.74442260148E+03  0.79639965154E+02 0.  0.
         24    2    4    4    0    0 -0.91708292195E+02  0.31067612334E+02  0.22285763621E+03  0.25597626364E+03  0.80515303717E+02 0.  0.
         13    1    5    5    0    0 -0.58561624802E+02  0.97744888007E+02 -0.27803173116E+02  0.11728829211E+03  0.00000000000E+00 0. -1.
        -14    1    5    5    0    0 -0.15967758446E+03  0.60071570470E+03 -0.83313583131E+02  0.62713430937E+03  0.00000000000E+00 0.  1.
         13    1    3    3    0    0  0.41721483420E+02 -0.18444975221E+03  0.65359715073E+02  0.20008569570E+03  0.00000000000E+00 0. -1.
        -14    1    3    3    0    0  0.26822601803E+03 -0.54507845284E+03  0.20704710628E+03  0.64181322884E+03  0.00000000000E+00 0.  1.
          4    1    6    6  502    0 -0.69344799375E+02  0.48772346443E+02  0.20619262808E+03  0.22294134397E+03  0.00000000000E+00 0. -1.
         -3    1    6    6    0  502 -0.22363492820E+02 -0.17704734109E+02  0.16665008133E+02  0.33034919662E+02  0.00000000000E+00 0.  1.
<mgrwt>
<rscale>  0 0.82271607E+03</rscale>
<asrwt>0</asrwt>
<pdfrwt beam="1">  1        1 0.11216539E+00 0.82271607E+03</pdfrwt>
<pdfrwt beam="2">  1       -2 0.17126504E+00 0.82271607E+03</pdfrwt>
<totfact> 0.47513708E+00</totfact>
</mgrwt>
</event>
<event>
12    3  0.2269558E-007  0.2103521E+04  0.7818608E-02  0.8559694E-01
         -2   -1    0    0    0  501 -0.00000000000E+00  0.00000000000E+00  0.24740375103E+04  0.24740375103E+04  0.00000000000E+00 0.  1.
          1   -1    0    0  501    0  0.00000000000E+00 -0.00000000000E+00 -0.20815848729E+04  0.20815848729E+04  0.00000000000E+00 0. -1.
        -24    2    1    2    0    0  0.16326866481E+04 -0.12805981994E+04 -0.62427257089E+03  0.21682926914E+04  0.78609879575E+02 0.  0.
    5000000    2    1    2    0    0 -0.16326866481E+04  0.12805981994E+04  0.10167252083E+04  0.23873296919E+04  0.60001289096E+03 0.  0.
        -24    2    4    4    0    0 -0.12847600037E+04  0.12232275291E+04  0.70711749709E+03  0.19112903999E+04  0.78243103687E+02 0.  0.
         24    2    4    4    0    0 -0.34792664447E+03  0.57370670357E+02  0.30960771118E+03  0.47603929197E+03  0.80075769920E+02 0.  0.
         11    1    3    3    0    0  0.45238145092E+03 -0.31436648458E+03 -0.18009317865E+03  0.57957641149E+03  0.00000000000E+00 0. -1.
        -12    1    3    3    0    0  0.11803051972E+04 -0.96623171486E+03 -0.44417939224E+03  0.15887162799E+04  0.00000000000E+00 0.  1.
         11    1    5    5    0    0 -0.27020755697E+03  0.23767290265E+03  0.17397797959E+03  0.39971098293E+03  0.00000000000E+00 0. -1.
        -12    1    5    5    0    0 -0.10145524467E+04  0.98555462644E+03  0.53313951750E+03  0.15115794170E+04  0.00000000000E+00 0.  1.
          4    1    6    6  502    0 -0.20438547154E+03  0.59736712268E+02  0.22320050071E+03  0.30848072758E+03  0.00000000000E+00 0. -1.
         -1    1    6    6    0  502 -0.14354117293E+03 -0.23660419112E+01  0.86407210468E+02  0.16755856439E+03  0.00000000000E+00 0.  1.
<mgrwt>
<rscale>  0 0.21035215E+04</rscale>
<asrwt>0</asrwt>
<pdfrwt beam="1">  1        1 0.32024383E+00 0.21035215E+04</pdfrwt>
<pdfrwt beam="2">  1       -2 0.38062115E+00 0.21035215E+04</pdfrwt>
<totfact> 0.20012764E-02</totfact>
</mgrwt>
</event>
<event>
12    3  0.2269558E-007  0.9928204E+03  0.7818608E-02  0.9316454E-01
         -2   -1    0    0    0  501 -0.00000000000E+00  0.00000000000E+00  0.63953803240E+03  0.63953803240E+03  0.00000000000E+00 0.  1.
          1   -1    0    0  501    0  0.00000000000E+00 -0.00000000000E+00 -0.19654742758E+04  0.19654742758E+04  0.00000000000E+00 0. -1.
        -24    2    1    2    0    0  0.71675594011E+03 -0.62389489666E+03 -0.12767409810E+03  0.96219214770E+03  0.80803056935E+02 0.  0.
    5000000    2    1    2    0    0 -0.71675594011E+03  0.62389489666E+03 -0.11982621453E+04  0.16428201605E+04  0.60003499157E+03 0.  0.
        -24    2    4    4    0    0 -0.47099043320E+02  0.26300905741E+03 -0.84298762990E+02  0.29117764526E+03  0.79284648584E+02 0.  0.
         24    2    4    4    0    0 -0.66965689679E+03  0.36088583925E+03 -0.11139633823E+04  0.13516425152E+04  0.85697861471E+02 0.  0.
         11    1    3    3    0    0  0.53899877492E+03 -0.42977236548E+03 -0.11305021313E+03  0.69857305716E+03  0.00000000000E+00 0. -1.
        -12    1    3    3    0    0  0.17775716519E+03 -0.19412253117E+03 -0.14623884969E+02  0.26361909054E+03  0.00000000000E+00 0.  1.
         11    1    5    5    0    0 -0.25698477423E+02  0.90687132922E+02 -0.69089517339E+02  0.11686714348E+03  0.00000000000E+00 0. -1.
        -12    1    5    5    0    0 -0.21400565897E+02  0.17232192448E+03 -0.15209245651E+02  0.17431050178E+03  0.00000000000E+00 0.  1.
          4    1    6    6  502    0 -0.33158238710E+03  0.22543999146E+03 -0.56295122690E+03  0.69114698368E+03  0.00000000000E+00 0. -1.
         -3    1    6    6    0  502 -0.33807450969E+03  0.13544584779E+03 -0.55101215540E+03  0.66049553154E+03  0.00000000000E+00 0.  1.
<mgrwt>
<rscale>  0 0.99282043E+03</rscale>
<asrwt>0</asrwt>
<pdfrwt beam="1">  1        1 0.30238065E+00 0.99282043E+03</pdfrwt>
<pdfrwt beam="2">  1       -2 0.98390468E-01 0.99282043E+03</pdfrwt>
<totfact> 0.23850321E+00</totfact>
</mgrwt>
</event>
<event>
12    3  0.2269558E-007  0.5875575E+03  0.7818608E-02  0.9931562E-01
         -2   -1    0    0    0  501 -0.00000000000E+00  0.00000000000E+00  0.36629314570E+03  0.36629314570E+03  0.00000000000E+00 0.  1.
          1   -1    0    0  501    0  0.00000000000E+00 -0.00000000000E+00 -0.10275563414E+04  0.10275563414E+04  0.00000000000E+00 0. -1.
        -24    2    1    2    0    0  0.34577892468E+03 -0.29930661920E+03 -0.17388182039E+03  0.49581850043E+03  0.80334182317E+02 0.  0.
    5000000    2    1    2    0    0 -0.34577892468E+03  0.29930661920E+03 -0.48738137531E+03  0.89803098666E+03  0.59980957891E+03 0.  0.
        -24    2    4    4    0    0  0.57599203264E+02 -0.10579965830E+03 -0.21714182775E-01  0.14230352368E+03  0.75756560553E+02 0.  0.
         24    2    4    4    0    0 -0.40337812795E+03  0.40510627751E+03 -0.48735966112E+03  0.75572746298E+03  0.82338015685E+02 0.  0.
         11    1    5    5    0    0 -0.78487852575E+01 -0.43725884606E+02  0.21819447576E+02  0.49493885553E+02  0.00000000000E+00 0. -1.
        -12    1    5    5    0    0  0.65447988521E+02 -0.62073773699E+02 -0.21841161759E+02  0.92809638129E+02  0.00000000000E+00 0.  1.
         13    1    3    3    0    0  0.49254978845E+02 -0.80791470149E+02 -0.20494505379E+02  0.96816007667E+02  0.00000000000E+00 0. -1.
        -14    1    3    3    0    0  0.29652394584E+03 -0.21851514906E+03 -0.15338731501E+03  0.39900249276E+03  0.00000000000E+00 0.  1.
          2    1    6    6  502    0 -0.25384005197E+03  0.30844021138E+03 -0.34215440960E+03  0.52596556540E+03  0.00000000000E+00 0. -1.
         -1    1    6    6    0  502 -0.14953807598E+03  0.96666066130E+02 -0.14520525152E+03  0.22976189758E+03  0.00000000000E+00 0.  1.
<mgrwt>
<rscale>  0 0.58755753E+03</rscale>
<asrwt>0</asrwt>
<pdfrwt beam="1">  1        1 0.15808559E+00 0.58755753E+03</pdfrwt>
<pdfrwt beam="2">  1       -2 0.56352792E-01 0.58755753E+03</pdfrwt>
<totfact> 0.38814801E+01</totfact>
</mgrwt>
</event>
<event>
12    3  0.2269558E-007  0.5406983E+03  0.7818608E-02  0.1003670E+00
         -2   -1    0    0    0  501 -0.00000000000E+00  0.00000000000E+00  0.82867048314E+03  0.82867048314E+03  0.00000000000E+00 0.  1.
          1   -1    0    0  501    0  0.00000000000E+00 -0.00000000000E+00 -0.89115567894E+03  0.89115567894E+03  0.00000000000E+00 0. -1.
        -24    2    1    2    0    0 -0.31706528936E+03  0.41340807435E+03  0.51580128300E+03  0.73702407037E+03  0.75610072758E+02 0.  0.
    5000000    2    1    2    0    0  0.31706528936E+03 -0.41340807435E+03 -0.57828647880E+03  0.98280209171E+03  0.60004005387E+03 0.  0.
        -24    2    4    4    0    0  0.21368053342E+03 -0.36363046247E+03 -0.44384042547E+02  0.43088818296E+03  0.76211543626E+02 0.  0.
         24    2    4    4    0    0  0.10338475594E+03 -0.49777611883E+02 -0.53390243626E+03  0.55191390876E+03  0.79943310121E+02 0.  0.
         11    1    3    3    0    0 -0.16412971009E+03  0.24091849855E+03  0.33482981285E+03  0.44394964607E+03  0.00000000000E+00 0. -1.
        -12    1    3    3    0    0 -0.15293557926E+03  0.17248957580E+03  0.18097147015E+03  0.29307442429E+03  0.00000000000E+00 0.  1.
         13    1    5    5    0    0  0.77049587870E+02 -0.14116919031E+03 -0.53975702561E+02  0.16964302447E+03  0.00000000000E+00 0. -1.
        -14    1    5    5    0    0  0.13663094555E+03 -0.22246127215E+03  0.95916600147E+01  0.26124515848E+03  0.00000000000E+00 0.  1.
          2    1    6    6  502    0  0.72191308857E+02  0.71530479658E+01 -0.23058512506E+03  0.24172763819E+03  0.00000000000E+00 0. -1.
         -1    1    6    6    0  502  0.31193447080E+02 -0.56930659849E+02 -0.30331731120E+03  0.31018627056E+03  0.00000000000E+00 0.  1.
<mgrwt>
<rscale>  0 0.54069825E+03</rscale>
<asrwt>0</asrwt>
<pdfrwt beam="1">  1        1 0.13710087E+00 0.54069825E+03</pdfrwt>
<pdfrwt beam="2">  1       -2 0.12748777E+00 0.54069825E+03</pdfrwt>
<totfact> 0.78007487E+00</totfact>
</mgrwt>
</event>
<event>
12    3  0.2269558E-007  0.5580131E+03  0.7818608E-02  0.9996560E-01
         -2   -1    0    0    0  501 -0.00000000000E+00  0.00000000000E+00  0.62169987698E+03  0.62169987698E+03  0.00000000000E+00 0.  1.
          1   -1    0    0  501    0  0.00000000000E+00 -0.00000000000E+00 -0.63003939373E+03  0.63003939373E+03  0.00000000000E+00 0. -1.
        -24    2    1    2    0    0 -0.87580260497E+02 -0.40843040445E+03  0.22812694948E+03  0.48289121682E+03  0.81586303378E+02 0.  0.
    5000000    2    1    2    0    0  0.87580260497E+02  0.40843040445E+03 -0.23646646623E+03  0.76884805389E+03  0.60060406511E+03 0.  0.
        -24    2    4    4    0    0 -0.13501178613E+03  0.43912865252E+03 -0.24991469465E+03  0.53007760212E+03  0.86387231756E+02 0.  0.
         24    2    4    4    0    0  0.22259204663E+03 -0.30698248075E+02  0.13448228419E+02  0.23877045177E+03  0.79629593341E+02 0.  0.
         11    1    3    3    0    0 -0.35548053958E+02 -0.31644816022E+03  0.15340037087E+03  0.35346113793E+03  0.00000000000E+00 0. -1.
        -12    1    3    3    0    0 -0.52032206538E+02 -0.91982244232E+02  0.74726578607E+02  0.12943007889E+03  0.00000000000E+00 0.  1.
         11    1    5    5    0    0 -0.75402665778E+01  0.36031421563E+02 -0.50871045775E+02  0.62793170474E+02  0.00000000000E+00 0. -1.
        -12    1    5    5    0    0 -0.12747151955E+03  0.40309723096E+03 -0.19904364887E+03  0.46728443165E+03  0.00000000000E+00 0.  1.
          2    1    6    6  502    0  0.51694191334E+02 -0.33147729889E+02  0.27485904071E+02  0.67279538770E+02  0.00000000000E+00 0. -1.
         -1    1    6    6    0  502  0.17089785529E+03  0.24494818138E+01 -0.14037675651E+02  0.17149091300E+03  0.00000000000E+00 0.  1.
<mgrwt>
<rscale>  0 0.55801312E+03</rscale>
<asrwt>0</asrwt>
<pdfrwt beam="1">  1        1 0.96929137E-01 0.55801312E+03</pdfrwt>
<pdfrwt beam="2">  1       -2 0.95646135E-01 0.55801312E+03</pdfrwt>
<totfact> 0.26603433E+01</totfact>
</mgrwt>
</event>
<event>
12    3  0.2269558E-007  0.4782935E+03  0.7818608E-02  0.1019605E+00
         -2   -1    0    0    0  501 -0.00000000000E+00  0.00000000000E+00  0.35034619381E+03  0.35034619381E+03  0.00000000000E+00 0.  1.
          1   -1    0    0  501    0  0.00000000000E+00 -0.00000000000E+00 -0.15422344904E+04  0.15422344904E+04  0.00000000000E+00 0. -1.
        -24    2    1    2    0    0 -0.32435637879E+03  0.33515406521E+03 -0.10037514908E+04  0.11096405983E+04  0.79056272995E+02 0.  0.
    5000000    2    1    2    0    0  0.32435637879E+03 -0.33515406521E+03 -0.18813680579E+03  0.78294008588E+03  0.60005367468E+03 0.  0.
        -24    2    4    4    0    0  0.27922227469E+03 -0.30442221097E+03  0.13789716781E+03  0.44229885982E+03  0.77296127331E+02 0.  0.
         24    2    4    4    0    0  0.45134104101E+02 -0.30731854242E+02 -0.32603397360E+03  0.34064122605E+03  0.82199505648E+02 0.  0.
         11    1    3    3    0    0 -0.13069549849E+03  0.15432024829E+03 -0.34979215950E+03  0.40404282843E+03  0.00000000000E+00 0. -1.
        -12    1    3    3    0    0 -0.19366088030E+03  0.18083381692E+03 -0.65395933129E+03  0.70559776989E+03  0.00000000000E+00 0.  1.
         13    1    5    5    0    0  0.95323717742E+02 -0.10625868943E+03  0.87090593270E+02  0.16721929219E+03  0.00000000000E+00 0. -1.
        -14    1    5    5    0    0  0.18389855695E+03 -0.19816352154E+03  0.50806574537E+02  0.27507956764E+03  0.00000000000E+00 0.  1.
          4    1    6    6  502    0 -0.11781999312E+02 -0.10832400052E+02 -0.99230906983E+01  0.18831466424E+02  0.00000000000E+00 0. -1.
         -3    1    6    6    0  502  0.56916103413E+02 -0.19899454190E+02 -0.31611088290E+03  0.32180975963E+03  0.00000000000E+00 0.  1.
<mgrwt>
<rscale>  0 0.47829348E+03</rscale>
<asrwt>0</asrwt>
<pdfrwt beam="1">  1        1 0.23726685E+00 0.47829348E+03</pdfrwt>
<pdfrwt beam="2">  1       -2 0.53899414E-01 0.47829348E+03</pdfrwt>
<totfact> 0.18726136E+01</totfact>
</mgrwt>
</event>
<event>
12    3  0.2269558E-007  0.1307403E+04  0.7818608E-02  0.9023715E-01
          1   -1    0    0  501    0  0.00000000000E+00  0.00000000000E+00  0.10242241401E+04  0.10242241401E+04  0.00000000000E+00 0. -1.
         -2   -1    0    0    0  501 -0.00000000000E+00 -0.00000000000E+00 -0.17106133496E+04  0.17106133496E+04  0.00000000000E+00 0.  1.
        -24    2    1    2    0    0 -0.12048616218E+04 -0.34784804269E+03 -0.30326358284E+03  0.12927506297E+04  0.80904891170E+02 0.  0.
    5000000    2    1    2    0    0  0.12048616218E+04  0.34784804269E+03 -0.38312562664E+03  0.14420868600E+04  0.60011622013E+03 0.  0.
        -24    2    4    4    0    0  0.13162980890E+03 -0.11255177192E+03 -0.16406927121E+03  0.25124586658E+03  0.78812763967E+02 0.  0.
         24    2    4    4    0    0  0.10732318129E+04  0.46039981461E+03 -0.21905635542E+03  0.11908409935E+04  0.79511454394E+02 0.  0.
         11    1    5    5    0    0  0.10876995384E+03 -0.42842822138E+02 -0.10224501199E+03  0.15530760684E+03  0.00000000000E+00 0. -1.
        -12    1    5    5    0    0  0.22859855065E+02 -0.69708949780E+02 -0.61824259222E+02  0.95938259737E+02  0.00000000000E+00 0.  1.
         13    1    3    3    0    0 -0.60592717091E+03 -0.20471636100E+03 -0.18390198108E+03  0.66548964196E+03  0.00000000000E+00 0. -1.
        -14    1    3    3    0    0 -0.59893445086E+03 -0.14313168169E+03 -0.11936160177E+03  0.62726098772E+03  0.00000000000E+00 0.  1.
          4    1    6    6  502    0  0.80746790562E+03  0.37245415190E+03 -0.19092512770E+03  0.90949377033E+03  0.00000000000E+00 0. -1.
         -3    1    6    6    0  502  0.26576390725E+03  0.87945662710E+02 -0.28131227721E+02  0.28134722313E+03  0.00000000000E+00 0.  1.
<mgrwt>
<rscale>  0 0.13074026E+04</rscale>
<asrwt>0</asrwt>
<pdfrwt beam="1">  1        1 0.15757295E+00 0.13074026E+04</pdfrwt>
<pdfrwt beam="2">  1       -2 0.26317128E+00 0.13074026E+04</pdfrwt>
<totfact> 0.65479054E-01</totfact>
</mgrwt>
</event>
<event>
12    3  0.2269558E-007  0.7265665E+03  0.7818608E-02  0.9672848E-01
          1   -1    0    0  501    0  0.00000000000E+00  0.00000000000E+00  0.13466389395E+04  0.13466389395E+04  0.00000000000E+00 0. -1.
         -2   -1    0    0    0  501 -0.00000000000E+00 -0.00000000000E+00 -0.53036841584E+03  0.53036841584E+03  0.00000000000E+00 0.  1.
        -24    2    1    2    0    0  0.28439894426E+03  0.57126270107E+03  0.76548664042E+03  0.99950174726E+03  0.76224097183E+02 0.  0.
    5000000    2    1    2    0    0 -0.28439894426E+03 -0.57126270107E+03  0.50783883265E+02  0.87750560810E+03  0.60017768729E+03 0.  0.
        -24    2    4    4    0    0 -0.39977543363E+03 -0.27659189291E+03  0.18241620363E+03  0.52518133248E+03  0.78843440291E+02 0.  0.
         24    2    4    4    0    0  0.11537648938E+03 -0.29467080815E+03 -0.13163232036E+03  0.35232427562E+03  0.81625412378E+02 0.  0.
         13    1    3    3    0    0  0.10044753072E+03  0.25544635443E+03  0.28341282773E+03  0.39454451883E+03  0.00000000000E+00 0. -1.
        -14    1    3    3    0    0  0.18395141354E+03  0.31581634664E+03  0.48207381269E+03  0.60495722843E+03  0.00000000000E+00 0.  1.
         13    1    5    5    0    0 -0.25313051289E+03 -0.19086352466E+03  0.15581786941E+03  0.35324658531E+03  0.00000000000E+00 0. -1.
        -14    1    5    5    0    0 -0.14664492074E+03 -0.85728368247E+02  0.26598334219E+02  0.17193474717E+03  0.00000000000E+00 0.  1.
          2    1    6    6  502    0  0.31786878963E+02 -0.16495264832E+02 -0.82970576209E+01  0.36760584887E+02  0.00000000000E+00 0. -1.
         -1    1    6    6    0  502  0.83589610416E+02 -0.27817554332E+03 -0.12333526274E+03  0.31556369073E+03  0.00000000000E+00 0.  1.
<mgrwt>
<rscale>  0 0.72656649E+03</rscale>
<asrwt>0</asrwt>
<pdfrwt beam="1">  1        1 0.20717522E+00 0.72656649E+03</pdfrwt>
<pdfrwt beam="2">  1       -2 0.81595141E-01 0.72656649E+03</pdfrwt>
<totfact> 0.10036658E+01</totfact>
</mgrwt>
</event>
<event>
12    3  0.2269558E-007  0.8633884E+03  0.7818608E-02  0.9472542E-01
          1   -1    0    0  501    0  0.00000000000E+00  0.00000000000E+00  0.26958470219E+04  0.26958470219E+04  0.00000000000E+00 0. -1.
         -4   -1    0    0    0  501 -0.00000000000E+00 -0.00000000000E+00 -0.29028651893E+03  0.29028651893E+03  0.00000000000E+00 0.  1.
        -24    2    1    2    0    0 -0.53529612748E+01 -0.76323316133E+03  0.79068284809E+03  0.11018860110E+04  0.80124291640E+02 0.  0.
    5000000    2    1    2    0    0  0.53529612748E+01  0.76323316133E+03  0.16148776549E+04  0.18842475299E+04  0.60000450075E+03 0.  0.
        -24    2    4    4    0    0 -0.21022839183E+03  0.69966838985E+03  0.12811865275E+04  0.14770248441E+04  0.80197501267E+02 0.  0.
         24    2    4    4    0    0  0.21558135311E+03  0.63564771480E+02  0.33369112739E+03  0.40722268585E+03  0.62966240069E+02 0.  0.
         11    1    3    3    0    0 -0.18903212250E+02 -0.53725539787E+03  0.60279689454E+03  0.80769102387E+03  0.00000000000E+00 0. -1.
        -12    1    3    3    0    0  0.13550250975E+02 -0.22597776346E+03  0.18788595355E+03  0.29419498708E+03  0.00000000000E+00 0.  1.
         13    1    5    5    0    0 -0.59376488540E+02  0.29083361789E+03  0.46195845663E+03  0.54910415801E+03  0.00000000000E+00 0. -1.
        -14    1    5    5    0    0 -0.15085190329E+03  0.40883477196E+03  0.81922807089E+03  0.92792068607E+03  0.00000000000E+00 0.  1.
          2    1    6    6  502    0  0.75901192644E+02  0.47631350573E+02  0.16377786222E+03  0.18668938040E+03  0.00000000000E+00 0. -1.
         -1    1    6    6    0  502  0.13968016046E+03  0.15933420907E+02  0.16991326517E+03  0.22053330544E+03  0.00000000000E+00 0.  1.
<mgrwt>
<rscale>  0 0.86338842E+03</rscale>
<asrwt>0</asrwt>
<pdfrwt beam="1">  1        1 0.41474568E+00 0.86338842E+03</pdfrwt>
<pdfrwt beam="2">  1       -4 0.44659466E-01 0.86338842E+03</pdfrwt>
<totfact> 0.24286723E+00</totfact>
</mgrwt>
</event>
<event>
12    3  0.2269558E-007  0.9349338E+03  0.7818608E-02  0.9382936E-01
          1   -1    0    0  501    0  0.00000000000E+00  0.00000000000E+00  0.10877475794E+04  0.10877475794E+04  0.00000000000E+00 0. -1.
         -2   -1    0    0    0  501 -0.00000000000E+00 -0.00000000000E+00 -0.86612604135E+03  0.86612604135E+03  0.00000000000E+00 0.  1.
        -24    2    1    2    0    0 -0.74440350140E+03  0.41610103121E+03  0.30220917509E+03  0.90820283051E+03  0.78900917480E+02 0.  0.
    5000000    2    1    2    0    0  0.74440350140E+03 -0.41610103121E+03 -0.80587637082E+02  0.10456707902E+04  0.59971359258E+03 0.  0.
        -24    2    4    4    0    0  0.78650107263E+03 -0.46334974637E+03 -0.14689916440E+01  0.91634990422E+03  0.80112822416E+02 0.  0.
         24    2    4    4    0    0 -0.42097571231E+02  0.47248715163E+02 -0.79118645438E+02  0.12932088596E+03  0.80370920753E+02 0.  0.
         11    1    3    3    0    0 -0.32740781215E+03  0.22747920804E+03  0.13380084471E+03  0.42052982247E+03  0.00000000000E+00 0. -1.
        -12    1    3    3    0    0 -0.41699568925E+03  0.18862182317E+03  0.16840833038E+03  0.48767300804E+03  0.00000000000E+00 0.  1.
         11    1    5    5    0    0  0.51441108383E+03 -0.26858695038E+03 -0.25563382968E+02  0.58087106971E+03  0.00000000000E+00 0. -1.
        -12    1    5    5    0    0  0.27208998880E+03 -0.19476279600E+03  0.24094391324E+02  0.33547883451E+03  0.00000000000E+00 0.  1.
          2    1    6    6  502    0 -0.59383556446E+02  0.13827829157E+02 -0.65029760701E+02  0.89143061492E+02  0.00000000000E+00 0. -1.
         -1    1    6    6    0  502  0.17285985214E+02  0.33420886006E+02 -0.14088884737E+02  0.40177824473E+02  0.00000000000E+00 0.  1.
<mgrwt>
<rscale>  0 0.93493385E+03</rscale>
<asrwt>0</asrwt>
<pdfrwt beam="1">  1        1 0.16734578E+00 0.93493385E+03</pdfrwt>
<pdfrwt beam="2">  1       -2 0.13325016E+00 0.93493385E+03</pdfrwt>
<totfact> 0.46484162E+00</totfact>
</mgrwt>
</event>
<event>
12    3  0.3019614E-007  0.6622117E+03  0.7818608E-02  0.9784131E-01
         -4   -1    0    0    0  501 -0.00000000000E+00  0.00000000000E+00  0.63766630471E+03  0.63766630471E+03  0.00000000000E+00 0.  1.
          1   -1    0    0  501    0  0.00000000000E+00 -0.00000000000E+00 -0.96192105400E+03  0.96192105400E+03  0.00000000000E+00 0. -1.
        -24    2    1    2    0    0 -0.56414758125E+02 -0.63232943864E+03  0.66226477855E+02  0.64281520598E+03  0.76172821700E+02 0.  0.
    5000000    2    1    2    0    0  0.56414758125E+02  0.63232943864E+03 -0.39048122714E+03  0.95677215272E+03  0.59992851204E+03 0.  0.
        -24    2    4    4    0    0 -0.63122679787E+02  0.47884322381E+03  0.25555862272E+02  0.49066299261E+03  0.82593973907E+02 0.  0.
         24    2    4    4    0    0  0.11953743791E+03  0.15348621483E+03 -0.41603708942E+03  0.46610916011E+03  0.79521520111E+02 0.  0.
         11    1    5    5    0    0 -0.84308219944E+00  0.28695109660E+03 -0.25857261040E+01  0.28696398486E+03  0.00000000000E+00 0. -1.
        -12    1    5    5    0    0 -0.62279597587E+02  0.19189212722E+03  0.28141588376E+02  0.20369900775E+03  0.00000000000E+00 0.  1.
         13    1    3    3    0    0 -0.52580781923E+02 -0.20938147182E+03  0.98276226242E+01  0.21610627371E+03  0.00000000000E+00 0. -1.
        -14    1    3    3    0    0 -0.38339762018E+01 -0.42294796682E+03  0.56398855231E+02  0.42670893227E+03  0.00000000000E+00 0.  1.
          4    1    6    6  502    0  0.10673273202E+03  0.11778993273E+03 -0.25355348046E+03  0.29925860354E+03  0.00000000000E+00 0. -1.
         -3    1    6    6    0  502  0.12804705890E+02  0.35696282100E+02 -0.16248360895E+03  0.16685055657E+03  0.00000000000E+00 0.  1.
<mgrwt>
<rscale>  0 0.66221171E+03</rscale>
<asrwt>0</asrwt>
<pdfrwt beam="1">  1        1 0.14798785E+00 0.66221171E+03</pdfrwt>
<pdfrwt beam="2">  1       -4 0.98102508E-01 0.66221171E+03</pdfrwt>
<totfact> 0.68500363E+00</totfact>
</mgrwt>
</event>
<event>
12    3  0.2269558E-007  0.6425254E+03  0.7818608E-02  0.9820907E-01
         -2   -1    0    0    0  501 -0.00000000000E+00  0.00000000000E+00  0.73786436345E+03  0.73786436345E+03  0.00000000000E+00 0.  1.
          1   -1    0    0  501    0  0.00000000000E+00 -0.00000000000E+00 -0.14409338921E+04  0.14409338921E+04  0.00000000000E+00 0. -1.
        -24    2    1    2    0    0  0.29686464587E+03  0.41053824219E+03  0.51669343181E+03  0.72805799247E+03  0.80162782184E+02 0.  0.
    5000000    2    1    2    0    0 -0.29686464587E+03 -0.41053824219E+03 -0.12197629604E+04  0.14507402630E+04  0.60012945678E+03 0.  0.
        -24    2    4    4    0    0  0.39879022844E+02 -0.42462540117E+03 -0.76000313834E+03  0.87516580460E+03  0.80083378310E+02 0.  0.
         24    2    4    4    0    0 -0.33674366871E+03  0.14087158977E+02 -0.45975982210E+03  0.57557445845E+03  0.79448830887E+02 0.  0.
         13    1    3    3    0    0  0.26894968266E+03  0.34313711182E+03  0.47181244838E+03  0.64240485347E+03  0.00000000000E+00 0. -1.
        -14    1    3    3    0    0  0.27914963209E+02  0.67401130376E+02  0.44880983429E+02  0.85653139000E+02  0.00000000000E+00 0.  1.
         13    1    5    5    0    0  0.63206028782E+02 -0.31594228010E+03 -0.58443313900E+03  0.66736543242E+03  0.00000000000E+00 0. -1.
        -14    1    5    5    0    0 -0.23327005939E+02 -0.10868312106E+03 -0.17556999934E+03  0.20780037218E+03  0.00000000000E+00 0.  1.
          2    1    6    6  502    0 -0.17173810273E+03  0.38379495399E+02 -0.27681837829E+03  0.32801734124E+03  0.00000000000E+00 0. -1.
         -1    1    6    6    0  502 -0.16500556598E+03 -0.24292336422E+02 -0.18294144382E+03  0.24755711721E+03  0.00000000000E+00 0.  1.
<mgrwt>
<rscale>  0 0.64252537E+03</rscale>
<asrwt>0</asrwt>
<pdfrwt beam="1">  1        1 0.22168214E+00 0.64252537E+03</pdfrwt>
<pdfrwt beam="2">  1       -2 0.11351760E+00 0.64252537E+03</pdfrwt>
<totfact> 0.40343071E+00</totfact>
</mgrwt>
</event>
<event>
12    3  0.2269558E-007  0.9502174E+03  0.7818608E-02  0.9364897E-01
          1   -1    0    0  501    0  0.00000000000E+00  0.00000000000E+00  0.69543574162E+03  0.69543574162E+03  0.00000000000E+00 0. -1.
         -2   -1    0    0    0  501 -0.00000000000E+00 -0.00000000000E+00 -0.13494929457E+04  0.13494929457E+04  0.00000000000E+00 0.  1.
        -24    2    1    2    0    0  0.83113798740E+03  0.26617062243E+03 -0.25013882758E+03  0.91146468626E+03  0.81001770873E+02 0.  0.
    5000000    2    1    2    0    0 -0.83113798740E+03 -0.26617062243E+03 -0.40391837653E+03  0.11334640011E+04  0.59996119249E+03 0.  0.
        -24    2    4    4    0    0 -0.29872719887E+02 -0.20255624822E+03  0.21453482025E+02  0.22077072614E+03  0.79737372287E+02 0.  0.
         24    2    4    4    0    0 -0.80126526752E+03 -0.63614374206E+02 -0.42537185855E+03  0.91269327494E+03  0.77427246786E+02 0.  0.
         13    1    5    5    0    0 -0.44103980026E+02 -0.59166556844E+02 -0.61671647539E+01  0.74053199958E+02  0.00000000000E+00 0. -1.
        -14    1    5    5    0    0  0.14231260139E+02 -0.14338969138E+03  0.27620646779E+02  0.14671752618E+03  0.00000000000E+00 0.  1.
         13    1    3    3    0    0  0.19848042743E+03  0.97729157842E+02 -0.49401799350E+02  0.22668481674E+03  0.00000000000E+00 0. -1.
        -14    1    3    3    0    0  0.63265755998E+03  0.16844146459E+03 -0.20073702823E+03  0.68477986951E+03  0.00000000000E+00 0.  1.
          2    1    6    6  502    0 -0.57601522198E+03 -0.76074006450E+02 -0.28690030503E+03  0.64799118469E+03  0.00000000000E+00 0. -1.
         -1    1    6    6    0  502 -0.22525004554E+03  0.12459632243E+02 -0.13847155352E+03  0.26470209025E+03  0.00000000000E+00 0.  1.
<mgrwt>
<rscale>  0 0.95021737E+03</rscale>
<asrwt>0</asrwt>
<pdfrwt beam="1">  1        1 0.10699011E+00 0.95021737E+03</pdfrwt>
<pdfrwt beam="2">  1       -2 0.20761430E+00 0.95021737E+03</pdfrwt>
<totfact> 0.28691929E+00</totfact>
</mgrwt>
</event>
<event>
12    3  0.2269558E-007  0.7435891E+03  0.7818608E-02  0.9645462E-01
         -2   -1    0    0    0  501 -0.00000000000E+00  0.00000000000E+00  0.10628943415E+04  0.10628943415E+04  0.00000000000E+00 0.  1.
          1   -1    0    0  501    0  0.00000000000E+00 -0.00000000000E+00 -0.92183668164E+03  0.92183668164E+03  0.00000000000E+00 0. -1.
        -24    2    1    2    0    0 -0.27591543935E+03 -0.62230857496E+03  0.64933891496E+03  0.94464258799E+03  0.85506142626E+02 0.  0.
    5000000    2    1    2    0    0  0.27591543935E+03  0.62230857496E+03 -0.50828125514E+03  0.10400884351E+04  0.60003068786E+03 0.  0.
        -24    2    4    4    0    0  0.31456035487E+03  0.20141356145E+03 -0.47187870737E+03  0.60726950856E+03  0.81185602006E+02 0.  0.
         24    2    4    4    0    0 -0.38644915523E+02  0.42089501351E+03 -0.36402547770E+02  0.43281892654E+03  0.85796478939E+02 0.  0.
         11    1    3    3    0    0 -0.93533981502E+02 -0.24740478497E+03  0.30670011845E+03  0.40499715552E+03  0.00000000000E+00 0. -1.
        -12    1    3    3    0    0 -0.18238145784E+03 -0.37490378999E+03  0.34263879652E+03  0.53964543247E+03  0.00000000000E+00 0.  1.
         11    1    5    5    0    0  0.22561818873E+03  0.10427937536E+03 -0.27826907531E+03  0.37311048429E+03  0.00000000000E+00 0. -1.
        -12    1    5    5    0    0  0.88942166141E+02  0.97134186093E+02 -0.19360963205E+03  0.23415902427E+03  0.00000000000E+00 0.  1.
          2    1    6    6  502    0 -0.47094817628E+02  0.24906228208E+03  0.13052037187E+02  0.25381154008E+03  0.00000000000E+00 0. -1.
         -1    1    6    6    0  502  0.84499021052E+01  0.17183273142E+03 -0.49454584958E+02  0.17900738646E+03  0.00000000000E+00 0.  1.
<mgrwt>
<rscale>  0 0.74358911E+03</rscale>
<asrwt>0</asrwt>
<pdfrwt beam="1">  1        1 0.14182103E+00 0.74358911E+03</pdfrwt>
<pdfrwt beam="2">  1       -2 0.16352221E+00 0.74358911E+03</pdfrwt>
<totfact> 0.37305925E+00</totfact>
</mgrwt>
</event>
<event>
12    3  0.2269558E-007  0.1484490E+04  0.7818608E-02  0.8894833E-01
          1   -1    0    0  501    0  0.00000000000E+00  0.00000000000E+00  0.14045952904E+04  0.14045952904E+04  0.00000000000E+00 0. -1.
         -2   -1    0    0    0  501 -0.00000000000E+00 -0.00000000000E+00 -0.16750945575E+04  0.16750945575E+04  0.00000000000E+00 0.  1.
        -24    2    1    2    0    0 -0.59319343879E+03  0.13134684620E+04 -0.44089115119E+03  0.15093408424E+04  0.81528613476E+02 0.  0.
    5000000    2    1    2    0    0  0.59319343879E+03 -0.13134684620E+04  0.17039188409E+03  0.15703490055E+04  0.59990394946E+03 0.  0.
        -24    2    4    4    0    0  0.21694348635E+03 -0.71180640521E+02  0.12118899675E+03  0.26917313966E+03  0.75074938064E+02 0.  0.
         24    2    4    4    0    0  0.37624995244E+03 -0.12422878215E+04  0.49202887337E+02  0.13011758659E+04  0.76122609949E+02 0.  0.
         11    1    3    3    0    0 -0.11359936080E+03  0.24848438779E+03 -0.50597368039E+02  0.27786579387E+03  0.00000000000E+00 0. -1.
        -12    1    3    3    0    0 -0.47959407799E+03  0.10649840742E+04 -0.39029378315E+03  0.12314750485E+04  0.00000000000E+00 0.  1.
         13    1    5    5    0    0  0.11084210649E+03 -0.27600457270E+02  0.19489330084E+02  0.11587748616E+03  0.00000000000E+00 0. -1.
        -14    1    5    5    0    0  0.10610137987E+03 -0.43580183251E+02  0.10169966667E+03  0.15329565350E+03  0.00000000000E+00 0.  1.
          4    1    6    6  502    0  0.30987310960E+03 -0.95638167907E+03  0.63363921164E+02  0.10073243006E+04  0.00000000000E+00 0. -1.
         -3    1    6    6    0  502  0.66376842840E+02 -0.28590614240E+03 -0.14161033827E+02  0.29385156526E+03  0.00000000000E+00 0.  1.
<mgrwt>
<rscale>  0 0.14844899E+04</rscale>
<asrwt>0</asrwt>
<pdfrwt beam="1">  1        1 0.21609158E+00 0.14844899E+04</pdfrwt>
<pdfrwt beam="2">  1       -2 0.25770685E+00 0.14844899E+04</pdfrwt>
<totfact> 0.36400720E-01</totfact>
</mgrwt>
</event>
<event>
12    3  0.2269558E-007  0.7986423E+03  0.7818608E-02  0.9561984E-01
          1   -1    0    0  501    0  0.00000000000E+00  0.00000000000E+00  0.13169405103E+04  0.13169405103E+04  0.00000000000E+00 0. -1.
         -2   -1    0    0    0  501 -0.00000000000E+00 -0.00000000000E+00 -0.49255815808E+03  0.49255815808E+03  0.00000000000E+00 0.  1.
        -24    2    1    2    0    0 -0.67555763046E+03  0.13113157603E+03  0.28340217460E+03  0.74828448949E+03  0.77712819709E+02 0.  0.
    5000000    2    1    2    0    0  0.67555763046E+03 -0.13113157603E+03  0.54098017763E+03  0.10612141789E+04  0.59995198024E+03 0.  0.
        -24    2    4    4    0    0  0.19899865429E+03 -0.32705646675E+03  0.22179698288E+03  0.44964496960E+03  0.80126775925E+02 0.  0.
         24    2    4    4    0    0  0.47655897617E+03  0.19592489072E+03  0.31918319475E+03  0.61156920930E+03  0.81510523091E+02 0.  0.
         11    1    3    3    0    0 -0.49249397132E+03  0.12780009649E+03  0.22248923682E+03  0.55532390273E+03  0.00000000000E+00 0. -1.
        -12    1    3    3    0    0 -0.18306365914E+03  0.33314795421E+01  0.60912937775E+02  0.19296058676E+03  0.00000000000E+00 0.  1.
         13    1    5    5    0    0  0.14030921514E+01 -0.41448670690E+02  0.40101141476E+02  0.57689362254E+02  0.00000000000E+00 0. -1.
        -14    1    5    5    0    0  0.19759556214E+03 -0.28560779606E+03  0.18169584140E+03  0.39195560735E+03  0.00000000000E+00 0.  1.
          2    1    6    6  502    0  0.28415238675E+03  0.13651979860E+03  0.15265193614E+03  0.35026111390E+03  0.00000000000E+00 0. -1.
         -1    1    6    6    0  502  0.19240658942E+03  0.59405092117E+02  0.16653125861E+03  0.26130809539E+03  0.00000000000E+00 0.  1.
<mgrwt>
<rscale>  0 0.79864234E+03</rscale>
<asrwt>0</asrwt>
<pdfrwt beam="1">  1        1 0.20260623E+00 0.79864234E+03</pdfrwt>
<pdfrwt beam="2">  1       -2 0.75778179E-01 0.79864234E+03</pdfrwt>
<totfact> 0.12317590E+01</totfact>
</mgrwt>
</event>
<event>
12    3  0.2664676E-007  0.7387510E+03  0.7818608E-02  0.9653165E-01
         -2   -1    0    0    0  501 -0.00000000000E+00  0.00000000000E+00  0.42978286290E+03  0.42978286290E+03  0.00000000000E+00 0.  1.
          1   -1    0    0  501    0  0.00000000000E+00 -0.00000000000E+00 -0.14447665403E+04  0.14447665403E+04  0.00000000000E+00 0. -1.
        -24    2    1    2    0    0  0.65408710910E+03 -0.36799334090E+02 -0.26125975833E+03  0.70953873384E+03  0.77488168262E+02 0.  0.
    5000000    2    1    2    0    0 -0.65408710910E+03  0.36799334090E+02 -0.75372391909E+03  0.11650106694E+04  0.59997164623E+03 0.  0.
        -24    2    4    4    0    0 -0.57028707738E+02 -0.17356348191E+03 -0.30511861856E+02  0.20106377532E+03  0.78224754862E+02 0.  0.
         24    2    4    4    0    0 -0.59705840136E+03  0.21036281600E+03 -0.72321205724E+03  0.96394689406E+03  0.73666042699E+02 0.  0.
         11    1    3    3    0    0  0.30714830477E+03 -0.46219423465E+02 -0.15109859205E+03  0.34540859970E+03  0.00000000000E+00 0. -1.
        -12    1    3    3    0    0  0.34693880432E+03  0.94200893751E+01 -0.11016116628E+03  0.36413013414E+03  0.00000000000E+00 0.  1.
         13    1    5    5    0    0 -0.54219828285E+02 -0.13663505721E+03  0.85344604304E+01  0.14724729422E+03  0.00000000000E+00 0. -1.
        -14    1    5    5    0    0 -0.28088794536E+01 -0.36928424694E+02 -0.39046322287E+02  0.53816481103E+02  0.00000000000E+00 0.  1.
          4    1    6    6  502    0 -0.33251562075E+03  0.85882014038E+02 -0.35744580316E+03  0.49569129564E+03  0.00000000000E+00 0. -1.
         -3    1    6    6    0  502 -0.26454278061E+03  0.12448080196E+03 -0.36576625407E+03  0.46825559842E+03  0.00000000000E+00 0.  1.
<mgrwt>
<rscale>  0 0.73875104E+03</rscale>
<asrwt>0</asrwt>
<pdfrwt beam="1">  1        1 0.22227177E+00 0.73875104E+03</pdfrwt>
<pdfrwt beam="2">  1       -2 0.66120441E-01 0.73875104E+03</pdfrwt>
<totfact> 0.13621134E+01</totfact>
</mgrwt>
</event>
<event>
12    3  0.2269558E-007  0.1042754E+04  0.7818608E-02  0.9262857E-01
         -2   -1    0    0    0  501 -0.00000000000E+00  0.00000000000E+00  0.51428646492E+03  0.51428646492E+03  0.00000000000E+00 0.  1.
          1   -1    0    0  501    0  0.00000000000E+00 -0.00000000000E+00 -0.23406577242E+04  0.23406577242E+04  0.00000000000E+00 0. -1.
        -24    2    1    2    0    0 -0.77634554155E+03  0.56956331287E+03 -0.12570684193E+04  0.15855813491E+04  0.82051426317E+02 0.  0.
    5000000    2    1    2    0    0  0.77634554155E+03 -0.56956331287E+03 -0.56930284004E+03  0.12693628401E+04  0.60005127185E+03 0.  0.
        -24    2    4    4    0    0  0.23572853351E+03 -0.53006419732E+03 -0.33100508417E+03  0.67208583008E+03  0.74826482399E+02 0.  0.
         24    2    4    4    0    0  0.54061700805E+03 -0.39499115550E+02 -0.23829775587E+03  0.59727701000E+03  0.78275645644E+02 0.  0.
         11    1    3    3    0    0 -0.48308731174E+03  0.36384375356E+03 -0.72446236988E+03  0.94371677591E+03  0.00000000000E+00 0. -1.
        -12    1    3    3    0    0 -0.29325822982E+03  0.20571955930E+03 -0.53260604940E+03  0.64186457317E+03  0.00000000000E+00 0.  1.
         13    1    5    5    0    0  0.10118625613E+03 -0.23347060450E+03 -0.10293536487E+03  0.27448655875E+03  0.00000000000E+00 0. -1.
        -14    1    5    5    0    0  0.13454227737E+03 -0.29659359282E+03 -0.22806971930E+03  0.39759927133E+03  0.00000000000E+00 0.  1.
          4    1    6    6  502    0  0.45581095255E+03 -0.26524885757E+02 -0.22955252713E+03  0.51103968216E+03  0.00000000000E+00 0. -1.
         -3    1    6    6    0  502  0.84806055497E+02 -0.12974229793E+02 -0.87452287480E+01  0.86237327843E+02  0.00000000000E+00 0.  1.
<mgrwt>
<rscale>  0 0.10427545E+04</rscale>
<asrwt>0</asrwt>
<pdfrwt beam="1">  1        1 0.36010120E+00 0.10427545E+04</pdfrwt>
<pdfrwt beam="2">  1       -2 0.79120993E-01 0.10427545E+04</pdfrwt>
<totfact> 0.21856252E+00</totfact>
</mgrwt>
</event>
<event>
12    3  0.2269558E-007  0.1249723E+04  0.7818608E-02  0.9070414E-01
         -2   -1    0    0    0  501 -0.00000000000E+00  0.00000000000E+00  0.43937824314E+03  0.43937824314E+03  0.00000000000E+00 0.  1.
          1   -1    0    0  501    0  0.00000000000E+00 -0.00000000000E+00 -0.50215173794E+04  0.50215173794E+04  0.00000000000E+00 0. -1.
        -24    2    1    2    0    0  0.11723569114E+04  0.28253001757E+03 -0.80829730982E+03  0.14539223452E+04  0.79383287954E+02 0.  0.
    5000000    2    1    2    0    0 -0.11723569114E+04 -0.28253001757E+03 -0.37738418264E+04  0.40069732773E+04  0.59975726398E+03 0.  0.
        -24    2    4    4    0    0 -0.23786567142E+03  0.12731702541E+03 -0.12897632542E+04  0.13202919333E+04  0.83017074166E+02 0.  0.
         24    2    4    4    0    0 -0.93449123995E+03 -0.40984704298E+03 -0.24840785722E+04  0.26866813440E+04  0.79760987661E+02 0.  0.
         11    1    3    3    0    0  0.36908877982E+03  0.69076701606E+02 -0.28963544189E+03  0.47422231843E+03  0.00000000000E+00 0. -1.
        -12    1    3    3    0    0  0.80326813155E+03  0.21345331596E+03 -0.51866186793E+03  0.97970002680E+03  0.00000000000E+00 0.  1.
         11    1    5    5    0    0 -0.89111929752E+02  0.44877137582E+02 -0.30369266338E+03  0.31966252094E+03  0.00000000000E+00 0. -1.
        -12    1    5    5    0    0 -0.14875374167E+03  0.82439887830E+02 -0.98607059084E+03  0.10006294124E+04  0.00000000000E+00 0.  1.
          2    1    6    6  502    0 -0.67175252783E+03 -0.25868498201E+03 -0.17065456621E+04  0.18521521199E+04  0.00000000000E+00 0. -1.
         -1    1    6    6    0  502 -0.26273871212E+03 -0.15116206097E+03 -0.77753291009E+03  0.83452922406E+03  0.00000000000E+00 0.  1.
<mgrwt>
<rscale>  0 0.12497233E+04</rscale>
<asrwt>0</asrwt>
<pdfrwt beam="1">  1        1 0.77254110E+00 0.12497233E+04</pdfrwt>
<pdfrwt beam="2">  1       -2 0.67596656E-01 0.12497233E+04</pdfrwt>
<totfact> 0.14861544E-02</totfact>
</mgrwt>
</event>
<event>
12    3  0.2269558E-007  0.5565329E+03  0.7818608E-02  0.9999930E-01
          1   -1    0    0  501    0  0.00000000000E+00  0.00000000000E+00  0.12519565574E+04  0.12519565574E+04  0.00000000000E+00 0. -1.
         -2   -1    0    0    0  501 -0.00000000000E+00 -0.00000000000E+00 -0.31289061446E+03  0.31289061446E+03  0.00000000000E+00 0.  1.
        -24    2    1    2    0    0 -0.43851249289E+03 -0.18609824207E+03  0.31374008323E+03  0.57596730837E+03  0.79873264443E+02 0.  0.
    5000000    2    1    2    0    0  0.43851249289E+03  0.18609824207E+03  0.62532585971E+03  0.98887986348E+03  0.59993765631E+03 0.  0.
        -24    2    4    4    0    0  0.50202174324E+03  0.13306545739E+03  0.68190962909E+03  0.86075667428E+03  0.78543385699E+02 0.  0.
         24    2    4    4    0    0 -0.63509250356E+02  0.53032784676E+02 -0.56583769384E+02  0.12812318920E+03  0.79799295240E+02 0.  0.
         11    1    5    5    0    0  0.23460007906E+03  0.26680123150E+02  0.33811531897E+03  0.41239664765E+03  0.00000000000E+00 0. -1.
        -12    1    5    5    0    0  0.26742166418E+03  0.10638533424E+03  0.34379431012E+03  0.44836002663E+03  0.00000000000E+00 0.  1.
         13    1    3    3    0    0 -0.37070407635E+03 -0.12942627508E+03  0.27559523131E+03  0.47971387766E+03  0.00000000000E+00 0. -1.
        -14    1    3    3    0    0 -0.67808416538E+02 -0.56671966989E+02  0.38144851925E+02  0.96253430714E+02  0.00000000000E+00 0.  1.
          2    1    6    6  502    0  0.16815982794E+01 -0.14304504709E+02  0.58096567894E+01  0.15530574353E+02  0.00000000000E+00 0. -1.
         -1    1    6    6    0  502 -0.65190848636E+02  0.67337289384E+02 -0.62393426174E+02  0.11259261484E+03  0.00000000000E+00 0.  1.
<mgrwt>
<rscale>  0 0.55653286E+03</rscale>
<asrwt>0</asrwt>
<pdfrwt beam="1">  1        1 0.19260870E+00 0.55653286E+03</pdfrwt>
<pdfrwt beam="2">  1       -2 0.48137018E-01 0.55653286E+03</pdfrwt>
<totfact> 0.36842821E+01</totfact>
</mgrwt>
</event>
<event>
12    3  0.2269558E-007  0.7246258E+03  0.7818608E-02  0.9676022E-01
          1   -1    0    0  501    0  0.00000000000E+00  0.00000000000E+00  0.27139320513E+04  0.27139320513E+04  0.00000000000E+00 0. -1.
         -2   -1    0    0    0  501 -0.00000000000E+00 -0.00000000000E+00 -0.31980252961E+03  0.31980252961E+03  0.00000000000E+00 0.  1.
        -24    2    1    2    0    0  0.70009140383E+02  0.64379173156E+03  0.19279807251E+04  0.20354406134E+04  0.80868663021E+02 0.  0.
    5000000    2    1    2    0    0 -0.70009140383E+02 -0.64379173156E+03  0.46614879661E+03  0.99829396760E+03  0.59993922343E+03 0.  0.
        -24    2    4    4    0    0  0.16481708622E+03 -0.85372834934E+02  0.30543928543E+03  0.36645419835E+03  0.80884668212E+02 0.  0.
         24    2    4    4    0    0 -0.23482622660E+03 -0.55841889662E+03  0.16070951118E+03  0.63183976925E+03  0.80118201517E+02 0.  0.
         11    1    3    3    0    0  0.14214296400E+02  0.45217874868E+03  0.13787458160E+04  0.14510712222E+04  0.00000000000E+00 0. -1.
        -12    1    3    3    0    0  0.55794843983E+02  0.19161298288E+03  0.54923490917E+03  0.58436939112E+03  0.00000000000E+00 0.  1.
         13    1    5    5    0    0  0.13265469190E+03 -0.46144637744E+02  0.27071369536E+03  0.30497950707E+03  0.00000000000E+00 0. -1.
        -14    1    5    5    0    0  0.32162394315E+02 -0.39228197190E+02  0.34725590075E+02  0.61474691287E+02  0.00000000000E+00 0.  1.
          4    1    6    6  502    0 -0.19979991248E+03 -0.49174127289E+03  0.16654251703E+03  0.55629658858E+03  0.00000000000E+00 0. -1.
         -3    1    6    6    0  502 -0.35026314123E+02 -0.66677623736E+02 -0.58330058524E+01  0.75543180668E+02  0.00000000000E+00 0.  1.
<mgrwt>
<rscale>  0 0.72462578E+03</rscale>
<asrwt>0</asrwt>
<pdfrwt beam="1">  1        1 0.41752799E+00 0.72462578E+03</pdfrwt>
<pdfrwt beam="2">  1       -2 0.49200391E-01 0.72462578E+03</pdfrwt>
<totfact> 0.35105835E+00</totfact>
</mgrwt>
</event>
<event>
12    3  0.2269558E-007  0.1446573E+04  0.7818608E-02  0.8920780E-01
          1   -1    0    0  501    0  0.00000000000E+00  0.00000000000E+00  0.15431228026E+04  0.15431228026E+04  0.00000000000E+00 0. -1.
         -4   -1    0    0    0  501 -0.00000000000E+00 -0.00000000000E+00 -0.14730498529E+04  0.14730498529E+04  0.00000000000E+00 0.  1.
        -24    2    1    2    0    0 -0.52101187395E+03  0.13266087099E+04 -0.21541602057E+03  0.14436166140E+04  0.79251652685E+02 0.  0.
    5000000    2    1    2    0    0  0.52101187395E+03 -0.13266087099E+04  0.28548897023E+03  0.15725560415E+04  0.60007042057E+03 0.  0.
        -24    2    4    4    0    0  0.51097645581E+03 -0.87389762631E+03  0.41156029343E+03  0.10955986822E+04  0.78489475375E+02 0.  0.
         24    2    4    4    0    0  0.10035418135E+02 -0.45271108355E+03 -0.12607132320E+03  0.47695735924E+03  0.80909265358E+02 0.  0.
         11    1    5    5    0    0  0.90242866610E+02 -0.15533821486E+03  0.41407769566E+02  0.18435926706E+03  0.00000000000E+00 0. -1.
        -12    1    5    5    0    0  0.42073358920E+03 -0.71855941144E+03  0.37015252387E+03  0.91123941518E+03  0.00000000000E+00 0.  1.
         13    1    3    3    0    0 -0.45588763519E+03  0.10879142629E+04 -0.16410565924E+03  0.11909330992E+04  0.00000000000E+00 0. -1.
        -14    1    3    3    0    0 -0.65124238751E+02  0.23869444696E+03 -0.51310361332E+02  0.25268351482E+03  0.00000000000E+00 0.  1.
          4    1    6    6  502    0 -0.28500782336E+01 -0.37846048314E+03 -0.74752731655E+02  0.38578288082E+03  0.00000000000E+00 0. -1.
         -3    1    6    6    0  502  0.12885496368E+02 -0.74250600403E+02 -0.51318591547E+02  0.91174478421E+02  0.00000000000E+00 0.  1.
<mgrwt>
<rscale>  0 0.14465725E+04</rscale>
<asrwt>0</asrwt>
<pdfrwt beam="1">  1        1 0.23740351E+00 0.14465725E+04</pdfrwt>
<pdfrwt beam="2">  1       -4 0.22662305E+00 0.14465725E+04</pdfrwt>
<totfact> 0.24472236E-01</totfact>
</mgrwt>
</event>
<event>
12    3  0.2269558E-007  0.9914530E+03  0.7818608E-02  0.9317969E-01
          1   -1    0    0  501    0  0.00000000000E+00  0.00000000000E+00  0.15567988250E+04  0.15567988250E+04  0.00000000000E+00 0. -1.
         -2   -1    0    0    0  501 -0.00000000000E+00 -0.00000000000E+00 -0.72874982060E+03  0.72874982060E+03  0.00000000000E+00 0.  1.
        -24    2    1    2    0    0 -0.96771392594E+03  0.13801640026E+03  0.32184279132E+03  0.10316216937E+04  0.71706118671E+02 0.  0.
    5000000    2    1    2    0    0  0.96771392594E+03 -0.13801640026E+03  0.50620621307E+03  0.12539269519E+04  0.60047423029E+03 0.  0.
        -24    2    4    4    0    0  0.21253507985E+03 -0.10219005782E+03 -0.11328767643E+03  0.27333141345E+03  0.79132773657E+02 0.  0.
         24    2    4    4    0    0  0.75517884609E+03 -0.35826342446E+02  0.61949388951E+03  0.98059553840E+03  0.78843607236E+02 0.  0.
         11    1    3    3    0    0 -0.59152421976E+03  0.68368464926E+02  0.22864637900E+03  0.63785132766E+03  0.00000000000E+00 0. -1.
        -12    1    3    3    0    0 -0.37618970618E+03  0.69647935335E+02  0.93196412313E+02  0.39377036607E+03  0.00000000000E+00 0.  1.
         11    1    5    5    0    0  0.18316097537E+03 -0.51669603481E+02 -0.86712231168E+02  0.20913321557E+03  0.00000000000E+00 0. -1.
        -12    1    5    5    0    0  0.29374104481E+02 -0.50520454335E+02 -0.26575445266E+02  0.64198197882E+02  0.00000000000E+00 0.  1.
          2    1    6    6  502    0  0.29490497557E+03 -0.84775895271E+01  0.19332067402E+03  0.35272325859E+03  0.00000000000E+00 0. -1.
         -1    1    6    6    0  502  0.46027387052E+03 -0.27348752919E+02  0.42617321548E+03  0.62787227982E+03  0.00000000000E+00 0.  1.
<mgrwt>
<rscale>  0 0.99145305E+03</rscale>
<asrwt>0</asrwt>
<pdfrwt beam="1">  1        1 0.23950751E+00 0.99145305E+03</pdfrwt>
<pdfrwt beam="2">  1       -2 0.11211536E+00 0.99145305E+03</pdfrwt>
<totfact> 0.32937980E+00</totfact>
</mgrwt>
</event>
<event>
12    3  0.2269558E-007  0.7464874E+03  0.7818608E-02  0.9640877E-01
         -2   -1    0    0    0  501 -0.00000000000E+00  0.00000000000E+00  0.82456525547E+03  0.82456525547E+03  0.00000000000E+00 0.  1.
          1   -1    0    0  501    0  0.00000000000E+00 -0.00000000000E+00 -0.11873665736E+04  0.11873665736E+04  0.00000000000E+00 0. -1.
        -24    2    1    2    0    0  0.44063207292E+03  0.44910612007E+03  0.48463270938E+03  0.79785437995E+03  0.76484101890E+02 0.  0.
    5000000    2    1    2    0    0 -0.44063207292E+03 -0.44910612007E+03 -0.84743402754E+03  0.12140774491E+04  0.59998890884E+03 0.  0.
        -24    2    4    4    0    0 -0.22019329836E+03  0.10950538299E+03 -0.20210322564E+03  0.32892177421E+03  0.82869187218E+02 0.  0.
         24    2    4    4    0    0 -0.22043877456E+03 -0.55861150306E+03 -0.64533080190E+03  0.88515567493E+03  0.80054108652E+02 0.  0.
         11    1    5    5    0    0 -0.19034637339E+03  0.12282223098E+03 -0.17127297390E+03  0.28399203135E+03  0.00000000000E+00 0. -1.
        -12    1    5    5    0    0 -0.29846924976E+02 -0.13316847992E+02 -0.30830251743E+02  0.44929742861E+02  0.00000000000E+00 0.  1.
         11    1    3    3    0    0  0.15177219761E+03  0.11555269576E+03  0.11922141586E+03  0.22494659692E+03  0.00000000000E+00 0. -1.
        -12    1    3    3    0    0  0.28885987530E+03  0.33355342431E+03  0.36541129352E+03  0.57290778303E+03  0.00000000000E+00 0.  1.
          2    1    6    6  502    0 -0.18849991047E+03 -0.50871600323E+03 -0.60926349499E+03  0.81579788828E+03  0.00000000000E+00 0. -1.
         -1    1    6    6    0  502 -0.31938864086E+02 -0.49895499827E+02 -0.36067306904E+02  0.69357786653E+02  0.00000000000E+00 0.  1.
<mgrwt>
<rscale>  0 0.74648735E+03</rscale>
<asrwt>0</asrwt>
<pdfrwt beam="1">  1        1 0.18267178E+00 0.74648735E+03</pdfrwt>
<pdfrwt beam="2">  1       -2 0.12685619E+00 0.74648735E+03</pdfrwt>
<totfact> 0.45487581E+00</totfact>
</mgrwt>
</event>
<event>
12    3  0.2269558E-007  0.5235394E+03  0.7818608E-02  0.1007811E+00
         -2   -1    0    0    0  501 -0.00000000000E+00  0.00000000000E+00  0.69309966880E+03  0.69309966880E+03  0.00000000000E+00 0.  1.
          1   -1    0    0  501    0  0.00000000000E+00 -0.00000000000E+00 -0.43579076131E+03  0.43579076131E+03  0.00000000000E+00 0. -1.
        -24    2    1    2    0    0 -0.57707141540E+02  0.35761057402E+03 -0.27943574578E+02  0.37218499604E+03  0.80779892787E+02 0.  0.
    5000000    2    1    2    0    0  0.57707141540E+02 -0.35761057402E+03  0.28525248207E+03  0.75670543407E+03  0.60001558195E+03 0.  0.
        -24    2    4    4    0    0 -0.18462858176E+03  0.58661655400E+02  0.54801890172E+02  0.21696376495E+03  0.80877222503E+02 0.  0.
         24    2    4    4    0    0  0.24233572330E+03 -0.41627222942E+03  0.23045059190E+03  0.53974166911E+03  0.78768155355E+02 0.  0.
         11    1    5    5    0    0 -0.59696266770E+02  0.27454186944E+02 -0.19185890008E+02  0.68450529745E+02  0.00000000000E+00 0. -1.
        -12    1    5    5    0    0 -0.12493231499E+03  0.31207468456E+02  0.73987780181E+02  0.14851323521E+03  0.00000000000E+00 0.  1.
         11    1    3    3    0    0 -0.39342797337E+02  0.54279907186E+02 -0.98785154950E+01  0.67762446051E+02  0.00000000000E+00 0. -1.
        -12    1    3    3    0    0 -0.18364344203E+02  0.30333066684E+03 -0.18065059083E+02  0.30442254999E+03  0.00000000000E+00 0.  1.
          4    1    6    6  502    0  0.10359443622E+03 -0.17625941185E+03  0.55212137234E+02  0.21177244292E+03  0.00000000000E+00 0. -1.
         -3    1    6    6    0  502  0.13874128708E+03 -0.24001281757E+03  0.17523845466E+03  0.32796922619E+03  0.00000000000E+00 0.  1.
<mgrwt>
<rscale>  0 0.52353940E+03</rscale>
<asrwt>0</asrwt>
<pdfrwt beam="1">  1        1 0.67044733E-01 0.52353940E+03</pdfrwt>
<pdfrwt beam="2">  1       -2 0.10663072E+00 0.52353940E+03</pdfrwt>
<totfact> 0.34348969E+01</totfact>
</mgrwt>
</event>
<event>
12    3  0.2269558E-007  0.5806675E+03  0.7818608E-02  0.9946347E-01
          1   -1    0    0  501    0  0.00000000000E+00  0.00000000000E+00  0.24855998070E+04  0.24855998070E+04  0.00000000000E+00 0. -1.
         -2   -1    0    0    0  501 -0.00000000000E+00 -0.00000000000E+00 -0.17808005365E+03  0.17808005365E+03  0.00000000000E+00 0.  1.
        -24    2    1    2    0    0 -0.25568110086E+03  0.45808287828E+03  0.10096183231E+04  0.11405911884E+04  0.80039691396E+02 0.  0.
    5000000    2    1    2    0    0  0.25568110086E+03 -0.45808287828E+03  0.12979014303E+04  0.15230886722E+04  0.60003185909E+03 0.  0.
        -24    2    4    4    0    0  0.23333282337E+03 -0.79216962625E+02  0.12507084414E+03  0.28780556668E+03  0.80435032977E+02 0.  0.
         24    2    4    4    0    0  0.22348277489E+02 -0.37886591566E+03  0.11728305862E+04  0.12352831055E+04  0.79711601420E+02 0.  0.
         11    1    3    3    0    0 -0.56913406783E+02  0.93216998725E+02  0.14710167279E+03  0.18321421031E+03  0.00000000000E+00 0. -1.
        -12    1    3    3    0    0 -0.19876769408E+03  0.36486587956E+03  0.86251665026E+03  0.95737697813E+03  0.00000000000E+00 0.  1.
         13    1    5    5    0    0  0.42237815980E+02 -0.35015198455E+02 -0.58370114437E+00  0.54867457829E+02  0.00000000000E+00 0. -1.
        -14    1    5    5    0    0  0.19109500739E+03 -0.44201764169E+02  0.12565454529E+03  0.23293810886E+03  0.00000000000E+00 0.  1.
          2    1    6    6  502    0 -0.23028416329E+02 -0.18934791334E+03  0.51469990734E+03  0.54890703663E+03  0.00000000000E+00 0. -1.
         -1    1    6    6    0  502  0.45376693819E+02 -0.18951800232E+03  0.65813067885E+03  0.68637606892E+03  0.00000000000E+00 0.  1.
<mgrwt>
<rscale>  0 0.58066751E+03</rscale>
<asrwt>0</asrwt>
<pdfrwt beam="1">  1        1 0.38239995E+00 0.58066751E+03</pdfrwt>
<pdfrwt beam="2">  1       -2 0.27396933E-01 0.58066751E+03</pdfrwt>
<totfact> 0.15917857E+01</totfact>
</mgrwt>
</event>
<event>
12    3  0.2269558E-007  0.2123122E+04  0.7818608E-02  0.8551126E-01
          1   -1    0    0  501    0  0.00000000000E+00  0.00000000000E+00  0.43910938210E+04  0.43910938210E+04  0.00000000000E+00 0. -1.
         -2   -1    0    0    0  501 -0.00000000000E+00 -0.00000000000E+00 -0.10645509831E+04  0.10645509831E+04  0.00000000000E+00 0.  1.
        -24    2    1    2    0    0  0.14928326959E+04  0.15015668131E+04  0.17565227859E+04  0.27522902081E+04  0.80478196829E+02 0.  0.
    5000000    2    1    2    0    0 -0.14928326959E+04 -0.15015668131E+04  0.15700200520E+04  0.27033545960E+04  0.59992562549E+03 0.  0.
        -24    2    4    4    0    0 -0.12168267037E+04 -0.12007340714E+04  0.15047334537E+04  0.22788201526E+04  0.79805915952E+02 0.  0.
         24    2    4    4    0    0 -0.27600599223E+03 -0.30083274167E+03  0.65286598331E+02  0.42453444345E+03  0.96371715488E+02 0.  0.
         11    1    3    3    0    0  0.26877436463E+03  0.28227072660E+03  0.36309495986E+03  0.53268599761E+03  0.00000000000E+00 0. -1.
        -12    1    3    3    0    0  0.12240583313E+04  0.12192960865E+04  0.13934278260E+04  0.22196042105E+04  0.00000000000E+00 0.  1.
         13    1    5    5    0    0 -0.56913611614E+03 -0.50611410036E+03  0.66493809832E+03  0.10110440524E+04  0.00000000000E+00 0. -1.
        -14    1    5    5    0    0 -0.64769058756E+03 -0.69461997103E+03  0.83979535534E+03  0.12677761002E+04  0.00000000000E+00 0.  1.
          4    1    6    6  502    0 -0.18050576818E+03 -0.13267327398E+03  0.13959600440E+02  0.22445355961E+03  0.00000000000E+00 0. -1.
         -1    1    6    6    0  502 -0.95500224045E+02 -0.16815946769E+03  0.51326997892E+02  0.20008088384E+03  0.00000000000E+00 0.  1.
<mgrwt>
<rscale>  0 0.21231216E+04</rscale>
<asrwt>0</asrwt>
<pdfrwt beam="1">  1        1 0.67555289E+00 0.21231216E+04</pdfrwt>
<pdfrwt beam="2">  1       -2 0.16377708E+00 0.21231216E+04</pdfrwt>
<totfact> 0.76570067E-03</totfact>
</mgrwt>
</event>
<event>
12    3  0.2269558E-007  0.9173996E+03  0.7818608E-02  0.9404089E-01
          1   -1    0    0  501    0  0.00000000000E+00  0.00000000000E+00  0.25074525008E+04  0.25074525008E+04  0.00000000000E+00 0. -1.
         -2   -1    0    0    0  501 -0.00000000000E+00 -0.00000000000E+00 -0.40680061023E+03  0.40680061023E+03  0.00000000000E+00 0.  1.
        -24    2    1    2    0    0  0.83313062630E+02  0.91070587152E+03  0.82874529917E+03  0.12367318862E+04  0.79754225629E+02 0.  0.
    5000000    2    1    2    0    0 -0.83313062630E+02 -0.91070587152E+03  0.12719065914E+04  0.16775212248E+04  0.60000402648E+03 0.  0.
        -24    2    4    4    0    0 -0.15726689403E+02 -0.42442575805E+03  0.16242602613E+03  0.46170512590E+03  0.80030347126E+02 0.  0.
         24    2    4    4    0    0 -0.67586373227E+02 -0.48628011347E+03  0.11094805652E+04  0.12158160989E+04  0.78901173688E+02 0.  0.
         11    1    5    5    0    0 -0.27663136697E+02 -0.24493017296E+03  0.13083989512E+03  0.27906113472E+03  0.00000000000E+00 0. -1.
        -12    1    5    5    0    0  0.11936447295E+02 -0.17949558509E+03  0.31586131016E+02  0.18264399118E+03  0.00000000000E+00 0.  1.
         11    1    3    3    0    0  0.97037799859E+02  0.82067882132E+03  0.75852966488E+03  0.11217385234E+04  0.00000000000E+00 0. -1.
        -12    1    3    3    0    0 -0.13724737229E+02  0.90027050200E+02  0.70215634287E+02  0.11499336276E+03  0.00000000000E+00 0.  1.
          2    1    6    6  502    0 -0.60933510547E+02 -0.44149878824E+03  0.93859959653E+03  0.10390395928E+04  0.00000000000E+00 0. -1.
         -1    1    6    6    0  502 -0.66528626805E+01 -0.44781325230E+02  0.17088096869E+03  0.17677650616E+03  0.00000000000E+00 0.  1.
<mgrwt>
<rscale>  0 0.91739956E+03</rscale>
<asrwt>0</asrwt>
<pdfrwt beam="1">  1        1 0.38576191E+00 0.91739956E+03</pdfrwt>
<pdfrwt beam="2">  1       -2 0.62584711E-01 0.91739956E+03</pdfrwt>
<totfact> 0.28609426E+00</totfact>
</mgrwt>
</event>
<event>
12    3  0.2269558E-007  0.6294972E+03  0.7818608E-02  0.9846030E-01
         -2   -1    0    0    0  501 -0.00000000000E+00  0.00000000000E+00  0.58169341540E+03  0.58169341540E+03  0.00000000000E+00 0.  1.
          1   -1    0    0  501    0  0.00000000000E+00 -0.00000000000E+00 -0.76160013965E+03  0.76160013965E+03  0.00000000000E+00 0. -1.
        -24    2    1    2    0    0 -0.40788682885E+03 -0.26837536654E+03  0.12756871779E+03  0.51070503393E+03  0.78414612216E+02 0.  0.
    5000000    2    1    2    0    0  0.40788682885E+03  0.26837536654E+03 -0.30747544204E+03  0.83258852112E+03  0.60022120549E+03 0.  0.
        -24    2    4    4    0    0  0.42732295513E+03 -0.53972907222E+02 -0.20820709455E+03  0.48496732421E+03  0.79530677341E+02 0.  0.
         24    2    4    4    0    0 -0.19436126281E+02  0.32234827376E+03 -0.99268347491E+02  0.34762119690E+03  0.81854255371E+02 0.  0.
         11    1    5    5    0    0  0.37456745005E+02 -0.27344169891E+02 -0.13083709626E+02  0.48186043944E+02  0.00000000000E+00 0. -1.
        -12    1    5    5    0    0  0.38986621013E+03 -0.26628737331E+02 -0.19512338492E+03  0.43678128027E+03  0.00000000000E+00 0.  1.
         13    1    3    3    0    0 -0.12594859113E+03 -0.11400882635E+03  0.71966091851E+02  0.18449980615E+03  0.00000000000E+00 0. -1.
        -14    1    3    3    0    0 -0.28193823772E+03 -0.15436654018E+03  0.55602625936E+02  0.32620522778E+03  0.00000000000E+00 0.  1.
          2    1    6    6  502    0 -0.27417013727E+02  0.42569168246E+02  0.35228020029E-01  0.50634256862E+02  0.00000000000E+00 0. -1.
         -1    1    6    6    0  502  0.79808874459E+01  0.27977910551E+03 -0.99303575511E+02  0.29698694004E+03  0.00000000000E+00 0.  1.
<mgrwt>
<rscale>  0 0.62949719E+03</rscale>
<asrwt>0</asrwt>
<pdfrwt beam="1">  1        1 0.11716925E+00 0.62949719E+03</pdfrwt>
<pdfrwt beam="2">  1       -2 0.89491294E-01 0.62949719E+03</pdfrwt>
<totfact> 0.23170098E+01</totfact>
</mgrwt>
</event>
<event>
12    3  0.2269558E-007  0.9697566E+03  0.7818608E-02  0.9342352E-01
          1   -1    0    0  501    0  0.00000000000E+00  0.00000000000E+00  0.82257678360E+03  0.82257678360E+03  0.00000000000E+00 0. -1.
         -2   -1    0    0    0  501 -0.00000000000E+00 -0.00000000000E+00 -0.13183313304E+04  0.13183313304E+04  0.00000000000E+00 0.  1.
        -24    2    1    2    0    0  0.87829713419E+03  0.10395958462E+03 -0.59282304859E+03  0.10677470163E+04  0.80193968672E+02 0.  0.
    5000000    2    1    2    0    0 -0.87829713419E+03 -0.10395958462E+03  0.97068501811E+02  0.10731610977E+04  0.60003249618E+03 0.  0.
        -24    2    4    4    0    0 -0.80302957774E+03  0.11089815882E+03  0.48937451919E+01  0.81473000481E+03  0.81278088252E+02 0.  0.
         24    2    4    4    0    0 -0.75267556447E+02 -0.21485774344E+03  0.92174756620E+02  0.25843109292E+03  0.80382765928E+02 0.  0.
         11    1    5    5    0    0 -0.31492963960E+03  0.66046966174E+02  0.34830411272E+02  0.32366037321E+03  0.00000000000E+00 0. -1.
        -12    1    5    5    0    0 -0.48809993814E+03  0.44851192651E+02 -0.29936666080E+02  0.49106963159E+03  0.00000000000E+00 0.  1.
         13    1    3    3    0    0  0.54811968967E+03  0.37598475225E+02 -0.40084029433E+03  0.68008953903E+03  0.00000000000E+00 0. -1.
        -14    1    3    3    0    0  0.33017744452E+03  0.66361109395E+02 -0.19198275427E+03  0.38765747723E+03  0.00000000000E+00 0.  1.
          4    1    6    6  502    0 -0.78648681404E+02 -0.10356239125E+03  0.52169225556E+02  0.14011570955E+03  0.00000000000E+00 0. -1.
         -3    1    6    6    0  502  0.33811249566E+01 -0.11129535219E+03  0.40005531064E+02  0.11831538337E+03  0.00000000000E+00 0.  1.
<mgrwt>
<rscale>  0 0.96975661E+03</rscale>
<asrwt>0</asrwt>
<pdfrwt beam="1">  1        1 0.12655027E+00 0.96975661E+03</pdfrwt>
<pdfrwt beam="2">  1       -2 0.20282020E+00 0.96975661E+03</pdfrwt>
<totfact> 0.23620944E+00</totfact>
</mgrwt>
</event>
<event>
12    3  0.2269558E-007  0.5469409E+03  0.7818608E-02  0.1002204E+00
          3   -1    0    0  501    0  0.00000000000E+00  0.00000000000E+00  0.72576651482E+03  0.72576651482E+03  0.00000000000E+00 0. -1.
         -4   -1    0    0    0  501 -0.00000000000E+00 -0.00000000000E+00 -0.10189644909E+04  0.10189644909E+04  0.00000000000E+00 0.  1.
        -24    2    1    2    0    0  0.28991877668E+03 -0.42252872079E+03 -0.68851621179E+03  0.86211060259E+03  0.81220072828E+02 0.  0.
    5000000    2    1    2    0    0 -0.28991877668E+03  0.42252872079E+03  0.39531823571E+03  0.88262040314E+03  0.60013236172E+03 0.  0.
        -24    2    4    4    0    0 -0.19958858641E+03  0.41008031023E+03  0.53017803444E+03  0.70134565695E+03  0.52872655103E+02 0.  0.
         24    2    4    4    0    0 -0.90330190271E+02  0.12448410555E+02 -0.13485979873E+03  0.18127474619E+03  0.79742473572E+02 0.  0.
         11    1    3    3    0    0  0.12632601517E+03 -0.25371249645E+03 -0.36111423739E+03  0.45905531846E+03  0.00000000000E+00 0. -1.
        -12    1    3    3    0    0  0.16359276151E+03 -0.16881622434E+03 -0.32740197440E+03  0.40305528413E+03  0.00000000000E+00 0.  1.
         11    1    5    5    0    0 -0.14786984092E+03  0.29969431513E+03  0.35114786985E+03  0.48475457591E+03  0.00000000000E+00 0. -1.
        -12    1    5    5    0    0 -0.51718745492E+02  0.11038599511E+03  0.17903016459E+03  0.21659108104E+03  0.00000000000E+00 0.  1.
          2    1    6    6  502    0 -0.87373592337E+02  0.36766789207E+02 -0.93142410125E+02  0.13289638818E+03  0.00000000000E+00 0. -1.
         -1    1    6    6    0  502 -0.29565979335E+01 -0.24318378652E+02 -0.41717388606E+02  0.48378358009E+02  0.00000000000E+00 0.  1.
<mgrwt>
<rscale>  0 0.54694089E+03</rscale>
<asrwt>0</asrwt>
<pdfrwt beam="1">  1        3 0.11165639E+00 0.54694089E+03</pdfrwt>
<pdfrwt beam="2">  1       -4 0.15676377E+00 0.54694089E+03</pdfrwt>
<totfact> 0.40528908E-01</totfact>
</mgrwt>
</event>
<event>
12    3  0.2269558E-007  0.4669402E+03  0.7818608E-02  0.1022787E+00
          1   -1    0    0  501    0  0.00000000000E+00  0.00000000000E+00  0.41239260380E+04  0.41239260380E+04  0.00000000000E+00 0. -1.
         -2   -1    0    0    0  501 -0.00000000000E+00 -0.00000000000E+00 -0.59022528772E+02  0.59022528772E+02  0.00000000000E+00 0.  1.
        -24    2    1    2    0    0 -0.24919243877E+03  0.16306288468E+03  0.10388099641E+04  0.10835852877E+04  0.79652736611E+02 0.  0.
    5000000    2    1    2    0    0  0.24919243877E+03 -0.16306288468E+03  0.30260935452E+04  0.30993632790E+04  0.60010350398E+03 0.  0.
        -24    2    4    4    0    0  0.36952508200E+03  0.59887912980E+02  0.21588999236E+04  0.21926220293E+04  0.81284285729E+02 0.  0.
         24    2    4    4    0    0 -0.12033264323E+03 -0.22295079766E+03  0.86719362156E+03  0.90674124969E+03  0.77252271232E+02 0.  0.
         11    1    3    3    0    0 -0.22933840411E+03  0.13501760596E+03  0.82032081365E+03  0.86241063006E+03  0.00000000000E+00 0. -1.
        -12    1    3    3    0    0 -0.19854034650E+02  0.28045278726E+02  0.21848915040E+03  0.22117465767E+03  0.00000000000E+00 0.  1.
         13    1    5    5    0    0  0.28631614670E+03  0.73791606999E+02  0.17850588759E+04  0.18093803711E+04  0.00000000000E+00 0. -1.
        -14    1    5    5    0    0  0.83208935298E+02 -0.13903694019E+02  0.37384104773E+03  0.38324165821E+03  0.00000000000E+00 0.  1.
          4    1    6    6  502    0 -0.77471730916E+02 -0.14279022752E+03  0.67294829934E+03  0.69227908516E+03  0.00000000000E+00 0. -1.
         -3    1    6    6    0  502 -0.42860912318E+02 -0.80160570147E+02  0.19424532222E+03  0.21446216453E+03  0.00000000000E+00 0.  1.
<mgrwt>
<rscale>  0 0.46694021E+03</rscale>
<asrwt>0</asrwt>
<pdfrwt beam="1">  1        1 0.63444993E+00 0.46694021E+03</pdfrwt>
<pdfrwt beam="2">  1       -2 0.90803923E-02 0.46694021E+03</pdfrwt>
<totfact> 0.61864551E+00</totfact>
</mgrwt>
</event>
<event>
12    3  0.2269558E-007  0.1207737E+04  0.7818608E-02  0.9106111E-01
          1   -1    0    0  501    0  0.00000000000E+00  0.00000000000E+00  0.15120472771E+04  0.15120472771E+04  0.00000000000E+00 0. -1.
         -2   -1    0    0    0  501 -0.00000000000E+00 -0.00000000000E+00 -0.97941050422E+03  0.97941050422E+03  0.00000000000E+00 0.  1.
        -24    2    1    2    0    0 -0.11028668543E+04  0.27286888230E+03  0.13773411197E+03  0.11470778405E+04  0.77744204392E+02 0.  0.
    5000000    2    1    2    0    0  0.11028668543E+04 -0.27286888230E+03  0.39490266092E+03  0.13443799408E+04  0.60053025609E+03 0.  0.
        -24    2    4    4    0    0  0.37361534737E+03 -0.38817424790E+03  0.15709503471E+03  0.56555913819E+03  0.70075775690E+02 0.  0.
         24    2    4    4    0    0  0.72925150692E+03  0.11530536560E+03  0.23780762621E+03  0.77882080263E+03  0.70044898826E+02 0.  0.
         11    1    5    5    0    0  0.17277163922E+03 -0.14444186706E+03  0.39959420787E+02  0.22871433621E+03  0.00000000000E+00 0. -1.
        -12    1    5    5    0    0  0.20084370816E+03 -0.24373238084E+03  0.11713561392E+03  0.33684480198E+03  0.00000000000E+00 0.  1.
         13    1    3    3    0    0 -0.51813520571E+03  0.12500606749E+03  0.10359186626E+03  0.54297502987E+03  0.00000000000E+00 0. -1.
        -14    1    3    3    0    0 -0.58473164858E+03  0.14786281481E+03  0.34142245707E+02  0.60410281062E+03  0.00000000000E+00 0.  1.
          4    1    6    6  502    0  0.51289745300E+03  0.82382563390E+02  0.13329258211E+03  0.53629991282E+03  0.00000000000E+00 0. -1.
         -3    1    6    6    0  502  0.21635405392E+03  0.32922802212E+02  0.10451504410E+03  0.24252088981E+03  0.00000000000E+00 0.  1.
<mgrwt>
<rscale>  0 0.12077369E+04</rscale>
<asrwt>0</asrwt>
<pdfrwt beam="1">  1        1 0.23262266E+00 0.12077369E+04</pdfrwt>
<pdfrwt beam="2">  1       -2 0.15067854E+00 0.12077369E+04</pdfrwt>
<totfact> 0.16246169E+00</totfact>
</mgrwt>
</event>
<event>
12    3  0.2269558E-007  0.1039502E+04  0.7818608E-02  0.9266250E-01
         -4   -1    0    0    0  501 -0.00000000000E+00  0.00000000000E+00  0.34481884542E+03  0.34481884542E+03  0.00000000000E+00 0.  1.
          1   -1    0    0  501    0  0.00000000000E+00 -0.00000000000E+00 -0.38142476550E+04  0.38142476550E+04  0.00000000000E+00 0. -1.
        -24    2    1    2    0    0  0.96744316042E+03 -0.31385689358E+03 -0.10343337602E+04  0.14527649585E+04  0.78913110036E+02 0.  0.
    5000000    2    1    2    0    0 -0.96744316042E+03  0.31385689358E+03 -0.24350950494E+04  0.27063015419E+04  0.59993976189E+03 0.  0.
        -24    2    4    4    0    0 -0.69149827783E+03  0.35550361426E+03 -0.11613890064E+04  0.13998346271E+04  0.78484844853E+02 0.  0.
         24    2    4    4    0    0 -0.27594488259E+03 -0.41646720677E+02 -0.12737060429E+04  0.13064669148E+04  0.81539488330E+02 0.  0.
         11    1    3    3    0    0  0.56558540431E+03 -0.19659303125E+03 -0.55587680153E+03  0.81702796034E+03  0.00000000000E+00 0. -1.
        -12    1    3    3    0    0  0.40185775611E+03 -0.11726386233E+03 -0.47845695870E+03  0.63573699820E+03  0.00000000000E+00 0.  1.
         11    1    5    5    0    0 -0.21821093521E+03  0.76228838091E+02 -0.31547386103E+03  0.39108899882E+03  0.00000000000E+00 0. -1.
        -12    1    5    5    0    0 -0.47328734263E+03  0.27927477617E+03 -0.84591514540E+03  0.10087456282E+04  0.00000000000E+00 0.  1.
          2    1    6    6  502    0 -0.22128234897E+03 -0.46266507649E+02 -0.11352363301E+04  0.11575266705E+04  0.00000000000E+00 0. -1.
         -3    1    6    6    0  502 -0.54662533621E+02  0.46197869720E+01 -0.13846971285E+03  0.14894024436E+03  0.00000000000E+00 0.  1.
<mgrwt>
<rscale>  0 0.10395020E+04</rscale>
<asrwt>0</asrwt>
<pdfrwt beam="1">  1        1 0.58680730E+00 0.10395020E+04</pdfrwt>
<pdfrwt beam="2">  1       -4 0.53049056E-01 0.10395020E+04</pdfrwt>
<totfact> 0.23882911E-01</totfact>
</mgrwt>
</event>
<event>
12    3  0.2269558E-007  0.1060782E+04  0.7818608E-02  0.9244283E-01
         -2   -1    0    0    0  501 -0.00000000000E+00  0.00000000000E+00  0.13537431701E+04  0.13537431701E+04  0.00000000000E+00 0.  1.
          1   -1    0    0  501    0  0.00000000000E+00 -0.00000000000E+00 -0.87812651451E+03  0.87812651451E+03  0.00000000000E+00 0. -1.
        -24    2    1    2    0    0 -0.94009121752E+03 -0.32130827499E+03  0.38290869803E+03  0.10675440004E+04  0.77592634371E+02 0.  0.
    5000000    2    1    2    0    0  0.94009121752E+03  0.32130827499E+03  0.92707957598E+02  0.11643256843E+04  0.60004085594E+03 0.  0.
        -24    2    4    4    0    0  0.45930320545E+03  0.42241730942E+03 -0.86971780747E+02  0.63500776501E+03  0.79214601827E+02 0.  0.
         24    2    4    4    0    0  0.48078801206E+03 -0.10110903443E+03  0.17967973834E+03  0.52931791925E+03  0.80700073585E+02 0.  0.
         11    1    3    3    0    0 -0.59223820881E+03 -0.23869385282E+03  0.26081297576E+03  0.68974216899E+03  0.00000000000E+00 0. -1.
        -12    1    3    3    0    0 -0.34785300870E+03 -0.82614422173E+02  0.12209572227E+03  0.37780183140E+03  0.00000000000E+00 0.  1.
         13    1    5    5    0    0  0.20618758972E+03  0.24183290611E+03 -0.53649475373E+02  0.32229604844E+03  0.00000000000E+00 0. -1.
        -14    1    5    5    0    0  0.25311561573E+03  0.18058440331E+03 -0.33322305374E+02  0.31271171657E+03  0.00000000000E+00 0.  1.
          4    1    6    6  502    0  0.33202128060E+03 -0.34608259901E+02  0.13722531400E+03  0.36092471407E+03  0.00000000000E+00 0. -1.
         -3    1    6    6    0  502  0.14876673147E+03 -0.66500774527E+02  0.42454424347E+02  0.16839320518E+03  0.00000000000E+00 0.  1.
<mgrwt>
<rscale>  0 0.10607817E+04</rscale>
<asrwt>0</asrwt>
<pdfrwt beam="1">  1        1 0.13509639E+00 0.10607817E+04</pdfrwt>
<pdfrwt beam="2">  1       -2 0.20826818E+00 0.10607817E+04</pdfrwt>
<totfact> 0.19350917E+00</totfact>
</mgrwt>
</event>
<event>
12    3  0.2269558E-007  0.5363651E+03  0.7818608E-02  0.1004700E+00
          1   -1    0    0  501    0  0.00000000000E+00  0.00000000000E+00  0.13343164435E+04  0.13343164435E+04  0.00000000000E+00 0. -1.
         -2   -1    0    0    0  501 -0.00000000000E+00 -0.00000000000E+00 -0.28666760935E+03  0.28666760935E+03  0.00000000000E+00 0.  1.
        -24    2    1    2    0    0  0.23652265607E+03  0.38364190658E+03  0.23270407518E+03  0.51318648151E+03  0.78007043833E+02 0.  0.
    5000000    2    1    2    0    0 -0.23652265607E+03 -0.38364190658E+03  0.81494475901E+03  0.11077975714E+04  0.59996368188E+03 0.  0.
        -24    2    4    4    0    0 -0.74978371899E+01  0.74840556964E+02  0.47476372383E+03  0.48757632541E+03  0.81686921224E+02 0.  0.
         24    2    4    4    0    0 -0.22902481888E+03 -0.45848246354E+03  0.34018103518E+03  0.62022124596E+03  0.79326667707E+02 0.  0.
         11    1    5    5    0    0  0.29553543293E+02  0.56126469765E+02  0.35979317267E+03  0.36534192153E+03  0.00000000000E+00 0. -1.
        -12    1    5    5    0    0 -0.37051380483E+02  0.18714087200E+02  0.11497055117E+03  0.12223440388E+03  0.00000000000E+00 0.  1.
         11    1    3    3    0    0  0.11543046609E+03  0.20044056554E+03  0.16233513506E+03  0.28258327780E+03  0.00000000000E+00 0. -1.
        -12    1    3    3    0    0  0.12109218998E+03  0.18320134103E+03  0.70368940123E+02  0.23060320371E+03  0.00000000000E+00 0.  1.
          4    1    6    6  502    0 -0.16781165301E+02 -0.90808214198E+02  0.42109400173E+02  0.10149355082E+03  0.00000000000E+00 0. -1.
         -3    1    6    6    0  502 -0.21224365358E+03 -0.36767424934E+03  0.29807163501E+03  0.51872769514E+03  0.00000000000E+00 0.  1.
<mgrwt>
<rscale>  0 0.53636511E+03</rscale>
<asrwt>0</asrwt>
<pdfrwt beam="1">  1        1 0.20527945E+00 0.53636511E+03</pdfrwt>
<pdfrwt beam="2">  1       -2 0.44102710E-01 0.53636511E+03</pdfrwt>
<totfact> 0.38510640E+01</totfact>
</mgrwt>
</event>
<event>
12    3  0.2269558E-007  0.1065597E+04  0.7818608E-02  0.9239387E-01
          1   -1    0    0  501    0  0.00000000000E+00  0.00000000000E+00  0.15876230872E+04  0.15876230872E+04  0.00000000000E+00 0. -1.
         -2   -1    0    0    0  501 -0.00000000000E+00 -0.00000000000E+00 -0.13971745352E+04  0.13971745352E+04  0.00000000000E+00 0.  1.
        -24    2    1    2    0    0 -0.19708782952E+03 -0.10399981039E+04  0.10515599639E+04  0.14941672137E+04  0.79483559885E+02 0.  0.
    5000000    2    1    2    0    0  0.19708782952E+03  0.10399981039E+04 -0.86111141186E+03  0.14906304087E+04  0.60002206881E+03 0.  0.
        -24    2    4    4    0    0  0.90778478630E+02  0.18584347090E+03  0.56830008042E+02  0.22942566915E+03  0.81412284035E+02 0.  0.
         24    2    4    4    0    0  0.10630935089E+03  0.85415463302E+03 -0.91794141991E+03  0.12612047396E+04  0.84493369831E+02 0.  0.
         11    1    3    3    0    0 -0.60886882104E+02 -0.17561124763E+03  0.16598070329E+03  0.24919092394E+03  0.00000000000E+00 0. -1.
        -12    1    3    3    0    0 -0.13620094741E+03 -0.86438685628E+03  0.88557926056E+03  0.12449762898E+04  0.00000000000E+00 0.  1.
         13    1    5    5    0    0  0.20459381568E+02  0.75872709660E+02  0.59978271678E+02  0.98856701537E+02  0.00000000000E+00 0. -1.
        -14    1    5    5    0    0  0.70319097062E+02  0.10997076124E+03 -0.31482636356E+01  0.13056896761E+03  0.00000000000E+00 0.  1.
          2    1    6    6  502    0  0.41772921872E+02  0.44407546987E+03 -0.41691701045E+03  0.61054712640E+03  0.00000000000E+00 0. -1.
         -1    1    6    6    0  502  0.64536429015E+02  0.41007916314E+03 -0.50102440945E+03  0.65065761317E+03  0.00000000000E+00 0.  1.
<mgrwt>
<rscale>  0 0.10655973E+04</rscale>
<asrwt>0</asrwt>
<pdfrwt beam="1">  1        1 0.24424970E+00 0.10655973E+04</pdfrwt>
<pdfrwt beam="2">  1       -2 0.21494993E+00 0.10655973E+04</pdfrwt>
<totfact> 0.52672429E-01</totfact>
</mgrwt>
</event>
<event>
12    3  0.2269558E-007  0.7524380E+03  0.7818608E-02  0.9631533E-01
          1   -1    0    0  501    0  0.00000000000E+00  0.00000000000E+00  0.18418295727E+04  0.18418295727E+04  0.00000000000E+00 0. -1.
         -2   -1    0    0    0  501 -0.00000000000E+00 -0.00000000000E+00 -0.37565834103E+03  0.37565834103E+03  0.00000000000E+00 0.  1.
        -24    2    1    2    0    0 -0.48172854599E+03 -0.47530312304E+03  0.30721015933E+03  0.74741233635E+03  0.79193861753E+02 0.  0.
    5000000    2    1    2    0    0  0.48172854599E+03  0.47530312304E+03  0.11589610723E+04  0.14700755773E+04  0.59996331989E+03 0.  0.
        -24    2    4    4    0    0 -0.55509388441E+02 -0.37895884857E+02  0.36792482368E+03  0.38216029356E+03  0.78488367284E+02 0.  0.
         24    2    4    4    0    0  0.53723793443E+03  0.51319900790E+03  0.79103624862E+03  0.10879152838E+04  0.76311848192E+02 0.  0.
         11    1    3    3    0    0 -0.38130583651E+03 -0.38578413627E+03  0.27894161106E+03  0.60994422953E+03  0.00000000000E+00 0. -1.
        -12    1    3    3    0    0 -0.10042270948E+03 -0.89518986767E+02  0.28268548268E+02  0.13746810682E+03  0.00000000000E+00 0.  1.
         11    1    5    5    0    0 -0.63940873219E+02 -0.25862559393E+02  0.35762756355E+03  0.36421804110E+03  0.00000000000E+00 0. -1.
        -12    1    5    5    0    0  0.84314847781E+01 -0.12033325464E+02  0.10297260123E+02  0.17942252459E+02  0.00000000000E+00 0.  1.
          2    1    6    6  502    0  0.28511221569E+02  0.42484349067E+02  0.80032756542E+02  0.94989745713E+02  0.00000000000E+00 0. -1.
         -1    1    6    6    0  502  0.50872671286E+03  0.47071465883E+03  0.71100349208E+03  0.99292553808E+03  0.00000000000E+00 0.  1.
<mgrwt>
<rscale>  0 0.75243798E+03</rscale>
<asrwt>0</asrwt>
<pdfrwt beam="1">  1        1 0.28335839E+00 0.75243798E+03</pdfrwt>
<pdfrwt beam="2">  1       -2 0.57793592E-01 0.75243798E+03</pdfrwt>
<totfact> 0.97483244E+00</totfact>
</mgrwt>
</event>
<event>
12    3  0.2269558E-007  0.3801016E+03  0.7818608E-02  0.1050896E+00
         -2   -1    0    0    0  501 -0.00000000000E+00  0.00000000000E+00  0.18724933344E+03  0.18724933344E+03  0.00000000000E+00 0.  1.
          1   -1    0    0  501    0  0.00000000000E+00 -0.00000000000E+00 -0.11003533783E+04  0.11003533783E+04  0.00000000000E+00 0. -1.
        -24    2    1    2    0    0  0.23860794393E+03 -0.37437511282E+02 -0.19000961302E+03  0.31743807086E+03  0.79548460922E+02 0.  0.
    5000000    2    1    2    0    0 -0.23860794393E+03  0.37437511282E+02 -0.72309443180E+03  0.97016464082E+03  0.60001546217E+03 0.  0.
        -24    2    4    4    0    0  0.96698088456E+02 -0.10298041068E+03 -0.52287444291E+03  0.54741009815E+03  0.79401808644E+02 0.  0.
         24    2    4    4    0    0 -0.33530603239E+03  0.14041792196E+03 -0.20021998889E+03  0.42275454267E+03  0.80535900289E+02 0.  0.
         11    1    3    3    0    0  0.11788760118E+03 -0.20617896767E+02 -0.14380125991E+03  0.18708657496E+03  0.00000000000E+00 0. -1.
        -12    1    3    3    0    0  0.12072034276E+03 -0.16819614515E+02 -0.46208353111E+02  0.13035149591E+03  0.00000000000E+00 0.  1.
         11    1    5    5    0    0  0.10245104845E+03 -0.80991650761E+02 -0.35998667380E+03  0.38294421282E+03  0.00000000000E+00 0. -1.
        -12    1    5    5    0    0 -0.57529599926E+01 -0.21988759916E+02 -0.16288776911E+03  0.16446588533E+03  0.00000000000E+00 0.  1.
          4    1    6    6  502    0 -0.11127354849E+03  0.65317372498E+02 -0.32688829814E+02  0.13310417476E+03  0.00000000000E+00 0. -1.
         -3    1    6    6    0  502 -0.22403248390E+03  0.75100549461E+02 -0.16753115908E+03  0.28965036792E+03  0.00000000000E+00 0.  1.
<mgrwt>
<rscale>  0 0.38010163E+03</rscale>
<asrwt>0</asrwt>
<pdfrwt beam="1">  1        1 0.16928513E+00 0.38010163E+03</pdfrwt>
<pdfrwt beam="2">  1       -2 0.28807590E-01 0.38010163E+03</pdfrwt>
<totfact> 0.12955722E+02</totfact>
</mgrwt>
</event>
<event>
12    3  0.2269558E-007  0.1110812E+04  0.7818608E-02  0.9194717E-01
         -4   -1    0    0    0  501 -0.00000000000E+00  0.00000000000E+00  0.58915008506E+03  0.58915008506E+03  0.00000000000E+00 0.  1.
          1   -1    0    0  501    0  0.00000000000E+00 -0.00000000000E+00 -0.26647011642E+04  0.26647011642E+04  0.00000000000E+00 0. -1.
        -24    2    1    2    0    0  0.63471451906E+03 -0.87281469113E+03 -0.15982278812E+04  0.19301017243E+04  0.79324020083E+02 0.  0.
    5000000    2    1    2    0    0 -0.63471451906E+03  0.87281469113E+03 -0.47732319796E+03  0.13237495250E+04  0.59983944836E+03 0.  0.
        -24    2    4    4    0    0  0.10833710982E+02  0.16113549521E+03  0.94222082868E+02  0.20290563442E+03  0.78809126825E+02 0.  0.
         24    2    4    4    0    0 -0.64554823004E+03  0.71167919592E+03 -0.57154528083E+03  0.11208438906E+04  0.80045135637E+02 0.  0.
         11    1    5    5    0    0 -0.33038452350E+02  0.47219937140E+02  0.30136240167E+02  0.65034258423E+02  0.00000000000E+00 0. -1.
        -12    1    5    5    0    0  0.43872163332E+02  0.11391555807E+03  0.64085842701E+02  0.13787137600E+03  0.00000000000E+00 0.  1.
         11    1    3    3    0    0  0.34437903377E+03 -0.47911464291E+03 -0.94359429374E+03  0.11128872140E+04  0.00000000000E+00 0. -1.
        -12    1    3    3    0    0  0.29033548529E+03 -0.39370004822E+03 -0.65463358742E+03  0.81721451026E+03  0.00000000000E+00 0.  1.
          4    1    6    6  502    0 -0.25484916603E+03  0.32503198045E+03 -0.27592794615E+03  0.49671935458E+03  0.00000000000E+00 0. -1.
         -3    1    6    6    0  502 -0.39069906401E+03  0.38664721547E+03 -0.29561733468E+03  0.62412453598E+03  0.00000000000E+00 0.  1.
<mgrwt>
<rscale>  0 0.11108122E+04</rscale>
<asrwt>0</asrwt>
<pdfrwt beam="1">  1        1 0.40995402E+00 0.11108122E+04</pdfrwt>
<pdfrwt beam="2">  1       -4 0.90638476E-01 0.11108122E+04</pdfrwt>
<totfact> 0.52224259E-01</totfact>
</mgrwt>
</event>
<event>
12    3  0.2269558E-007  0.4737621E+03  0.7818608E-02  0.1020864E+00
          1   -1    0    0  501    0  0.00000000000E+00  0.00000000000E+00  0.14897250980E+04  0.14897250980E+04  0.00000000000E+00 0. -1.
         -2   -1    0    0    0  501 -0.00000000000E+00 -0.00000000000E+00 -0.31138106824E+03  0.31138106824E+03  0.00000000000E+00 0.  1.
        -24    2    1    2    0    0 -0.39923985168E+03  0.22469024873E+03  0.86816392733E+03  0.98501356530E+03  0.81639157619E+02 0.  0.
    5000000    2    1    2    0    0  0.39923985168E+03 -0.22469024873E+03  0.31018010240E+03  0.81609260092E+03  0.59993105463E+03 0.  0.
        -24    2    4    4    0    0  0.40508503368E+02 -0.83100983131E+02  0.39513125574E+03  0.41430509859E+03  0.83506246555E+02 0.  0.
         24    2    4    4    0    0  0.35873134831E+03 -0.14158926560E+03 -0.84951153341E+02  0.40178750233E+03  0.74032413048E+02 0.  0.
         13    1    5    5    0    0  0.19006200857E+02 -0.66238074865E+01  0.23186540482E+03  0.23273735508E+03  0.00000000000E+00 0. -1.
        -14    1    5    5    0    0  0.21502302510E+02 -0.76477175644E+02  0.16326585092E+03  0.18156774352E+03  0.00000000000E+00 0.  1.
         13    1    3    3    0    0 -0.46988198114E+02  0.15743890183E+02  0.51877280505E+02  0.71742686545E+02  0.00000000000E+00 0. -1.
        -14    1    3    3    0    0 -0.35225165356E+03  0.20894635855E+03  0.81628664683E+03  0.91327087875E+03  0.00000000000E+00 0.  1.
          2    1    6    6  502    0  0.40092876278E+02 -0.33870082928E+02 -0.31503934324E+02  0.61213716794E+02  0.00000000000E+00 0. -1.
         -1    1    6    6    0  502  0.31863847203E+03 -0.10771918268E+03 -0.53447219016E+02  0.34057378554E+03  0.00000000000E+00 0.  1.
<mgrwt>
<rscale>  0 0.47376215E+03</rscale>
<asrwt>0</asrwt>
<pdfrwt beam="1">  1        1 0.22918847E+00 0.47376215E+03</pdfrwt>
<pdfrwt beam="2">  1       -2 0.47904781E-01 0.47376215E+03</pdfrwt>
<totfact> 0.25828540E+01</totfact>
</mgrwt>
</event>
<event>
12    3  0.2269558E-007  0.3408149E+03  0.7818608E-02  0.1066449E+00
          1   -1    0    0  501    0  0.00000000000E+00  0.00000000000E+00  0.96404147692E+03  0.96404147692E+03  0.00000000000E+00 0. -1.
         -2   -1    0    0    0  501 -0.00000000000E+00 -0.00000000000E+00 -0.27693781810E+03  0.27693781810E+03  0.00000000000E+00 0.  1.
        -24    2    1    2    0    0 -0.19078380497E+03  0.79475566414E+02 -0.88805391791E+02  0.23859379660E+03  0.79534748809E+02 0.  0.
    5000000    2    1    2    0    0  0.19078380497E+03 -0.79475566414E+02  0.77590905061E+03  0.10023854984E+04  0.60002250520E+03 0.  0.
        -24    2    4    4    0    0 -0.47282497416E+02  0.11974789899E+03 -0.12129488690E+02  0.15157577142E+03  0.79075255997E+02 0.  0.
         24    2    4    4    0    0  0.23806630239E+03 -0.19922346540E+03  0.78803853930E+03  0.85080972701E+03  0.80665349830E+02 0.  0.
         13    1    5    5    0    0  0.21543089983E+02  0.42330197770E+02 -0.32473581986E+01  0.47607727362E+02  0.00000000000E+00 0. -1.
        -14    1    5    5    0    0 -0.68825587399E+02  0.77417701216E+02 -0.88821304913E+01  0.10396804405E+03  0.00000000000E+00 0.  1.
         13    1    3    3    0    0 -0.10727608047E+03  0.78180147019E+02 -0.29002711860E+02  0.13587291903E+03  0.00000000000E+00 0. -1.
        -14    1    3    3    0    0 -0.83507724498E+02  0.12954193949E+01 -0.59802679931E+02  0.10272087757E+03  0.00000000000E+00 0.  1.
          4    1    6    6  502    0  0.12372284615E+03 -0.71662670161E+02  0.27535579689E+03  0.31026391320E+03  0.00000000000E+00 0. -1.
         -1    1    6    6    0  502  0.11434345624E+03 -0.12756079524E+03  0.51268274241E+03  0.54054581381E+03  0.00000000000E+00 0.  1.
<mgrwt>
<rscale>  0 0.34081494E+03</rscale>
<asrwt>0</asrwt>
<pdfrwt beam="1">  1        1 0.14831407E+00 0.34081494E+03</pdfrwt>
<pdfrwt beam="2">  1       -2 0.42605819E-01 0.34081494E+03</pdfrwt>
<totfact> 0.78900082E+01</totfact>
</mgrwt>
</event>
<event>
12    3  0.2269558E-007  0.5932931E+03  0.7818608E-02  0.9919419E-01
         -2   -1    0    0    0  501 -0.00000000000E+00  0.00000000000E+00  0.31472299278E+03  0.31472299278E+03  0.00000000000E+00 0.  1.
          1   -1    0    0  501    0  0.00000000000E+00 -0.00000000000E+00 -0.11833512622E+04  0.11833512622E+04  0.00000000000E+00 0. -1.
        -24    2    1    2    0    0 -0.35352762846E+03  0.27718235187E+03 -0.21900344979E+03  0.50624695959E+03  0.80694688788E+02 0.  0.
    5000000    2    1    2    0    0  0.35352762846E+03 -0.27718235187E+03 -0.64962481960E+03  0.99182729535E+03  0.59991427495E+03 0.  0.
        -24    2    4    4    0    0  0.43870402980E+03 -0.76152179368E+01 -0.31272007022E+03  0.54501566239E+03  0.82030559147E+02 0.  0.
         24    2    4    4    0    0 -0.85176401332E+02 -0.26956713393E+03 -0.33690474938E+03  0.44681163296E+03  0.78831251107E+02 0.  0.
         11    1    3    3    0    0 -0.83942851550E+02  0.11268719557E+03 -0.62550191072E+02  0.15380940405E+03  0.00000000000E+00 0. -1.
        -12    1    3    3    0    0 -0.26958477691E+03  0.16449515630E+03 -0.15645325871E+03  0.35243755553E+03  0.00000000000E+00 0.  1.
         13    1    5    5    0    0  0.18069940363E+03 -0.23274135077E+02 -0.87203985307E+02  0.20198637303E+03  0.00000000000E+00 0. -1.
        -14    1    5    5    0    0  0.25800462617E+03  0.15658917141E+02 -0.22551608491E+03  0.34302928937E+03  0.00000000000E+00 0.  1.
          4    1    6    6  502    0 -0.36366529045E+02 -0.20733663607E+03 -0.21042613273E+03  0.29764099588E+03  0.00000000000E+00 0. -1.
         -3    1    6    6    0  502 -0.48809872287E+02 -0.62230497858E+02 -0.12647861665E+03  0.14917063707E+03  0.00000000000E+00 0.  1.
<mgrwt>
<rscale>  0 0.59329307E+03</rscale>
<asrwt>0</asrwt>
<pdfrwt beam="1">  1        1 0.18205404E+00 0.59329307E+03</pdfrwt>
<pdfrwt beam="2">  1       -2 0.48418922E-01 0.59329307E+03</pdfrwt>
<totfact> 0.40570527E+01</totfact>
</mgrwt>
</event>
<event>
12    3  0.2269558E-007  0.6850858E+03  0.7818608E-02  0.9743083E-01
         -2   -1    0    0    0  501 -0.00000000000E+00  0.00000000000E+00  0.28093286030E+03  0.28093286030E+03  0.00000000000E+00 0.  1.
          1   -1    0    0  501    0  0.00000000000E+00 -0.00000000000E+00 -0.19452679784E+04  0.19452679784E+04  0.00000000000E+00 0. -1.
        -24    2    1    2    0    0 -0.58420734132E+03  0.18716692025E+03 -0.73991959043E+03  0.96474090399E+03  0.83152497561E+02 0.  0.
    5000000    2    1    2    0    0  0.58420734132E+03 -0.18716692025E+03 -0.92441552766E+03  0.12614599347E+04  0.60033942513E+03 0.  0.
        -24    2    4    4    0    0  0.24038822027E+03  0.13805388567E+03 -0.64104631752E+03  0.70318492986E+03  0.81751407296E+02 0.  0.
         24    2    4    4    0    0  0.34381912106E+03 -0.32522080591E+03 -0.28336921014E+03  0.55827500483E+03  0.85980876692E+02 0.  0.
         11    1    3    3    0    0 -0.88336254117E+02  0.48759445812E+02 -0.86708371902E+02  0.13303803631E+03  0.00000000000E+00 0. -1.
        -12    1    3    3    0    0 -0.49587108721E+03  0.13840747443E+03 -0.65321121852E+03  0.83170286768E+03  0.00000000000E+00 0.  1.
         13    1    5    5    0    0  0.28613504177E+02  0.33282601274E+02 -0.17812076464E+03  0.18344882383E+03  0.00000000000E+00 0. -1.
        -14    1    5    5    0    0  0.21177471609E+03  0.10477128439E+03 -0.46292555287E+03  0.51973610603E+03  0.00000000000E+00 0.  1.
          4    1    6    6  502    0  0.10372860056E+03 -0.11821390106E+03 -0.51396635576E+02  0.16545622722E+03  0.00000000000E+00 0. -1.
         -3    1    6    6    0  502  0.24009052050E+03 -0.20700690485E+03 -0.23197257456E+03  0.39281877760E+03  0.00000000000E+00 0.  1.
<mgrwt>
<rscale>  0 0.68508577E+03</rscale>
<asrwt>0</asrwt>
<pdfrwt beam="1">  1        1 0.29927199E+00 0.68508577E+03</pdfrwt>
<pdfrwt beam="2">  1       -2 0.43220441E-01 0.68508577E+03</pdfrwt>
<totfact> 0.15167690E+01</totfact>
</mgrwt>
</event>
<event>
12    3  0.2269558E-007  0.5751123E+03  0.7818608E-02  0.9958429E-01
          1   -1    0    0  501    0  0.00000000000E+00  0.00000000000E+00  0.83085575308E+03  0.83085575308E+03  0.00000000000E+00 0. -1.
         -2   -1    0    0    0  501 -0.00000000000E+00 -0.00000000000E+00 -0.73622640428E+03  0.73622640428E+03  0.00000000000E+00 0.  1.
        -24    2    1    2    0    0  0.36037469849E+03  0.32953696311E+03 -0.41060550053E+03  0.64309342237E+03  0.80670561322E+02 0.  0.
    5000000    2    1    2    0    0 -0.36037469849E+03 -0.32953696311E+03  0.50523484933E+03  0.92398873500E+03  0.60002366291E+03 0.  0.
        -24    2    4    4    0    0 -0.35390700500E+03 -0.37910243940E+02  0.36980291873E+02  0.36662093350E+03  0.79724601671E+02 0.  0.
         24    2    4    4    0    0 -0.64676934905E+01 -0.29162671917E+03  0.46825455745E+03  0.55736780150E+03  0.79426451340E+02 0.  0.
         11    1    3    3    0    0  0.30816051826E+03  0.24929786792E+03 -0.30196546985E+03  0.49829256160E+03  0.00000000000E+00 0. -1.
        -12    1    3    3    0    0  0.52214180228E+02  0.80239095188E+02 -0.10864003068E+03  0.14480086077E+03  0.00000000000E+00 0.  1.
         11    1    5    5    0    0 -0.20195046827E+03 -0.64703839562E+01  0.57546278117E+02  0.21008910402E+03  0.00000000000E+00 0. -1.
        -12    1    5    5    0    0 -0.15195653673E+03 -0.31439859984E+02 -0.20565986244E+02  0.15653182948E+03  0.00000000000E+00 0.  1.
          2    1    6    6  502    0 -0.37965953617E+02 -0.20984435441E+03  0.35556421781E+03  0.41461063626E+03  0.00000000000E+00 0. -1.
         -1    1    6    6    0  502  0.31498260126E+02 -0.81782364767E+02  0.11269033964E+03  0.14275716524E+03  0.00000000000E+00 0.  1.
<mgrwt>
<rscale>  0 0.57511235E+03</rscale>
<asrwt>0</asrwt>
<pdfrwt beam="1">  1        1 0.12782396E+00 0.57511235E+03</pdfrwt>
<pdfrwt beam="2">  1       -2 0.11326560E+00 0.57511235E+03</pdfrwt>
<totfact> 0.11647202E+01</totfact>
</mgrwt>
</event>
<event>
12    3  0.2269558E-007  0.1020269E+04  0.7818608E-02  0.9286589E-01
          1   -1    0    0  501    0  0.00000000000E+00  0.00000000000E+00  0.11037217090E+04  0.11037217090E+04  0.00000000000E+00 0. -1.
         -2   -1    0    0    0  501 -0.00000000000E+00 -0.00000000000E+00 -0.10771233263E+04  0.10771233263E+04  0.00000000000E+00 0.  1.
        -24    2    1    2    0    0 -0.44001494273E+03 -0.88845269808E+03 -0.15858928349E+03  0.10072068500E+04  0.79710296201E+02 0.  0.
    5000000    2    1    2    0    0  0.44001494273E+03  0.88845269808E+03  0.18518766625E+03  0.11736381853E+04  0.60014229286E+03 0.  0.
        -24    2    4    4    0    0  0.32638640662E+02  0.43688326669E+03  0.31781184771E+03  0.54714945902E+03  0.80224001256E+02 0.  0.
         24    2    4    4    0    0  0.40737630207E+03  0.45156943139E+03 -0.13262418146E+03  0.62648872627E+03  0.70912254120E+02 0.  0.
         13    1    5    5    0    0  0.21560294952E+02  0.19471815920E+03  0.19082315729E+03  0.27348397613E+03  0.00000000000E+00 0. -1.
        -14    1    5    5    0    0  0.11078345710E+02  0.24216510749E+03  0.12698869042E+03  0.27366548289E+03  0.00000000000E+00 0.  1.
         13    1    3    3    0    0 -0.26099537630E+03 -0.47662635389E+03 -0.53605596964E+02  0.54604471218E+03  0.00000000000E+00 0. -1.
        -14    1    3    3    0    0 -0.17901956643E+03 -0.41182634419E+03 -0.10498368653E+03  0.46116213784E+03  0.00000000000E+00 0.  1.
          4    1    6    6  502    0  0.10601265869E+03  0.90051470962E+02 -0.54509785595E+02  0.14939634517E+03  0.00000000000E+00 0. -1.
         -1    1    6    6    0  502  0.30136364338E+03  0.36151796042E+03 -0.78114395864E+02  0.47709238110E+03  0.00000000000E+00 0.  1.
<mgrwt>
<rscale>  0 0.10202690E+04</rscale>
<asrwt>0</asrwt>
<pdfrwt beam="1">  1        1 0.16980334E+00 0.10202690E+04</pdfrwt>
<pdfrwt beam="2">  1       -2 0.16571128E+00 0.10202690E+04</pdfrwt>
<totfact> 0.25111798E+00</totfact>
</mgrwt>
</event>
<event>
12    3  0.2269558E-007  0.1084184E+04  0.7818608E-02  0.9220746E-01
         -4   -1    0    0    0  501 -0.00000000000E+00  0.00000000000E+00  0.35899639605E+03  0.35899639605E+03  0.00000000000E+00 0.  1.
          3   -1    0    0  501    0  0.00000000000E+00 -0.00000000000E+00 -0.33527603710E+04  0.33527603710E+04  0.00000000000E+00 0. -1.
        -24    2    1    2    0    0  0.56380038865E+03  0.83895256488E+03 -0.15094010272E+04  0.18183747840E+04  0.80517761211E+02 0.  0.
    5000000    2    1    2    0    0 -0.56380038865E+03 -0.83895256488E+03 -0.14843629477E+04  0.18933819830E+04  0.59987472747E+03 0.  0.
        -24    2    4    4    0    0 -0.60052157472E+03 -0.41683975900E+03 -0.10308035292E+04  0.12676907063E+04  0.10051002254E+03 0.  0.
         24    2    4    4    0    0  0.36721186071E+02 -0.42211280588E+03 -0.45355941850E+03  0.62569127669E+03  0.79030128606E+02 0.  0.
         11    1    5    5    0    0 -0.15315633977E+03 -0.10438885361E+03 -0.19076887680E+03  0.26598244590E+03  0.00000000000E+00 0. -1.
        -12    1    5    5    0    0 -0.44736523496E+03 -0.31245090539E+03 -0.84003465243E+03  0.10017082604E+04  0.00000000000E+00 0.  1.
         11    1    3    3    0    0  0.36998166711E+03  0.53225381565E+03 -0.89968263815E+03  0.11088775440E+04  0.00000000000E+00 0. -1.
        -12    1    3    3    0    0  0.19381872154E+03  0.30669874923E+03 -0.60971838903E+03  0.70949723997E+03  0.00000000000E+00 0.  1.
          2    1    6    6  502    0 -0.11220150576E+02 -0.10658544637E+03 -0.15654327078E+03  0.18971595817E+03  0.00000000000E+00 0. -1.
         -1    1    6    6    0  502  0.47941336647E+02 -0.31552735951E+03 -0.29701614772E+03  0.43597531852E+03  0.00000000000E+00 0.  1.
<mgrwt>
<rscale>  0 0.10841839E+04</rscale>
<asrwt>0</asrwt>
<pdfrwt beam="1">  1        3 0.51580928E+00 0.10841839E+04</pdfrwt>
<pdfrwt beam="2">  1       -4 0.55230215E-01 0.10841839E+04</pdfrwt>
<totfact> 0.20380302E-02</totfact>
</mgrwt>
</event>
<event>
12    3  0.2269558E-007  0.1300620E+04  0.7818608E-02  0.9029074E-01
          1   -1    0    0  501    0  0.00000000000E+00  0.00000000000E+00  0.27740133965E+04  0.27740133965E+04  0.00000000000E+00 0. -1.
         -2   -1    0    0    0  501 -0.00000000000E+00 -0.00000000000E+00 -0.70940229393E+03  0.70940229393E+03  0.00000000000E+00 0.  1.
        -24    2    1    2    0    0  0.11623410826E+04 -0.43471025075E+03  0.16050724148E+04  0.20304735909E+04  0.80967599725E+02 0.  0.
    5000000    2    1    2    0    0 -0.11623410826E+04  0.43471025075E+03  0.45953868776E+03  0.14529420995E+04  0.59987927513E+03 0.  0.
        -24    2    4    4    0    0 -0.11897691845E+04  0.45512949628E+03  0.47920678094E+03  0.13633867239E+04  0.80564566473E+02 0.  0.
         24    2    4    4    0    0  0.27428101922E+02 -0.20419245528E+02 -0.19668093182E+02  0.89555375598E+02  0.80399533867E+02 0.  0.
         13    1    5    5    0    0 -0.13829961068E+03  0.79400360531E+02  0.49588864851E+02  0.16700375769E+03  0.00000000000E+00 0. -1.
        -14    1    5    5    0    0 -0.10514695738E+04  0.37572913575E+03  0.42961791609E+03  0.11963829662E+04  0.00000000000E+00 0.  1.
         13    1    3    3    0    0  0.82074225479E+03 -0.32287543611E+03  0.11939526283E+04  0.14843817820E+04  0.00000000000E+00 0. -1.
        -14    1    3    3    0    0  0.34159882777E+03 -0.11183481464E+03  0.41111978645E+03  0.54609180887E+03  0.00000000000E+00 0.  1.
          2    1    6    6  502    0  0.34758738358E+02  0.21731389536E+02  0.30649931438E+01  0.41107388222E+02  0.00000000000E+00 0. -1.
         -3    1    6    6    0  502 -0.73306364360E+01 -0.42150635064E+02 -0.22733086326E+02  0.48447987376E+02  0.00000000000E+00 0.  1.
<mgrwt>
<rscale>  0 0.13006196E+04</rscale>
<asrwt>0</asrwt>
<pdfrwt beam="1">  1        1 0.42677129E+00 0.13006196E+04</pdfrwt>
<pdfrwt beam="2">  1       -2 0.10913882E+00 0.13006196E+04</pdfrwt>
<totfact> 0.49877517E-01</totfact>
</mgrwt>
</event>
<event>
12    3  0.2269558E-007  0.7722679E+03  0.7818608E-02  0.9601049E-01
          1   -1    0    0  501    0  0.00000000000E+00  0.00000000000E+00  0.27293766580E+04  0.27293766580E+04  0.00000000000E+00 0. -1.
         -2   -1    0    0    0  501 -0.00000000000E+00 -0.00000000000E+00 -0.26510878425E+03  0.26510878425E+03  0.00000000000E+00 0.  1.
        -24    2    1    2    0    0 -0.62310701003E+03 -0.21892715682E+03  0.48455021639E+03  0.82295507037E+03  0.79212939044E+02 0.  0.
    5000000    2    1    2    0    0  0.62310701003E+03  0.21892715682E+03  0.19797176574E+04  0.21715303719E+04  0.60005891977E+03 0.  0.
        -24    2    4    4    0    0  0.98955578231E+02  0.32414553323E+03  0.87087162952E+03  0.93794110569E+03  0.80334235974E+02 0.  0.
         24    2    4    4    0    0  0.52415143180E+03 -0.10521837641E+03  0.11088460279E+04  0.12335892662E+04  0.79983335827E+02 0.  0.
         11    1    5    5    0    0  0.61342927758E+01  0.27615892128E+01  0.65705020927E+02  0.66048510186E+02  0.00000000000E+00 0. -1.
        -12    1    5    5    0    0  0.92821285455E+02  0.32138394402E+03  0.80516660859E+03  0.87189259551E+03  0.00000000000E+00 0.  1.
         13    1    3    3    0    0 -0.53988928044E+03 -0.16637652820E+03  0.43338911137E+03  0.71203069184E+03  0.00000000000E+00 0. -1.
        -14    1    3    3    0    0 -0.83217729590E+02 -0.52550628617E+02  0.51161105017E+02  0.11092437853E+03  0.00000000000E+00 0.  1.
          4    1    6    6  502    0  0.25378001740E+03 -0.89486274134E+02  0.58251884023E+03  0.64166992271E+03  0.00000000000E+00 0. -1.
         -3    1    6    6    0  502  0.27037141440E+03 -0.15732102277E+02  0.52632718764E+03  0.59191934351E+03  0.00000000000E+00 0.  1.
<mgrwt>
<rscale>  0 0.77226792E+03</rscale>
<asrwt>0</asrwt>
<pdfrwt beam="1">  1        1 0.41990408E+00 0.77226792E+03</pdfrwt>
<pdfrwt beam="2">  1       -2 0.40785969E-01 0.77226792E+03</pdfrwt>
<totfact> 0.49349333E+00</totfact>
</mgrwt>
</event>
<event>
12    3  0.2269558E-007  0.7265524E+03  0.7818608E-02  0.9672871E-01
         -2   -1    0    0    0  501 -0.00000000000E+00  0.00000000000E+00  0.89289855888E+03  0.89289855888E+03  0.00000000000E+00 0.  1.
          1   -1    0    0  501    0  0.00000000000E+00 -0.00000000000E+00 -0.80907663257E+03  0.80907663257E+03  0.00000000000E+00 0. -1.
        -24    2    1    2    0    0  0.34867575027E+02  0.71926268411E+03  0.21514658843E+03  0.75558287366E+03  0.77864420064E+02 0.  0.
    5000000    2    1    2    0    0 -0.34867575027E+02 -0.71926268411E+03 -0.13132466212E+03  0.94639231779E+03  0.59988140140E+03 0.  0.
        -24    2    4    4    0    0 -0.23553070700E+02 -0.57344556219E+03  0.16969312545E+03  0.60388615552E+03  0.80549190358E+02 0.  0.
         24    2    4    4    0    0 -0.11314504327E+02 -0.14581712192E+03 -0.30101778757E+03  0.34250616227E+03  0.72856789018E+02 0.  0.
         11    1    5    5    0    0 -0.10801372111E+01 -0.40292690763E+03  0.15332992237E+03  0.43111637023E+03  0.00000000000E+00 0. -1.
        -12    1    5    5    0    0 -0.22472933489E+02 -0.17051865456E+03  0.16363203078E+02  0.17276978528E+03  0.00000000000E+00 0.  1.
         11    1    3    3    0    0  0.17918506373E+02  0.41354350785E+02  0.23880356241E+02  0.51005162618E+02  0.00000000000E+00 0. -1.
        -12    1    3    3    0    0  0.16949068654E+02  0.67790833333E+03  0.19126623219E+03  0.70457771104E+03  0.00000000000E+00 0.  1.
          4    1    6    6  502    0  0.19051565233E+02 -0.83839804492E+02 -0.11140697119E+03  0.14072522227E+03  0.00000000000E+00 0. -1.
         -3    1    6    6    0  502 -0.30366069560E+02 -0.61977317428E+02 -0.18961081638E+03  0.20178094000E+03  0.00000000000E+00 0.  1.
<mgrwt>
<rscale>  0 0.72655244E+03</rscale>
<asrwt>0</asrwt>
<pdfrwt beam="1">  1        1 0.12447333E+00 0.72655244E+03</pdfrwt>
<pdfrwt beam="2">  1       -2 0.13736901E+00 0.72655244E+03</pdfrwt>
<totfact> 0.73591249E+00</totfact>
</mgrwt>
</event>
<event>
12    3  0.2269558E-007  0.1151253E+04  0.7818608E-02  0.9156629E-01
          1   -1    0    0  501    0  0.00000000000E+00  0.00000000000E+00  0.20794040863E+04  0.20794040863E+04  0.00000000000E+00 0. -1.
         -2   -1    0    0    0  501 -0.00000000000E+00 -0.00000000000E+00 -0.70189095586E+03  0.70189095586E+03  0.00000000000E+00 0.  1.
        -24    2    1    2    0    0 -0.47447319893E+03 -0.97270813693E+03  0.26514394150E+03  0.11171914174E+04  0.80804809554E+02 0.  0.
    5000000    2    1    2    0    0  0.47447319893E+03  0.97270813693E+03  0.11123691889E+04  0.16641036248E+04  0.60049123667E+03 0.  0.
        -24    2    4    4    0    0  0.56869553137E+03  0.92908790640E+03  0.90349549782E+03  0.14173549015E+04  0.77277791793E+02 0.  0.
         24    2    4    4    0    0 -0.94222332436E+02  0.43620230531E+02  0.20887369112E+03  0.24674872324E+03  0.80474475060E+02 0.  0.
         13    1    3    3    0    0 -0.21603659323E+03 -0.37246665387E+03  0.13079324388E+03  0.45001121153E+03  0.00000000000E+00 0. -1.
        -14    1    3    3    0    0 -0.25843660570E+03 -0.60024148306E+03  0.13435069762E+03  0.66718020586E+03  0.00000000000E+00 0.  1.
         13    1    5    5    0    0  0.71734666409E+02  0.16985143557E+03  0.16431493193E+03  0.24697119141E+03  0.00000000000E+00 0. -1.
        -14    1    5    5    0    0  0.49696086496E+03  0.75923647082E+03  0.73918056588E+03  0.11703837101E+04  0.00000000000E+00 0.  1.
          2    1    6    6  502    0 -0.49594191163E+02  0.61087759573E+02  0.96026554298E+02  0.12414667654E+03  0.00000000000E+00 0. -1.
         -1    1    6    6    0  502 -0.44628141272E+02 -0.17467529042E+02  0.11284713683E+03  0.12260204670E+03  0.00000000000E+00 0.  1.
<mgrwt>
<rscale>  0 0.11512526E+04</rscale>
<asrwt>0</asrwt>
<pdfrwt beam="1">  1        1 0.31990832E+00 0.11512526E+04</pdfrwt>
<pdfrwt beam="2">  1       -2 0.10798323E+00 0.11512526E+04</pdfrwt>
<totfact> 0.15674227E+00</totfact>
</mgrwt>
</event>
<event>
12    3  0.2269558E-007  0.6053470E+03  0.7818608E-02  0.9894374E-01
          1   -1    0    0  501    0  0.00000000000E+00  0.00000000000E+00  0.49879834752E+03  0.49879834752E+03  0.00000000000E+00 0. -1.
         -2   -1    0    0    0  501 -0.00000000000E+00 -0.00000000000E+00 -0.85483511276E+03  0.85483511276E+03  0.00000000000E+00 0.  1.
        -24    2    1    2    0    0  0.40622297586E+03 -0.20815485152E+03  0.97701946014E+02  0.47345153358E+03  0.79152612541E+02 0.  0.
    5000000    2    1    2    0    0 -0.40622297586E+03  0.20815485152E+03 -0.45373871126E+03  0.88018192670E+03  0.60041307253E+03 0.  0.
        -24    2    4    4    0    0 -0.35441823177E+03  0.39999304819E+03 -0.32772666332E+03  0.63157575094E+03  0.76657952747E+02 0.  0.
         24    2    4    4    0    0 -0.51804744096E+02 -0.19183819667E+03 -0.12601204794E+03  0.24860617576E+03  0.80251910803E+02 0.  0.
         13    1    5    5    0    0 -0.21629808458E+03  0.29596172678E+03 -0.21125032928E+03  0.42308971476E+03  0.00000000000E+00 0. -1.
        -14    1    5    5    0    0 -0.13812014719E+03  0.10403132140E+03 -0.11647633404E+03  0.20848603618E+03  0.00000000000E+00 0.  1.
         13    1    3    3    0    0  0.13834790244E+02 -0.20341972951E+02  0.19649849801E+02  0.31485137476E+02  0.00000000000E+00 0. -1.
        -14    1    3    3    0    0  0.39238818562E+03 -0.18781287856E+03  0.78052096213E+02  0.44196639611E+03  0.00000000000E+00 0.  1.
          2    1    6    6  502    0  0.92464346142E+01 -0.10513580534E+03 -0.43114007088E+02  0.11400812131E+03  0.00000000000E+00 0. -1.
         -1    1    6    6    0  502 -0.61051178710E+02 -0.86702391326E+02 -0.82898040852E+02  0.13459805445E+03  0.00000000000E+00 0.  1.
<mgrwt>
<rscale>  0 0.60534702E+03</rscale>
<asrwt>0</asrwt>
<pdfrwt beam="1">  1        1 0.76738208E-01 0.60534702E+03</pdfrwt>
<pdfrwt beam="2">  1       -2 0.13151309E+00 0.60534702E+03</pdfrwt>
<totfact> 0.16955130E+01</totfact>
</mgrwt>
</event>
<event>
12    3  0.2269558E-007  0.5786819E+03  0.7818608E-02  0.9950649E-01
          1   -1    0    0  501    0  0.00000000000E+00  0.00000000000E+00  0.24163963644E+04  0.24163963644E+04  0.00000000000E+00 0. -1.
         -2   -1    0    0    0  501 -0.00000000000E+00 -0.00000000000E+00 -0.27066167904E+03  0.27066167904E+03  0.00000000000E+00 0.  1.
        -24    2    1    2    0    0  0.47924899414E+02  0.48057315972E+03  0.97754149834E+02  0.49899389183E+03  0.78687180966E+02 0.  0.
    5000000    2    1    2    0    0 -0.47924899414E+02 -0.48057315972E+03  0.20479805355E+04  0.21880641516E+04  0.60012756965E+03 0.  0.
        -24    2    4    4    0    0 -0.23720154044E+03 -0.33869459994E+03  0.17454995406E+04  0.17956559215E+04  0.81442859063E+02 0.  0.
         24    2    4    4    0    0  0.18927664102E+03 -0.14187855978E+03  0.30248099491E+03  0.39240823012E+03  0.80834981417E+02 0.  0.
         11    1    3    3    0    0  0.54620489897E+02  0.22496417489E+03  0.23254056916E+02  0.23266505768E+03  0.00000000000E+00 0. -1.
        -12    1    3    3    0    0 -0.66955904832E+01  0.25560898483E+03  0.74500092917E+02  0.26632883416E+03  0.00000000000E+00 0.  1.
         11    1    5    5    0    0 -0.44149062078E+02 -0.12473630084E+03  0.49497553397E+03  0.51235638345E+03  0.00000000000E+00 0. -1.
        -12    1    5    5    0    0 -0.19305247836E+03 -0.21395829910E+03  0.12505240067E+04  0.12832995381E+04  0.00000000000E+00 0.  1.
          2    1    6    6  502    0  0.12791858156E+03 -0.46199508539E+02  0.15500996477E+03  0.20621747569E+03  0.00000000000E+00 0. -1.
         -1    1    6    6    0  502  0.61358059458E+02 -0.95679051242E+02  0.14747103014E+03  0.18619075443E+03  0.00000000000E+00 0.  1.
<mgrwt>
<rscale>  0 0.57868194E+03</rscale>
<asrwt>0</asrwt>
<pdfrwt beam="1">  1        1 0.37175327E+00 0.57868194E+03</pdfrwt>
<pdfrwt beam="2">  1       -2 0.41640260E-01 0.57868194E+03</pdfrwt>
<totfact> 0.80513248E+00</totfact>
</mgrwt>
</event>
<event>
12    3  0.2269558E-007  0.5123193E+03  0.7818608E-02  0.1010612E+00
          1   -1    0    0  501    0  0.00000000000E+00  0.00000000000E+00  0.14884413824E+04  0.14884413824E+04  0.00000000000E+00 0. -1.
         -2   -1    0    0    0  501 -0.00000000000E+00 -0.00000000000E+00 -0.18661814877E+03  0.18661814877E+03  0.00000000000E+00 0.  1.
        -24    2    1    2    0    0 -0.33466782912E+03 -0.67116455506E+02  0.56626978914E+03  0.66618270531E+03  0.81429406893E+02 0.  0.
    5000000    2    1    2    0    0  0.33466782912E+03  0.67116455506E+02  0.73555344445E+03  0.10088768258E+04  0.60023862389E+03 0.  0.
        -24    2    4    4    0    0  0.16306586537E+03 -0.25627086874E+03  0.37929216606E+03  0.49303231960E+03  0.83385168464E+02 0.  0.
         24    2    4    4    0    0  0.17160196375E+03  0.32338732425E+03  0.35626127838E+03  0.51584450623E+03  0.71741624479E+02 0.  0.
         13    1    5    5    0    0  0.13805001346E+03 -0.18102256985E+03  0.22788093715E+03  0.32211286613E+03  0.00000000000E+00 0. -1.
        -14    1    5    5    0    0  0.25015851907E+02 -0.75248298889E+02  0.15141122891E+03  0.17091945347E+03  0.00000000000E+00 0.  1.
         13    1    3    3    0    0 -0.27560672761E+03 -0.36234166279E+02  0.40049739961E+03  0.48751425642E+03  0.00000000000E+00 0. -1.
        -14    1    3    3    0    0 -0.59061101507E+02 -0.30882289227E+02  0.16577238953E+03  0.17866844889E+03  0.00000000000E+00 0.  1.
          2    1    6    6  502    0  0.92414985999E+02  0.10053827586E+03  0.13021473068E+03  0.18869115145E+03  0.00000000000E+00 0. -1.
         -1    1    6    6    0  502  0.79186977755E+02  0.22284904839E+03  0.22604654770E+03  0.32715335478E+03  0.00000000000E+00 0.  1.
<mgrwt>
<rscale>  0 0.51231929E+03</rscale>
<asrwt>0</asrwt>
<pdfrwt beam="1">  1        1 0.22899097E+00 0.51231929E+03</pdfrwt>
<pdfrwt beam="2">  1       -2 0.28710485E-01 0.51231929E+03</pdfrwt>
<totfact> 0.68486866E+01</totfact>
</mgrwt>
</event>
<event>
12    3  0.2269558E-007  0.4725692E+03  0.7818608E-02  0.1021198E+00
          1   -1    0    0  501    0  0.00000000000E+00  0.00000000000E+00  0.25239066445E+04  0.25239066445E+04  0.00000000000E+00 0. -1.
         -2   -1    0    0    0  501 -0.00000000000E+00 -0.00000000000E+00 -0.92372925413E+02  0.92372925413E+02  0.00000000000E+00 0.  1.
        -24    2    1    2    0    0 -0.23300571865E+03  0.16824947374E+03  0.69207078644E+03  0.75392282091E+03  0.82692781494E+02 0.  0.
    5000000    2    1    2    0    0  0.23300571865E+03 -0.16824947374E+03  0.17394629327E+04  0.18623567490E+04  0.60003484579E+03 0.  0.
        -24    2    4    4    0    0 -0.18847126835E+03 -0.45391917558E+01  0.46855836834E+03  0.51127550116E+03  0.79458607403E+02 0.  0.
         24    2    4    4    0    0  0.42147698700E+03 -0.16371028198E+03  0.12709045643E+04  0.13510812479E+04  0.76014601810E+02 0.  0.
         11    1    5    5    0    0  0.27163816531E+01  0.19119065905E+01 -0.16020568957E+01  0.36879130132E+01  0.00000000000E+00 0. -1.
        -12    1    5    5    0    0 -0.19118765001E+03 -0.64510983463E+01  0.47016042524E+03  0.50758758815E+03  0.00000000000E+00 0.  1.
         13    1    3    3    0    0 -0.14750990319E+03  0.59573922488E+02  0.32992809310E+03  0.36627963416E+03  0.00000000000E+00 0. -1.
        -14    1    3    3    0    0 -0.85495815467E+02  0.10867555125E+03  0.36214269334E+03  0.38764318676E+03  0.00000000000E+00 0.  1.
          4    1    6    6  502    0  0.60895487280E+02 -0.12546516106E+02  0.11340367017E+03  0.12932930003E+03  0.00000000000E+00 0. -1.
         -3    1    6    6    0  502  0.36058149972E+03 -0.15116376588E+03  0.11575008942E+04  0.12217519478E+04  0.00000000000E+00 0.  1.
<mgrwt>
<rscale>  0 0.47256921E+03</rscale>
<asrwt>0</asrwt>
<pdfrwt beam="1">  1        1 0.38829328E+00 0.47256921E+03</pdfrwt>
<pdfrwt beam="2">  1       -2 0.14211221E-01 0.47256921E+03</pdfrwt>
<totfact> 0.47954023E+01</totfact>
</mgrwt>
</event>
<event>
12    3  0.2269558E-007  0.9280791E+03  0.7818608E-02  0.9391146E-01
         -2   -1    0    0    0  501 -0.00000000000E+00  0.00000000000E+00  0.40612938873E+03  0.40612938873E+03  0.00000000000E+00 0.  1.
          1   -1    0    0  501    0  0.00000000000E+00 -0.00000000000E+00 -0.26827137267E+04  0.26827137267E+04  0.00000000000E+00 0. -1.
        -24    2    1    2    0    0  0.91963670161E+03  0.47784409203E+02 -0.14243503592E+04  0.16980513466E+04  0.81175225138E+02 0.  0.
    5000000    2    1    2    0    0 -0.91963670161E+03 -0.47784409203E+02 -0.85223397876E+03  0.13907917688E+04  0.59998664736E+03 0.  0.
        -24    2    4    4    0    0 -0.12035464092E+03 -0.19227191877E+01  0.74399760471E+02  0.16352245852E+03  0.81947139328E+02 0.  0.
         24    2    4    4    0    0 -0.79928206069E+03 -0.45861690016E+02 -0.92663373923E+03  0.12272693103E+04  0.81146572393E+02 0.  0.
         13    1    5    5    0    0 -0.10059096601E+01  0.13525466541E+02  0.33955151078E+02  0.36563675747E+02  0.00000000000E+00 0. -1.
        -14    1    5    5    0    0 -0.11934873126E+03 -0.15448185729E+02  0.40444609392E+02  0.12695878278E+03  0.00000000000E+00 0.  1.
         13    1    3    3    0    0  0.26693416792E+03  0.74336673256E+01 -0.48189310181E+03  0.55093563234E+03  0.00000000000E+00 0. -1.
        -14    1    3    3    0    0  0.65270253369E+03  0.40350741878E+02 -0.94245725740E+03  0.11471157142E+04  0.00000000000E+00 0.  1.
          2    1    6    6  502    0 -0.60791760854E+03 -0.48847873526E+02 -0.65487141170E+03  0.89487792429E+03  0.00000000000E+00 0. -1.
         -1    1    6    6    0  502 -0.19136445214E+03  0.29861835101E+01 -0.27176232753E+03  0.33239138602E+03  0.00000000000E+00 0.  1.
<mgrwt>
<rscale>  0 0.92807909E+03</rscale>
<asrwt>0</asrwt>
<pdfrwt beam="1">  1        1 0.41272519E+00 0.92807909E+03</pdfrwt>
<pdfrwt beam="2">  1       -2 0.62481445E-01 0.92807909E+03</pdfrwt>
<totfact> 0.21688807E+00</totfact>
</mgrwt>
</event>
<event>
12    3  0.2269558E-007  0.6599671E+03  0.7818608E-02  0.9788254E-01
         -2   -1    0    0    0  501 -0.00000000000E+00  0.00000000000E+00  0.65320760442E+03  0.65320760442E+03  0.00000000000E+00 0.  1.
          1   -1    0    0  501    0  0.00000000000E+00 -0.00000000000E+00 -0.89010514179E+03  0.89010514179E+03  0.00000000000E+00 0. -1.
        -24    2    1    2    0    0 -0.37496801090E+03 -0.47772473749E+03  0.10690363534E+03  0.62307310744E+03  0.89273601709E+02 0.  0.
    5000000    2    1    2    0    0  0.37496801090E+03  0.47772473749E+03 -0.34380117271E+03  0.92023963877E+03  0.59984982488E+03 0.  0.
        -24    2    4    4    0    0  0.65465395497E+02  0.38259692035E+03  0.53651360311E+02  0.40120853488E+03  0.86160887468E+02 0.  0.
         24    2    4    4    0    0  0.30950261540E+03  0.95127817141E+02 -0.39745253302E+03  0.51903110389E+03  0.81139387906E+02 0.  0.
         11    1    5    5    0    0  0.55368371499E+02  0.26643243654E+03 -0.17118646686E+01  0.27213017158E+03  0.00000000000E+00 0. -1.
        -12    1    5    5    0    0  0.10097023998E+02  0.11616448381E+03  0.55363224980E+02  0.12907836330E+03  0.00000000000E+00 0.  1.
         13    1    3    3    0    0 -0.18492042557E+03 -0.23257728258E+03  0.70683039549E+01  0.29721661643E+03  0.00000000000E+00 0. -1.
        -14    1    3    3    0    0 -0.19004758533E+03 -0.24514745491E+03  0.99835331384E+02  0.32585649101E+03  0.00000000000E+00 0.  1.
          4    1    6    6  502    0  0.13388325138E+03  0.45250363098E+02 -0.11260210612E+03  0.18069741189E+03  0.00000000000E+00 0. -1.
         -3    1    6    6    0  502  0.17561936402E+03  0.49877454043E+02 -0.28485042689E+03  0.33833369200E+03  0.00000000000E+00 0.  1.
<mgrwt>
<rscale>  0 0.65996706E+03</rscale>
<asrwt>0</asrwt>
<pdfrwt beam="1">  1        1 0.13693925E+00 0.65996706E+03</pdfrwt>
<pdfrwt beam="2">  1       -2 0.10049348E+00 0.65996706E+03</pdfrwt>
<totfact> 0.13706570E+01</totfact>
</mgrwt>
</event>
<event>
12    3  0.2269558E-007  0.2006791E+04  0.7818608E-02  0.8603452E-01
         -2   -1    0    0    0  501 -0.00000000000E+00  0.00000000000E+00  0.29173458110E+04  0.29173458110E+04  0.00000000000E+00 0.  1.
          1   -1    0    0  501    0  0.00000000000E+00 -0.00000000000E+00 -0.14235125545E+04  0.14235125545E+04  0.00000000000E+00 0. -1.
        -24    2    1    2    0    0 -0.10919507662E+04  0.16649682927E+04  0.82179261107E+03  0.21554129188E+04  0.77368359680E+02 0.  0.
    5000000    2    1    2    0    0  0.10919507662E+04 -0.16649682927E+04  0.67204064539E+03  0.21854454467E+04  0.60004773145E+03 0.  0.
        -24    2    4    4    0    0  0.97893462707E+03 -0.15849807428E+04  0.74761857843E+03  0.20089806865E+04  0.81196680593E+02 0.  0.
         24    2    4    4    0    0  0.11301613913E+03 -0.79987549989E+02 -0.75577933046E+02  0.17646476025E+03  0.79102034033E+02 0.  0.
         11    1    3    3    0    0 -0.62748517825E+03  0.10154571462E+04  0.47069571071E+03  0.12831388533E+04  0.00000000000E+00 0. -1.
        -12    1    3    3    0    0 -0.46446558795E+03  0.64951114655E+03  0.35109690036E+03  0.87227406548E+03  0.00000000000E+00 0.  1.
         13    1    5    5    0    0  0.64763485383E+03 -0.10981588548E+04  0.54069918328E+03  0.13848246752E+04  0.00000000000E+00 0. -1.
        -14    1    5    5    0    0  0.33129977324E+03 -0.48682188795E+03  0.20691939515E+03  0.62415601128E+03  0.00000000000E+00 0.  1.
          2    1    6    6  502    0  0.58209901071E+02  0.28827860859E+01 -0.15302991144E+02  0.60256821823E+02  0.00000000000E+00 0. -1.
         -1    1    6    6    0  502  0.54806238061E+02 -0.82870336075E+02 -0.60274941902E+02  0.11620793842E+03  0.00000000000E+00 0.  1.
<mgrwt>
<rscale>  0 0.20067910E+04</rscale>
<asrwt>0</asrwt>
<pdfrwt beam="1">  1        1 0.21900193E+00 0.20067910E+04</pdfrwt>
<pdfrwt beam="2">  1       -2 0.44882243E+00 0.20067910E+04</pdfrwt>
<totfact> 0.20411496E-02</totfact>
</mgrwt>
</event>
<event>
12    3  0.2269558E-007  0.1213233E+04  0.7818608E-02  0.9101352E-01
          1   -1    0    0  501    0  0.00000000000E+00  0.00000000000E+00  0.16241758066E+04  0.16241758066E+04  0.00000000000E+00 0. -1.
         -2   -1    0    0    0  501 -0.00000000000E+00 -0.00000000000E+00 -0.91503409729E+03  0.91503409729E+03  0.00000000000E+00 0.  1.
        -24    2    1    2    0    0  0.98580940275E+03 -0.57245814255E+03  0.42962433674E+03  0.12208794076E+04  0.80255552269E+02 0.  0.
    5000000    2    1    2    0    0 -0.98580940275E+03  0.57245814255E+03  0.27951737261E+03  0.13183304963E+04  0.60028062809E+03 0.  0.
        -24    2    4    4    0    0 -0.20903254070E+03  0.44333759644E+03  0.91980344877E+02  0.50504274187E+03  0.79780698111E+02 0.  0.
         24    2    4    4    0    0 -0.77677686204E+03  0.12912054611E+03  0.18753702773E+03  0.81328775446E+03  0.78818944064E+02 0.  0.
         11    1    5    5    0    0 -0.21362381031E+03  0.40434171542E+03  0.86111817471E+02  0.46534138035E+03  0.00000000000E+00 0. -1.
        -12    1    5    5    0    0  0.45912696079E+01  0.38995881018E+02  0.58685274067E+01  0.39701361524E+02  0.00000000000E+00 0.  1.
         13    1    3    3    0    0  0.86552166584E+03 -0.52869549904E+03  0.39345098104E+03  0.10878650464E+04  0.00000000000E+00 0. -1.
        -14    1    3    3    0    0  0.12028773691E+03 -0.43762643503E+02  0.36173355694E+02  0.13301436118E+03  0.00000000000E+00 0.  1.
          2    1    6    6  502    0 -0.26785990208E+03  0.35228031201E+02  0.27300308900E+02  0.27154235064E+03  0.00000000000E+00 0. -1.
         -1    1    6    6    0  502 -0.50891695997E+03  0.93892514909E+02  0.16023671883E+03  0.54174540382E+03  0.00000000000E+00 0.  1.
<mgrwt>
<rscale>  0 0.12132327E+04</rscale>
<asrwt>0</asrwt>
<pdfrwt beam="1">  1        1 0.24987320E+00 0.12132327E+04</pdfrwt>
<pdfrwt beam="2">  1       -2 0.14077448E+00 0.12132327E+04</pdfrwt>
<totfact> 0.16268622E+00</totfact>
</mgrwt>
</event>
<event>
12    3  0.2269558E-007  0.1291443E+04  0.7818608E-02  0.9036379E-01
          3   -1    0    0  501    0  0.00000000000E+00  0.00000000000E+00  0.20495507044E+04  0.20495507044E+04  0.00000000000E+00 0. -1.
         -4   -1    0    0    0  501 -0.00000000000E+00 -0.00000000000E+00 -0.15177848910E+04  0.15177848910E+04  0.00000000000E+00 0.  1.
        -24    2    1    2    0    0  0.11029020094E+04  0.64198634124E+03 -0.89514958183E+03  0.15611932934E+04  0.86558770100E+02 0.  0.
    5000000    2    1    2    0    0 -0.11029020094E+04 -0.64198634124E+03  0.14269153953E+04  0.20061423021E+04  0.59998340481E+03 0.  0.
        -24    2    4    4    0    0 -0.59272591096E+03 -0.46916538904E+03  0.11905571358E+04  0.14124601805E+04  0.78595802468E+02 0.  0.
         24    2    4    4    0    0 -0.51017609846E+03 -0.17282095220E+03  0.23635825949E+03  0.59368212153E+03  0.80290109182E+02 0.  0.
         11    1    3    3    0    0  0.56770622440E+03  0.37914835575E+03 -0.46600668280E+03  0.82656279937E+03  0.00000000000E+00 0. -1.
        -12    1    3    3    0    0  0.53519578501E+03  0.26283798549E+03 -0.42914289904E+03  0.73463049399E+03  0.00000000000E+00 0.  1.
         13    1    5    5    0    0 -0.25952339883E+03 -0.25419268877E+03  0.58575571940E+03  0.68925762990E+03  0.00000000000E+00 0. -1.
        -14    1    5    5    0    0 -0.33320251213E+03 -0.21497270027E+03  0.60480141640E+03  0.72320255062E+03  0.00000000000E+00 0.  1.
          4    1    6    6  502    0 -0.37269059479E+03 -0.16158202718E+03  0.18683342329E+03  0.44711716474E+03  0.00000000000E+00 0. -1.
         -3    1    6    6    0  502 -0.13748550368E+03 -0.11238925015E+02  0.49524836203E+02  0.14656495678E+03  0.00000000000E+00 0.  1.
<mgrwt>
<rscale>  0 0.12914427E+04</rscale>
<asrwt>0</asrwt>
<pdfrwt beam="1">  1        3 0.31531549E+00 0.12914427E+04</pdfrwt>
<pdfrwt beam="2">  1       -4 0.23350537E+00 0.12914427E+04</pdfrwt>
<totfact> 0.54440867E-03</totfact>
</mgrwt>
</event>
<event>
12    3  0.2269558E-007  0.5044098E+03  0.7818608E-02  0.1012634E+00
          1   -1    0    0  501    0  0.00000000000E+00  0.00000000000E+00  0.33022362420E+04  0.33022362420E+04  0.00000000000E+00 0. -1.
         -2   -1    0    0    0  501 -0.00000000000E+00 -0.00000000000E+00 -0.11107549826E+03  0.11107549826E+03  0.00000000000E+00 0.  1.
        -24    2    1    2    0    0 -0.24250267840E+03  0.31698356334E+03  0.60271720614E+03  0.72644563084E+03  0.71896422218E+02 0.  0.
    5000000    2    1    2    0    0  0.24250267840E+03 -0.31698356334E+03  0.25884435376E+04  0.26868661094E+04  0.59993617510E+03 0.  0.
        -24    2    4    4    0    0 -0.18977806621E+02  0.88693071294E+02  0.13471572219E+04  0.13526672817E+04  0.81544934965E+02 0.  0.
         24    2    4    4    0    0  0.26148048502E+03 -0.40567663463E+03  0.12412863157E+04  0.13341988277E+04  0.79681983147E+02 0.  0.
         11    1    5    5    0    0  0.23228629861E+02  0.60174655604E+02  0.96141839139E+03  0.96357972256E+03  0.00000000000E+00 0. -1.
        -12    1    5    5    0    0 -0.42206436482E+02  0.28518415689E+02  0.38573883051E+03  0.38908755914E+03  0.00000000000E+00 0.  1.
         13    1    3    3    0    0 -0.70156724941E+02  0.14887173923E+03  0.25591027065E+03  0.30426111716E+03  0.00000000000E+00 0. -1.
        -14    1    3    3    0    0 -0.17234595346E+03  0.16811182411E+03  0.34680693550E+03  0.42218451368E+03  0.00000000000E+00 0.  1.
          2    1    6    6  502    0  0.79243165664E+02 -0.18888440884E+03  0.47666704403E+03  0.51881429247E+03  0.00000000000E+00 0. -1.
         -1    1    6    6    0  502  0.18223731936E+03 -0.21679222579E+03  0.76461927168E+03  0.81538453527E+03  0.00000000000E+00 0.  1.
<mgrwt>
<rscale>  0 0.50440980E+03</rscale>
<asrwt>0</asrwt>
<pdfrwt beam="1">  1        1 0.50803627E+00 0.50440980E+03</pdfrwt>
<pdfrwt beam="2">  1       -2 0.17088541E-01 0.50440980E+03</pdfrwt>
<totfact> 0.98639848E+00</totfact>
</mgrwt>
</event>
<event>
12    3  0.2269558E-007  0.1096181E+04  0.7818608E-02  0.9208923E-01
         -2   -1    0    0    0  501 -0.00000000000E+00  0.00000000000E+00  0.29558588531E+04  0.29558588531E+04  0.00000000000E+00 0.  1.
          1   -1    0    0  501    0  0.00000000000E+00 -0.00000000000E+00 -0.11091598815E+04  0.11091598815E+04  0.00000000000E+00 0. -1.
        -24    2    1    2    0    0  0.48808727385E+03 -0.92226255552E+03 -0.69258040555E+03  0.12549324399E+04  0.79939991912E+02 0.  0.
    5000000    2    1    2    0    0 -0.48808727385E+03  0.92226255552E+03  0.25392793771E+04  0.28100862946E+04  0.59987316979E+03 0.  0.
        -24    2    4    4    0    0 -0.35809809937E+03  0.20281686462E+03  0.56666437423E+03  0.70488301902E+03  0.79891352136E+02 0.  0.
         24    2    4    4    0    0 -0.12998917448E+03  0.71944569090E+03  0.19726150029E+04  0.21052032756E+04  0.78559494797E+02 0.  0.
         13    1    5    5    0    0 -0.19477692313E+03  0.12323553202E+03  0.25179279458E+03  0.34135708215E+03  0.00000000000E+00 0. -1.
        -14    1    5    5    0    0 -0.16332117624E+03  0.79581332600E+02  0.31487157965E+03  0.36352593687E+03  0.00000000000E+00 0.  1.
         13    1    3    3    0    0  0.24833264950E+03 -0.53152538330E+03 -0.35639065851E+03  0.68644201457E+03  0.00000000000E+00 0. -1.
        -14    1    3    3    0    0  0.23975462435E+03 -0.39073717223E+03 -0.33618974704E+03  0.56849042531E+03  0.00000000000E+00 0.  1.
          2    1    6    6  502    0 -0.71017172756E+02  0.57034300485E+03  0.15630209254E+04  0.16653435067E+04  0.00000000000E+00 0. -1.
         -1    1    6    6    0  502 -0.58972001728E+02  0.14910268605E+03  0.40959407747E+03  0.43985976888E+03  0.00000000000E+00 0.  1.
<mgrwt>
<rscale>  0 0.10961805E+04</rscale>
<asrwt>0</asrwt>
<pdfrwt beam="1">  1        1 0.17063998E+00 0.10961805E+04</pdfrwt>
<pdfrwt beam="2">  1       -2 0.45474751E+00 0.10961805E+04</pdfrwt>
<totfact> 0.35481938E-02</totfact>
</mgrwt>
</event>
<event>
12    3  0.2269558E-007  0.5371752E+03  0.7818608E-02  0.1004507E+00
          1   -1    0    0  501    0  0.00000000000E+00  0.00000000000E+00  0.24539866632E+03  0.24539866632E+03  0.00000000000E+00 0. -1.
         -2   -1    0    0    0  501 -0.00000000000E+00 -0.00000000000E+00 -0.15912394106E+04  0.15912394106E+04  0.00000000000E+00 0.  1.
        -24    2    1    2    0    0  0.45456503304E+03 -0.12755852168E+03 -0.61732188162E+03  0.78139115287E+03  0.81149753778E+02 0.  0.
    5000000    2    1    2    0    0 -0.45456503304E+03  0.12755852168E+03 -0.72851886265E+03  0.10552469241E+04  0.59992148800E+03 0.  0.
        -24    2    4    4    0    0 -0.35632486516E+02  0.15265149415E+03 -0.57491751965E+03  0.60119485896E+03  0.79579842183E+02 0.  0.
         24    2    4    4    0    0 -0.41893254653E+03 -0.25092972466E+02 -0.15360134301E+03  0.45405206509E+03  0.80223247475E+02 0.  0.
         11    1    3    3    0    0  0.25250224365E+03 -0.97073672542E+02 -0.29992974991E+03  0.40390411712E+03  0.00000000000E+00 0. -1.
        -12    1    3    3    0    0  0.20206278940E+03 -0.30484849139E+02 -0.31739213172E+03  0.37748703575E+03  0.00000000000E+00 0.  1.
         13    1    5    5    0    0  0.21778953567E+02  0.55080760030E+02 -0.25654680418E+03  0.26329541523E+03  0.00000000000E+00 0. -1.
        -14    1    5    5    0    0 -0.57411440083E+02  0.97570734117E+02 -0.31837071546E+03  0.33789944373E+03  0.00000000000E+00 0.  1.
          2    1    6    6  502    0 -0.22827097988E+03  0.25750392541E+02 -0.75051200254E+02  0.24166796567E+03  0.00000000000E+00 0. -1.
         -1    1    6    6    0  502 -0.19066156664E+03 -0.50843365007E+02 -0.78550142754E+02  0.21238409942E+03  0.00000000000E+00 0.  1.
<mgrwt>
<rscale>  0 0.53717515E+03</rscale>
<asrwt>0</asrwt>
<pdfrwt beam="1">  1        1 0.37753640E-01 0.53717515E+03</pdfrwt>
<pdfrwt beam="2">  1       -2 0.24480607E+00 0.53717515E+03</pdfrwt>
<totfact> 0.72828039E+00</totfact>
</mgrwt>
</event>
<event>
12    3  0.2269558E-007  0.1373085E+04  0.7818608E-02  0.8973535E-01
          1   -1    0    0  501    0  0.00000000000E+00  0.00000000000E+00  0.46697228489E+03  0.46697228489E+03  0.00000000000E+00 0. -1.
         -2   -1    0    0    0  501 -0.00000000000E+00 -0.00000000000E+00 -0.43642931934E+04  0.43642931934E+04  0.00000000000E+00 0.  1.
        -24    2    1    2    0    0 -0.12987589927E+04  0.40136306963E+03 -0.20341079018E+04  0.24480638334E+04  0.86915712908E+02 0.  0.
    5000000    2    1    2    0    0  0.12987589927E+04 -0.40136306963E+03 -0.18632130067E+04  0.23832016449E+04  0.60018341964E+03 0.  0.
        -24    2    4    4    0    0  0.51654101068E+03 -0.28706996721E+03 -0.12310893172E+04  0.13678831110E+04  0.79369494761E+02 0.  0.
         24    2    4    4    0    0  0.78221798205E+03 -0.11429310242E+03 -0.63212368953E+03  0.10153185339E+04  0.79771434690E+02 0.  0.
         13    1    3    3    0    0 -0.82103230686E+03  0.27373773680E+03 -0.13604394024E+04  0.16123962804E+04  0.00000000000E+00 0. -1.
        -14    1    3    3    0    0 -0.47772668587E+03  0.12762533283E+03 -0.67366849944E+03  0.83566755298E+03  0.00000000000E+00 0.  1.
         13    1    5    5    0    0  0.20052803597E+03 -0.14715385186E+03 -0.46164120294E+03  0.52438378081E+03  0.00000000000E+00 0. -1.
        -14    1    5    5    0    0  0.31601297471E+03 -0.13991611534E+03 -0.76944811425E+03  0.84349933019E+03  0.00000000000E+00 0.  1.
          4    1    6    6  502    0  0.48451927753E+03 -0.93614110809E+02 -0.35329672494E+03  0.60691112026E+03  0.00000000000E+00 0. -1.
         -3    1    6    6    0  502  0.29769870452E+03 -0.20678991612E+02 -0.27882696458E+03  0.40840741367E+03  0.00000000000E+00 0.  1.
<mgrwt>
<rscale>  0 0.13730850E+04</rscale>
<asrwt>0</asrwt>
<pdfrwt beam="1">  1        1 0.71841890E-01 0.13730850E+04</pdfrwt>
<pdfrwt beam="2">  1       -2 0.67142972E+00 0.13730850E+04</pdfrwt>
<totfact> 0.11572342E-02</totfact>
</mgrwt>
</event>
<event>
12    3  0.2269558E-007  0.1271970E+04  0.7818608E-02  0.9052094E-01
          3   -1    0    0  501    0  0.00000000000E+00  0.00000000000E+00  0.93902879573E+03  0.93902879573E+03  0.00000000000E+00 0. -1.
         -4   -1    0    0    0  501 -0.00000000000E+00 -0.00000000000E+00 -0.20365657616E+04  0.20365657616E+04  0.00000000000E+00 0.  1.
        -24    2    1    2    0    0  0.12464930055E+04 -0.22302695662E+03 -0.13624733528E+03  0.12763623360E+04  0.83974045228E+02 0.  0.
    5000000    2    1    2    0    0 -0.12464930055E+04  0.22302695662E+03 -0.96128963061E+03  0.16992322213E+04  0.59985544253E+03 0.  0.
        -24    2    4    4    0    0 -0.92725425166E+03  0.15892906015E+03 -0.35921729102E+03  0.10101507227E+04  0.79426236318E+02 0.  0.
         24    2    4    4    0    0 -0.31923875385E+03  0.64097896471E+02 -0.60207233959E+03  0.68908149863E+03  0.79500235040E+02 0.  0.
         11    1    3    3    0    0  0.72971660197E+03 -0.15693192190E+03 -0.11254022765E+03  0.75483723420E+03  0.00000000000E+00 0. -1.
        -12    1    3    3    0    0  0.51677640354E+03 -0.66095034720E+02 -0.23707107632E+02  0.52152510182E+03  0.00000000000E+00 0.  1.
         11    1    5    5    0    0 -0.76074819584E+03  0.15433548858E+03 -0.31572128963E+03  0.83799593867E+03  0.00000000000E+00 0. -1.
        -12    1    5    5    0    0 -0.16650605582E+03  0.45935715627E+01 -0.43496001389E+02  0.17215478402E+03  0.00000000000E+00 0.  1.
          2    1    6    6  502    0 -0.27017207017E+03  0.25621623711E+02 -0.46305753765E+03  0.53672311137E+03  0.00000000000E+00 0. -1.
         -1    1    6    6    0  502 -0.49066683682E+02  0.38476272760E+02 -0.13901480193E+03  0.15235838726E+03  0.00000000000E+00 0.  1.
<mgrwt>
<rscale>  0 0.12719697E+04</rscale>
<asrwt>0</asrwt>
<pdfrwt beam="1">  1        3 0.14446597E+00 0.12719697E+04</pdfrwt>
<pdfrwt beam="2">  1       -4 0.31331781E+00 0.12719697E+04</pdfrwt>
<totfact> 0.19690788E-02</totfact>
</mgrwt>
</event>
<event>
12    3  0.2269558E-007  0.4994894E+03  0.7818608E-02  0.1013912E+00
          1   -1    0    0  501    0  0.00000000000E+00  0.00000000000E+00  0.12150661829E+04  0.12150661829E+04  0.00000000000E+00 0. -1.
         -2   -1    0    0    0  501 -0.00000000000E+00 -0.00000000000E+00 -0.40830506181E+03  0.40830506181E+03  0.00000000000E+00 0.  1.
        -24    2    1    2    0    0 -0.32732552361E+03 -0.81208437339E+02 -0.20287788712E+03  0.40147711982E+03  0.79294589699E+02 0.  0.
    5000000    2    1    2    0    0  0.32732552361E+03  0.81208437339E+02  0.10096390082E+04  0.12218941249E+04  0.59993126010E+03 0.  0.
        -24    2    4    4    0    0  0.28793909262E+02 -0.21339887270E+03  0.19879556080E+03  0.30555344981E+03  0.86458473347E+02 0.  0.
         24    2    4    4    0    0  0.29853161435E+03  0.29460731004E+03  0.81084344740E+03  0.91634067508E+03  0.79363371404E+02 0.  0.
         11    1    5    5    0    0  0.59526716312E+01  0.73357205997E+01  0.39500674565E+01  0.10239635207E+02  0.00000000000E+00 0. -1.
        -12    1    5    5    0    0  0.22841237630E+02 -0.22073459330E+03  0.19484549334E+03  0.29531381460E+03  0.00000000000E+00 0.  1.
         11    1    3    3    0    0 -0.15768472528E+03 -0.78304890286E+02 -0.11626281391E+03  0.21098144545E+03  0.00000000000E+00 0. -1.
        -12    1    3    3    0    0 -0.16964079833E+03 -0.29035470528E+01 -0.86615073209E+02  0.19049567436E+03  0.00000000000E+00 0.  1.
          4    1    6    6  502    0  0.11738174406E+03  0.85407909690E+02  0.21561101071E+03  0.25992516772E+03  0.00000000000E+00 0. -1.
         -3    1    6    6    0  502  0.18114987029E+03  0.20919940035E+03  0.59523243670E+03  0.65641550736E+03  0.00000000000E+00 0.  1.
<mgrwt>
<rscale>  0 0.49948940E+03</rscale>
<asrwt>0</asrwt>
<pdfrwt beam="1">  1        1 0.18693326E+00 0.49948940E+03</pdfrwt>
<pdfrwt beam="2">  1       -2 0.62816164E-01 0.49948940E+03</pdfrwt>
<totfact> 0.22788204E+01</totfact>
</mgrwt>
</event>
<event>
12    3  0.2269558E-007  0.3462245E+03  0.7818608E-02  0.1064175E+00
          1   -1    0    0  501    0  0.00000000000E+00  0.00000000000E+00  0.28064686754E+04  0.28064686754E+04  0.00000000000E+00 0. -1.
         -2   -1    0    0    0  501 -0.00000000000E+00 -0.00000000000E+00 -0.54298964899E+03  0.54298964899E+03  0.00000000000E+00 0.  1.
        -24    2    1    2    0    0 -0.13186337042E+03 -0.28535089552E+03 -0.44891110705E+03  0.55383132455E+03  0.79967943523E+02 0.  0.
    5000000    2    1    2    0    0  0.13186337042E+03  0.28535089552E+03  0.27123901334E+04  0.27956269998E+04  0.59971410192E+03 0.  0.
        -24    2    4    4    0    0  0.15758453262E+03  0.21939052239E+03  0.26631376145E+04  0.26779773342E+04  0.79344578867E+02 0.  0.
         24    2    4    4    0    0 -0.25721162195E+02  0.65960373127E+02  0.49252518901E+02  0.11764966562E+03  0.80020523589E+02 0.  0.
         11    1    3    3    0    0 -0.89527937522E+02 -0.10356324513E+03 -0.20942806188E+03  0.25020133981E+03  0.00000000000E+00 0. -1.
        -12    1    3    3    0    0 -0.42335432902E+02 -0.18178765039E+03 -0.23948304517E+03  0.30362998474E+03  0.00000000000E+00 0.  1.
         11    1    5    5    0    0  0.57792317566E+02  0.14775276595E+03  0.15222405393E+04  0.15304859004E+04  0.00000000000E+00 0. -1.
        -12    1    5    5    0    0  0.99792215053E+02  0.71637756434E+02  0.11408970753E+04  0.11474914338E+04  0.00000000000E+00 0.  1.
          2    1    6    6  502    0 -0.17589160928E+01  0.63266574746E+02  0.63489283214E+02  0.89647322040E+02  0.00000000000E+00 0. -1.
         -1    1    6    6    0  502 -0.23962246103E+02  0.26937983811E+01 -0.14236764314E+02  0.28002343583E+02  0.00000000000E+00 0.  1.
<mgrwt>
<rscale>  0 0.34622454E+03</rscale>
<asrwt>0</asrwt>
<pdfrwt beam="1">  1        1 0.43176440E+00 0.34622454E+03</pdfrwt>
<pdfrwt beam="2">  1       -2 0.83536871E-01 0.34622454E+03</pdfrwt>
<totfact> 0.10951490E+00</totfact>
</mgrwt>
</event>
<event>
12    3  0.2269558E-007  0.1092654E+04  0.7818608E-02  0.9212381E-01
         -2   -1    0    0    0  501 -0.00000000000E+00  0.00000000000E+00  0.69109342537E+03  0.69109342537E+03  0.00000000000E+00 0.  1.
          1   -1    0    0  501    0  0.00000000000E+00 -0.00000000000E+00 -0.19114179488E+04  0.19114179488E+04  0.00000000000E+00 0. -1.
        -24    2    1    2    0    0  0.97338631040E+03 -0.41639614627E+03 -0.74027865382E+03  0.12943005223E+04  0.79590808463E+02 0.  0.
    5000000    2    1    2    0    0 -0.97338631040E+03  0.41639614627E+03 -0.48004586959E+03  0.13082108519E+04  0.60008744038E+03 0.  0.
        -24    2    4    4    0    0 -0.25132212430E+03  0.29695086173E+03  0.50763447737E+02  0.40072425018E+03  0.81611105947E+02 0.  0.
         24    2    4    4    0    0 -0.72206418610E+03  0.11944528454E+03 -0.53080931732E+03  0.90748660167E+03  0.78291353345E+02 0.  0.
         13    1    3    3    0    0  0.22155270330E+03 -0.10881571659E+03 -0.13555006312E+03  0.28160305419E+03  0.00000000000E+00 0. -1.
        -14    1    3    3    0    0  0.75183360710E+03 -0.30758042968E+03 -0.60472859069E+03  0.10126974681E+04  0.00000000000E+00 0.  1.
         13    1    5    5    0    0 -0.58389137626E+01  0.76273427125E+00  0.12888953783E+02  0.14170384861E+02  0.00000000000E+00 0. -1.
        -14    1    5    5    0    0 -0.24548321054E+03  0.29618812746E+03  0.37874493954E+02  0.38655386532E+03  0.00000000000E+00 0.  1.
          2    1    6    6  502    0 -0.43970803897E+03  0.36157711872E+02 -0.33430443384E+03  0.55354312763E+03  0.00000000000E+00 0. -1.
         -1    1    6    6    0  502 -0.28235614713E+03  0.83287572666E+02 -0.19650488349E+03  0.35394347404E+03  0.00000000000E+00 0.  1.
<mgrwt>
<rscale>  0 0.10926543E+04</rscale>
<asrwt>0</asrwt>
<pdfrwt beam="1">  1        1 0.29406429E+00 0.10926543E+04</pdfrwt>
<pdfrwt beam="2">  1       -2 0.10632207E+00 0.10926543E+04</pdfrwt>
<totfact> 0.21276751E+00</totfact>
</mgrwt>
</event>
<event>
12    3  0.2269558E-007  0.6094930E+03  0.7818608E-02  0.9885905E-01
          1   -1    0    0  501    0  0.00000000000E+00  0.00000000000E+00  0.55468793578E+03  0.55468793578E+03  0.00000000000E+00 0. -1.
         -2   -1    0    0    0  501 -0.00000000000E+00 -0.00000000000E+00 -0.75762020173E+03  0.75762020173E+03  0.00000000000E+00 0.  1.
        -24    2    1    2    0    0 -0.38008079531E+03  0.26517144194E+03  0.12474784638E+03  0.48636629065E+03  0.78821563794E+02 0.  0.
    5000000    2    1    2    0    0  0.38008079531E+03 -0.26517144194E+03 -0.32768011234E+03  0.82594184686E+03  0.60002364436E+03 0.  0.
        -24    2    4    4    0    0  0.52862020123E+03 -0.15573574640E+03 -0.22928497367E+03  0.60207317913E+03  0.78914979670E+02 0.  0.
         24    2    4    4    0    0 -0.14853940592E+03 -0.10943569553E+03 -0.98395138663E+02  0.22386866773E+03  0.79971560638E+02 0.  0.
         11    1    5    5    0    0  0.78694720915E+02  0.56985920773E-01 -0.15784571443E+02  0.80262164455E+02  0.00000000000E+00 0. -1.
        -12    1    5    5    0    0  0.44992548032E+03 -0.15579273232E+03 -0.21350040223E+03  0.52181101468E+03  0.00000000000E+00 0.  1.
         13    1    3    3    0    0 -0.29185495472E+02  0.49817557408E+02  0.23878963942E+02  0.62480293622E+02  0.00000000000E+00 0. -1.
        -14    1    3    3    0    0 -0.35089529984E+03  0.21535388453E+03  0.10086888244E+03  0.42388599703E+03  0.00000000000E+00 0.  1.
          2    1    6    6  502    0 -0.55594512079E+02 -0.64235597360E+01 -0.55071374225E+02  0.78516674356E+02  0.00000000000E+00 0. -1.
         -1    1    6    6    0  502 -0.92944893841E+02 -0.10301213580E+03 -0.43323764439E+02  0.14535199338E+03  0.00000000000E+00 0.  1.
<mgrwt>
<rscale>  0 0.60949298E+03</rscale>
<asrwt>0</asrwt>
<pdfrwt beam="1">  1        1 0.85336606E-01 0.60949298E+03</pdfrwt>
<pdfrwt beam="2">  1       -2 0.11655695E+00 0.60949298E+03</pdfrwt>
<totfact> 0.19765826E+01</totfact>
</mgrwt>
</event>
<event>
12    3  0.2269558E-007  0.8136889E+03  0.7818608E-02  0.9540412E-01
          1   -1    0    0  501    0  0.00000000000E+00  0.00000000000E+00  0.16309451464E+04  0.16309451464E+04  0.00000000000E+00 0. -1.
         -2   -1    0    0    0  501 -0.00000000000E+00 -0.00000000000E+00 -0.92409738321E+03  0.92409738321E+03  0.00000000000E+00 0.  1.
        -24    2    1    2    0    0 -0.45880272715E+03  0.54116442673E+03  0.12781891240E+04  0.14642236138E+04  0.82610381541E+02 0.  0.
    5000000    2    1    2    0    0  0.45880272715E+03 -0.54116442673E+03 -0.57134136080E+03  0.10908189159E+04  0.60008005924E+03 0.  0.
        -24    2    4    4    0    0  0.27265646137E+03 -0.63822437306E+03 -0.37314479551E+03  0.79166668341E+03  0.76336118050E+02 0.  0.
         24    2    4    4    0    0  0.18614626578E+03  0.97059946326E+02 -0.19819656529E+03  0.29915223247E+03  0.78352500011E+02 0.  0.
         13    1    3    3    0    0 -0.20905070902E+03  0.21287798068E+03  0.60810651047E+03  0.67735718913E+03  0.00000000000E+00 0. -1.
        -14    1    3    3    0    0 -0.24975201813E+03  0.32828644605E+03  0.67008261355E+03  0.78686642462E+03  0.00000000000E+00 0.  1.
         13    1    5    5    0    0  0.25196928799E+03 -0.51588353406E+03 -0.30793019287E+03  0.65149470181E+03  0.00000000000E+00 0. -1.
        -14    1    5    5    0    0  0.20687173376E+02 -0.12234083900E+03 -0.65214602646E+02  0.14017198161E+03  0.00000000000E+00 0.  1.
          2    1    6    6  502    0  0.18043027637E+03  0.74770519785E+02 -0.15180385702E+03  0.24736638063E+03  0.00000000000E+00 0. -1.
         -1    1    6    6    0  502  0.57159894044E+01  0.22289426541E+02 -0.46392708269E+02  0.51785851842E+02  0.00000000000E+00 0.  1.
<mgrwt>
<rscale>  0 0.81368885E+03</rscale>
<asrwt>0</asrwt>
<pdfrwt beam="1">  1        1 0.25091464E+00 0.81368885E+03</pdfrwt>
<pdfrwt beam="2">  1       -2 0.14216883E+00 0.81368885E+03</pdfrwt>
<totfact> 0.16514699E+00</totfact>
</mgrwt>
</event>
<event>
12    3  0.2269558E-007  0.7171251E+03  0.7818608E-02  0.9688386E-01
          1   -1    0    0  501    0  0.00000000000E+00  0.00000000000E+00  0.10571920366E+04  0.10571920366E+04  0.00000000000E+00 0. -1.
         -2   -1    0    0    0  501 -0.00000000000E+00 -0.00000000000E+00 -0.51024022043E+03  0.51024022043E+03  0.00000000000E+00 0.  1.
        -24    2    1    2    0    0  0.33793998949E+03 -0.49542092249E+03  0.11478853767E+03  0.61559606086E+03  0.78337569766E+02 0.  0.
    5000000    2    1    2    0    0 -0.33793998949E+03  0.49542092249E+03  0.43216327852E+03  0.95183619618E+03  0.59965133047E+03 0.  0.
        -24    2    4    4    0    0 -0.20494361620E+02  0.51250320356E+03  0.24704669844E+03  0.57569122393E+03  0.85491295364E+02 0.  0.
         24    2    4    4    0    0 -0.31744562787E+03 -0.17082281074E+02  0.18511658008E+03  0.37614497225E+03  0.78443361424E+02 0.  0.
         11    1    5    5    0    0 -0.24877598449E+00  0.17322079230E+03  0.12866912713E+03  0.21578055763E+03  0.00000000000E+00 0. -1.
        -12    1    5    5    0    0 -0.20245585636E+02  0.33928241126E+03  0.11837757131E+03  0.35991066630E+03  0.00000000000E+00 0.  1.
         13    1    3    3    0    0  0.26059198892E+03 -0.36644640887E+03  0.11903677602E+03  0.46514611609E+03  0.00000000000E+00 0. -1.
        -14    1    3    3    0    0  0.77348000567E+02 -0.12897451362E+03 -0.42482383542E+01  0.15044994478E+03  0.00000000000E+00 0.  1.
          2    1    6    6  502    0 -0.10979852405E+03  0.15572955449E+02  0.10013729067E+03  0.14941790324E+03  0.00000000000E+00 0. -1.
         -1    1    6    6    0  502 -0.20764710381E+03 -0.32655236524E+02  0.84979289410E+02  0.22672706901E+03  0.00000000000E+00 0.  1.
<mgrwt>
<rscale>  0 0.71712505E+03</rscale>
<asrwt>0</asrwt>
<pdfrwt beam="1">  1        1 0.16264493E+00 0.71712505E+03</pdfrwt>
<pdfrwt beam="2">  1       -2 0.78498496E-01 0.71712505E+03</pdfrwt>
<totfact> 0.17767998E+01</totfact>
</mgrwt>
</event>
<event>
12    3  0.2269558E-007  0.9542868E+03  0.7818608E-02  0.9360154E-01
          1   -1    0    0  501    0  0.00000000000E+00  0.00000000000E+00  0.10907064619E+04  0.10907064619E+04  0.00000000000E+00 0. -1.
         -2   -1    0    0    0  501 -0.00000000000E+00 -0.00000000000E+00 -0.10990243096E+04  0.10990243096E+04  0.00000000000E+00 0.  1.
        -24    2    1    2    0    0 -0.61015612112E+03 -0.60772042708E+03 -0.53381521289E+03  0.10160263964E+04  0.75738675794E+02 0.  0.
    5000000    2    1    2    0    0  0.61015612112E+03  0.60772042708E+03  0.52549736516E+03  0.11737043752E+04  0.59984987276E+03 0.  0.
        -24    2    4    4    0    0  0.71551555230E+03  0.54011412476E+03  0.43720894288E+03  0.10007830395E+04  0.82032061242E+02 0.  0.
         24    2    4    4    0    0 -0.10535943118E+03  0.67606302318E+02  0.88288422281E+02  0.17292133566E+03  0.80222945374E+02 0.  0.
         11    1    5    5    0    0  0.11724638447E+02  0.26407043935E+02  0.13326087243E+02  0.31817977895E+02  0.00000000000E+00 0. -1.
        -12    1    5    5    0    0  0.70379091386E+03  0.51370708082E+03  0.42388285563E+03  0.96896506161E+03  0.00000000000E+00 0.  1.
         13    1    3    3    0    0 -0.28435854919E+03 -0.33132465450E+03 -0.25040098759E+03  0.50332540743E+03  0.00000000000E+00 0. -1.
        -14    1    3    3    0    0 -0.32579757193E+03 -0.27639577258E+03 -0.28341422530E+03  0.51270098896E+03  0.00000000000E+00 0.  1.
          2    1    6    6  502    0  0.55315830865E+01  0.25140901099E+02  0.33228097445E+02  0.42032960630E+02  0.00000000000E+00 0. -1.
         -1    1    6    6    0  502 -0.11089101427E+03  0.42465401219E+02  0.55060324836E+02  0.13088837503E+03  0.00000000000E+00 0.  1.
<mgrwt>
<rscale>  0 0.95428677E+03</rscale>
<asrwt>0</asrwt>
<pdfrwt beam="1">  1        1 0.16780099E+00 0.95428677E+03</pdfrwt>
<pdfrwt beam="2">  1       -2 0.16908066E+00 0.95428677E+03</pdfrwt>
<totfact> 0.24477576E+00</totfact>
</mgrwt>
</event>
<event>
12    3  0.2269558E-007  0.6440699E+03  0.7818608E-02  0.9817971E-01
          3   -1    0    0  501    0  0.00000000000E+00  0.00000000000E+00  0.23948974152E+04  0.23948974152E+04  0.00000000000E+00 0. -1.
         -4   -1    0    0    0  501 -0.00000000000E+00 -0.00000000000E+00 -0.23300661216E+03  0.23300661216E+03  0.00000000000E+00 0.  1.
        -24    2    1    2    0    0  0.23346851582E+02 -0.51412052021E+03  0.29028552780E+03  0.59621572376E+03  0.79639919790E+02 0.  0.
    5000000    2    1    2    0    0 -0.23346851582E+02  0.51412052021E+03  0.18716052753E+04  0.20316883036E+04  0.59998839314E+03 0.  0.
        -24    2    4    4    0    0 -0.27588543765E+03  0.39926536885E+03  0.13176853433E+04  0.14064720209E+04  0.79644662555E+02 0.  0.
         24    2    4    4    0    0  0.25253858607E+03  0.11485515136E+03  0.55391993200E+03  0.62521628272E+03  0.84265448778E+02 0.  0.
         11    1    5    5    0    0 -0.19363859799E+03  0.21576678450E+03  0.73826025978E+03  0.79314527237E+03  0.00000000000E+00 0. -1.
        -12    1    5    5    0    0 -0.82246839667E+02  0.18349858435E+03  0.57942508348E+03  0.61332674853E+03  0.00000000000E+00 0.  1.
         13    1    3    3    0    0 -0.20863992197E+02 -0.31544372731E+03  0.19542050979E+03  0.37165740530E+03  0.00000000000E+00 0. -1.
        -14    1    3    3    0    0  0.44210843779E+02 -0.19867679290E+03  0.94865018010E+02  0.22455831845E+03  0.00000000000E+00 0.  1.
          4    1    6    6  502    0  0.54715477915E+02  0.26938372050E+02  0.21139616982E+03  0.22001772662E+03  0.00000000000E+00 0. -1.
         -3    1    6    6    0  502  0.19782310816E+03  0.87916779309E+02  0.34252376218E+03  0.40519855609E+03  0.00000000000E+00 0.  1.
<mgrwt>
<rscale>  0 0.64406988E+03</rscale>
<asrwt>0</asrwt>
<pdfrwt beam="1">  1        3 0.36844574E+00 0.64406988E+03</pdfrwt>
<pdfrwt beam="2">  1       -4 0.35847173E-01 0.64406988E+03</pdfrwt>
<totfact> 0.29449035E-01</totfact>
</mgrwt>
</event>
<event>
12    3  0.2269558E-007  0.7768378E+03  0.7818608E-02  0.9594162E-01
         -2   -1    0    0    0  501 -0.00000000000E+00  0.00000000000E+00  0.17031202825E+04  0.17031202825E+04  0.00000000000E+00 0.  1.
          1   -1    0    0  501    0  0.00000000000E+00 -0.00000000000E+00 -0.11670885039E+04  0.11670885039E+04  0.00000000000E+00 0. -1.
        -24    2    1    2    0    0 -0.67452441565E+03  0.53716672484E+02 -0.92694328710E+03  0.11502793148E+04  0.77781593591E+02 0.  0.
    5000000    2    1    2    0    0  0.67452441565E+03 -0.53716672484E+02  0.14629750657E+04  0.17199294716E+04  0.59999389697E+03 0.  0.
        -24    2    4    4    0    0  0.56954347340E+03 -0.27006188795E+03  0.11756840526E+04  0.13363713410E+04  0.79637793076E+02 0.  0.
         24    2    4    4    0    0  0.10498094225E+03  0.21634521546E+03  0.28729101307E+03  0.38355813064E+03  0.82185539447E+02 0.  0.
         11    1    3    3    0    0 -0.39399620461E+03  0.25577328578E+02 -0.60382809211E+03  0.72145379187E+03  0.00000000000E+00 0. -1.
        -12    1    3    3    0    0 -0.28052821104E+03  0.28139343906E+02 -0.32311519499E+03  0.42882552291E+03  0.00000000000E+00 0.  1.
         13    1    5    5    0    0  0.23725965551E+03 -0.15254981888E+03  0.55648804077E+03  0.62389304443E+03  0.00000000000E+00 0. -1.
        -14    1    5    5    0    0  0.33228381789E+03 -0.11751206907E+03  0.61919601183E+03  0.71247829657E+03  0.00000000000E+00 0.  1.
          2    1    6    6  502    0  0.59598695448E+02  0.15517454335E+03  0.24606558428E+03  0.29695018972E+03  0.00000000000E+00 0. -1.
         -1    1    6    6    0  502  0.45382246805E+02  0.61170672110E+02  0.41225428790E+02  0.86607940920E+02  0.00000000000E+00 0.  1.
<mgrwt>
<rscale>  0 0.77683785E+03</rscale>
<asrwt>0</asrwt>
<pdfrwt beam="1">  1        1 0.17955208E+00 0.77683785E+03</pdfrwt>
<pdfrwt beam="2">  1       -2 0.26201851E+00 0.77683785E+03</pdfrwt>
<totfact> 0.55981826E-01</totfact>
</mgrwt>
</event>
<event>
12    3  0.2269558E-007  0.5152515E+03  0.7818608E-02  0.1009873E+00
          1   -1    0    0  501    0  0.00000000000E+00  0.00000000000E+00  0.39110843467E+03  0.39110843467E+03  0.00000000000E+00 0. -1.
         -2   -1    0    0    0  501 -0.00000000000E+00 -0.00000000000E+00 -0.85981494796E+03  0.85981494796E+03  0.00000000000E+00 0.  1.
        -24    2    1    2    0    0 -0.24171613929E+03 -0.26241330430E+03 -0.41141265838E+03  0.55055039456E+03  0.80981029958E+02 0.  0.
    5000000    2    1    2    0    0  0.24171613929E+03  0.26241330430E+03 -0.57293854916E+02  0.70037298807E+03  0.59996025063E+03 0.  0.
        -24    2    4    4    0    0  0.20988576591E+03  0.42730691147E+03  0.42845652304E+02  0.48465733827E+03  0.80085918234E+02 0.  0.
         24    2    4    4    0    0  0.31830373386E+02 -0.16489360717E+03 -0.10013950722E+03  0.21571564980E+03  0.91116663170E+02 0.  0.
         11    1    5    5    0    0  0.19275244373E+03  0.33563876340E+03  0.15025305337E+02  0.38734047537E+03  0.00000000000E+00 0. -1.
        -12    1    5    5    0    0  0.17133322175E+02  0.91668148065E+02  0.27820346967E+02  0.97316862896E+02  0.00000000000E+00 0.  1.
         11    1    3    3    0    0 -0.10547957954E+03 -0.14855516644E+03 -0.15819958965E+03  0.24129171006E+03  0.00000000000E+00 0. -1.
        -12    1    3    3    0    0 -0.13623655975E+03 -0.11385813786E+03 -0.25321306873E+03  0.30925868451E+03  0.00000000000E+00 0.  1.
          2    1    6    6  502    0 -0.29110064529E+02 -0.85820317961E+02 -0.39067975445E+02  0.98685508243E+02  0.00000000000E+00 0. -1.
         -1    1    6    6    0  502  0.60940437915E+02 -0.79073289206E+02 -0.61071531775E+02  0.11703014156E+03  0.00000000000E+00 0.  1.
<mgrwt>
<rscale>  0 0.51525147E+03</rscale>
<asrwt>0</asrwt>
<pdfrwt beam="1">  1        1 0.60170529E-01 0.51525147E+03</pdfrwt>
<pdfrwt beam="2">  1       -2 0.13227922E+00 0.51525147E+03</pdfrwt>
<totfact> 0.23354363E+01</totfact>
</mgrwt>
</event>
<event>
12    3  0.2269558E-007  0.1224162E+04  0.7818608E-02  0.9091967E-01
          1   -1    0    0  501    0  0.00000000000E+00  0.00000000000E+00  0.17652568303E+04  0.17652568303E+04  0.00000000000E+00 0. -1.
         -2   -1    0    0    0  501 -0.00000000000E+00 -0.00000000000E+00 -0.99280699093E+03  0.99280699093E+03  0.00000000000E+00 0.  1.
        -24    2    1    2    0    0 -0.11702568732E+04  0.24116067123E+02  0.83686630549E+03  0.14411465892E+04  0.80470766046E+02 0.  0.
    5000000    2    1    2    0    0  0.11702568732E+04 -0.24116067123E+02 -0.64416466093E+02  0.13169172321E+04  0.60003231662E+03 0.  0.
        -24    2    4    4    0    0  0.22147161830E+02  0.11740235170E+03 -0.58147104909E+02  0.15724898735E+03  0.84097260665E+02 0.  0.
         24    2    4    4    0    0  0.11481097114E+04 -0.14151841883E+03 -0.62693611841E+01  0.11596682447E+04  0.81288133514E+02 0.  0.
         11    1    5    5    0    0  0.85536133401E+00  0.20207384254E+02 -0.53999350553E+02  0.57662811946E+02  0.00000000000E+00 0. -1.
        -12    1    5    5    0    0  0.21291800496E+02  0.97194967448E+02 -0.41477543565E+01  0.99586175405E+02  0.00000000000E+00 0.  1.
         13    1    3    3    0    0 -0.75523011899E+03  0.19338499616E+02  0.49249034007E+03  0.90182772483E+03  0.00000000000E+00 0. -1.
        -14    1    3    3    0    0 -0.41502675424E+03  0.47775675077E+01  0.34437596542E+03  0.53931886435E+03  0.00000000000E+00 0.  1.
          2    1    6    6  502    0  0.14028414605E+03 -0.35315714556E+02  0.19280849434E+02  0.14594037304E+03  0.00000000000E+00 0. -1.
         -1    1    6    6    0  502  0.10078255654E+04 -0.10620270427E+03 -0.25550210618E+02  0.10137278717E+04  0.00000000000E+00 0.  1.
<mgrwt>
<rscale>  0 0.12241621E+04</rscale>
<asrwt>0</asrwt>
<pdfrwt beam="1">  1        1 0.27157797E+00 0.12241621E+04</pdfrwt>
<pdfrwt beam="2">  1       -2 0.15273954E+00 0.12241621E+04</pdfrwt>
<totfact> 0.10489358E+00</totfact>
</mgrwt>
</event>
<event>
12    3  0.2269558E-007  0.9465753E+03  0.7818608E-02  0.9369162E-01
         -2   -1    0    0    0  501 -0.00000000000E+00  0.00000000000E+00  0.88432212746E+03  0.88432212746E+03  0.00000000000E+00 0.  1.
          1   -1    0    0  501    0  0.00000000000E+00 -0.00000000000E+00 -0.10302524649E+04  0.10302524649E+04  0.00000000000E+00 0. -1.
        -24    2    1    2    0    0 -0.70043052471E+03  0.49234076705E+03 -0.78729027496E+01  0.85997099930E+03  0.80534378998E+02 0.  0.
    5000000    2    1    2    0    0  0.70043052471E+03 -0.49234076705E+03 -0.13805743465E+03  0.10546035930E+04  0.60010543430E+03 0.  0.
        -24    2    4    4    0    0 -0.81151152636E+02 -0.13544446963E+03  0.21407451856E+02  0.17700266154E+03  0.77077553604E+02 0.  0.
         24    2    4    4    0    0  0.78158167734E+03 -0.35689629742E+03 -0.15946488650E+03  0.87760093146E+03  0.80681220924E+02 0.  0.
         11    1    5    5    0    0 -0.65217429451E+02 -0.44644327427E+02  0.29727869099E+02  0.84440365210E+02  0.00000000000E+00 0. -1.
        -12    1    5    5    0    0 -0.15933723185E+02 -0.90800142206E+02 -0.83204172426E+01  0.92562296332E+02  0.00000000000E+00 0.  1.
         13    1    3    3    0    0 -0.65119189928E+03  0.47854606789E+03 -0.15515716013E+02  0.80826849884E+03  0.00000000000E+00 0. -1.
        -14    1    3    3    0    0 -0.49238625429E+02  0.13794699160E+02  0.76428132631E+01  0.51702500458E+02  0.00000000000E+00 0.  1.
          4    1    6    6  502    0  0.62847697089E+03 -0.25217630895E+03 -0.13491441350E+03  0.69049119669E+03  0.00000000000E+00 0. -1.
         -3    1    6    6    0  502  0.15310470646E+03 -0.10471998847E+03 -0.24550473000E+02  0.18710973478E+03  0.00000000000E+00 0.  1.
<mgrwt>
<rscale>  0 0.94657532E+03</rscale>
<asrwt>0</asrwt>
<pdfrwt beam="1">  1        1 0.15850038E+00 0.94657532E+03</pdfrwt>
<pdfrwt beam="2">  1       -2 0.13604956E+00 0.94657532E+03</pdfrwt>
<totfact> 0.48694085E+00</totfact>
</mgrwt>
</event>
<event>
12    3  0.2269558E-007  0.6623504E+03  0.7818608E-02  0.9783877E-01
          1   -1    0    0  501    0  0.00000000000E+00  0.00000000000E+00  0.35893084783E+03  0.35893084783E+03  0.00000000000E+00 0. -1.
         -2   -1    0    0    0  501 -0.00000000000E+00 -0.00000000000E+00 -0.12646088061E+04  0.12646088061E+04  0.00000000000E+00 0.  1.
        -24    2    1    2    0    0 -0.52613071357E+02 -0.53112422320E+03 -0.43043091232E+03  0.69040490657E+03  0.80790401552E+02 0.  0.
    5000000    2    1    2    0    0  0.52613071357E+02  0.53112422320E+03 -0.47524704592E+03  0.93313474734E+03  0.60001635502E+03 0.  0.
        -24    2    4    4    0    0  0.18897947446E+03  0.59689343268E+03 -0.36690348326E+03  0.72983973816E+03  0.77800164661E+02 0.  0.
         24    2    4    4    0    0 -0.13636640311E+03 -0.65769209473E+02 -0.10834356266E+03  0.20329500919E+03  0.81664854001E+02 0.  0.
         11    1    5    5    0    0  0.14823649355E+03  0.48860642890E+03 -0.26308134331E+03  0.57438845181E+03  0.00000000000E+00 0. -1.
        -12    1    5    5    0    0  0.40742980914E+02  0.10828700378E+03 -0.10382213995E+03  0.15545128634E+03  0.00000000000E+00 0.  1.
         11    1    3    3    0    0 -0.30687906008E+02 -0.36562283327E+03 -0.34152855778E+03  0.50126196700E+03  0.00000000000E+00 0. -1.
        -12    1    3    3    0    0 -0.21925165349E+02 -0.16550138993E+03 -0.88902354543E+02  0.18914293957E+03  0.00000000000E+00 0.  1.
          2    1    6    6  502    0 -0.95126698677E+02 -0.76345890565E+02 -0.51806419657E+02  0.13252052266E+03  0.00000000000E+00 0. -1.
         -1    1    6    6    0  502 -0.41239704428E+02  0.10576681092E+02 -0.56537143007E+02  0.70774486531E+02  0.00000000000E+00 0.  1.
<mgrwt>
<rscale>  0 0.66235044E+03</rscale>
<asrwt>0</asrwt>
<pdfrwt beam="1">  1        1 0.55220131E-01 0.66235044E+03</pdfrwt>
<pdfrwt beam="2">  1       -2 0.19455520E+00 0.66235044E+03</pdfrwt>
<totfact> 0.90322339E+00</totfact>
</mgrwt>
</event>
<event>
12    3  0.2269558E-007  0.6553856E+03  0.7818608E-02  0.9796726E-01
          1   -1    0    0  501    0  0.00000000000E+00  0.00000000000E+00  0.21452911900E+04  0.21452911900E+04  0.00000000000E+00 0. -1.
         -2   -1    0    0    0  501 -0.00000000000E+00 -0.00000000000E+00 -0.27531284387E+03  0.27531284387E+03  0.00000000000E+00 0.  1.
        -24    2    1    2    0    0  0.21867126717E+03  0.60935717708E+03  0.73345865786E+03  0.98150318127E+03  0.79079704799E+02 0.  0.
    5000000    2    1    2    0    0 -0.21867126717E+03 -0.60935717708E+03  0.11365196883E+04  0.14391008526E+04  0.60016745146E+03 0.  0.
        -24    2    4    4    0    0 -0.90170159191E+02 -0.17968884035E+03  0.11372400375E+01  0.21568568525E+03  0.78104318403E+02 0.  0.
         24    2    4    4    0    0 -0.12850110798E+03 -0.42966833673E+03  0.11353824482E+04  0.12234151674E+04  0.80770994814E+02 0.  0.
         11    1    5    5    0    0 -0.70283939936E+02 -0.99400979669E+02 -0.33111300042E+02  0.12616158354E+03  0.00000000000E+00 0. -1.
        -12    1    5    5    0    0 -0.19886219255E+02 -0.80287860681E+02  0.34248540080E+02  0.89524101708E+02  0.00000000000E+00 0.  1.
         13    1    3    3    0    0  0.10434086518E+03  0.19886736400E+03  0.28557017337E+03  0.36329818129E+03  0.00000000000E+00 0. -1.
        -14    1    3    3    0    0  0.11433040200E+03  0.41048981308E+03  0.44788848449E+03  0.61820499998E+03  0.00000000000E+00 0.  1.
          2    1    6    6  502    0 -0.99297533309E+02 -0.19187679515E+03  0.54844008481E+03  0.58946011847E+03  0.00000000000E+00 0. -1.
         -3    1    6    6    0  502 -0.29203574674E+02 -0.23779154158E+03  0.58694236343E+03  0.63395504889E+03  0.00000000000E+00 0.  1.
<mgrwt>
<rscale>  0 0.65538558E+03</rscale>
<asrwt>0</asrwt>
<pdfrwt beam="1">  1        1 0.33004479E+00 0.65538558E+03</pdfrwt>
<pdfrwt beam="2">  1       -2 0.42355823E-01 0.65538558E+03</pdfrwt>
<totfact> 0.11665113E+01</totfact>
</mgrwt>
</event>
<event>
12    3  0.2269558E-007  0.1097931E+04  0.7818608E-02  0.9207210E-01
          1   -1    0    0  501    0  0.00000000000E+00  0.00000000000E+00  0.19856087510E+04  0.19856087510E+04  0.00000000000E+00 0. -1.
         -2   -1    0    0    0  501 -0.00000000000E+00 -0.00000000000E+00 -0.86537846963E+03  0.86537846963E+03  0.00000000000E+00 0.  1.
        -24    2    1    2    0    0  0.99733281382E+03 -0.21261841963E+03 -0.23761449710E+03  0.10499799424E+04  0.78216982206E+02 0.  0.
    5000000    2    1    2    0    0 -0.99733281382E+03  0.21261841963E+03  0.13578447785E+04  0.18010072783E+04  0.60000453334E+03 0.  0.
        -24    2    4    4    0    0 -0.79901081024E+03  0.40080034892E+03  0.10455974842E+04  0.13780558004E+04  0.81880982305E+02 0.  0.
         24    2    4    4    0    0 -0.19832200359E+03 -0.18818192929E+03  0.31224729426E+03  0.42295147793E+03  0.81520085212E+02 0.  0.
         13    1    5    5    0    0 -0.17304277024E+03  0.91760474184E+02  0.17984595009E+03  0.26591041860E+03  0.00000000000E+00 0. -1.
        -14    1    5    5    0    0 -0.62596804000E+03  0.30903987473E+03  0.86575153415E+03  0.11121453818E+04  0.00000000000E+00 0.  1.
         13    1    3    3    0    0  0.19763671769E+03 -0.15834261228E+02 -0.63835175646E+02  0.20829288432E+03  0.00000000000E+00 0. -1.
        -14    1    3    3    0    0  0.79969609613E+03 -0.19678415840E+03 -0.17377932145E+03  0.84168705807E+03  0.00000000000E+00 0.  1.
          2    1    6    6  502    0 -0.45088252202E+02 -0.82226507688E+02  0.14448390829E+03  0.17224908942E+03  0.00000000000E+00 0. -1.
         -1    1    6    6    0  502 -0.15323375139E+03 -0.10595542160E+03  0.16776338597E+03  0.25070238851E+03  0.00000000000E+00 0.  1.
<mgrwt>
<rscale>  0 0.10979315E+04</rscale>
<asrwt>0</asrwt>
<pdfrwt beam="1">  1        1 0.30547827E+00 0.10979315E+04</pdfrwt>
<pdfrwt beam="2">  1       -2 0.13313515E+00 0.10979315E+04</pdfrwt>
<totfact> 0.10831812E+00</totfact>
</mgrwt>
</event>
<event>
12    3  0.2269558E-007  0.9283636E+03  0.7818608E-02  0.9390804E-01
          1   -1    0    0  501    0  0.00000000000E+00  0.00000000000E+00  0.25747979710E+04  0.25747979710E+04  0.00000000000E+00 0. -1.
         -2   -1    0    0    0  501 -0.00000000000E+00 -0.00000000000E+00 -0.47251353969E+03  0.47251353969E+03  0.00000000000E+00 0.  1.
        -24    2    1    2    0    0  0.14718376350E+03 -0.91460796829E+03  0.15636473801E+04  0.18192257072E+04  0.80113971080E+02 0.  0.
    5000000    2    1    2    0    0 -0.14718376350E+03  0.91460796829E+03  0.53863705117E+03  0.12280858035E+04  0.59991172015E+03 0.  0.
        -24    2    4    4    0    0 -0.21224528875E+02  0.28412338739E+03  0.49752464041E+03  0.57872961031E+03  0.78870870041E+02 0.  0.
         24    2    4    4    0    0 -0.12595923463E+03  0.63048458090E+03  0.41112410755E+02  0.64935619320E+03  0.81220070080E+02 0.  0.
         11    1    5    5    0    0 -0.19587685746E+02  0.85690496676E+02  0.22542010803E+03  0.24195198648E+03  0.00000000000E+00 0. -1.
        -12    1    5    5    0    0 -0.16368431292E+01  0.19843289072E+03  0.27210453238E+03  0.33677762383E+03  0.00000000000E+00 0.  1.
         11    1    3    3    0    0  0.10670219658E+03 -0.76380467547E+03  0.12479449776E+04  0.14670206570E+04  0.00000000000E+00 0. -1.
        -12    1    3    3    0    0  0.40481566929E+02 -0.15080329282E+03  0.31570240257E+03  0.35220505019E+03  0.00000000000E+00 0.  1.
          4    1    6    6  502    0 -0.75620924773E+02  0.35295619599E+03 -0.17036113780E+02  0.36136799764E+03  0.00000000000E+00 0. -1.
         -3    1    6    6    0  502 -0.50338309857E+02  0.27752838491E+03  0.58148524535E+02  0.28798819555E+03  0.00000000000E+00 0.  1.
<mgrwt>
<rscale>  0 0.92836358E+03</rscale>
<asrwt>0</asrwt>
<pdfrwt beam="1">  1        1 0.39612276E+00 0.92836358E+03</pdfrwt>
<pdfrwt beam="2">  1       -2 0.72694392E-01 0.92836358E+03</pdfrwt>
<totfact> 0.18544488E+00</totfact>
</mgrwt>
</event>
<event>
12    3  0.2269558E-007  0.6854661E+03  0.7818608E-02  0.9742415E-01
          1   -1    0    0  501    0  0.00000000000E+00  0.00000000000E+00  0.19587097122E+04  0.19587097122E+04  0.00000000000E+00 0. -1.
         -2   -1    0    0    0  501 -0.00000000000E+00 -0.00000000000E+00 -0.26307703316E+03  0.26307703316E+03  0.00000000000E+00 0.  1.
        -24    2    1    2    0    0 -0.49140098123E+03 -0.31709647075E+03  0.59273822956E+03  0.83671285443E+03  0.82004242992E+02 0.  0.
    5000000    2    1    2    0    0  0.49140098123E+03  0.31709647075E+03  0.11028944495E+04  0.13850738910E+04  0.60002368332E+03 0.  0.
        -24    2    4    4    0    0 -0.28643928642E+02 -0.10345057928E+03  0.65855205145E+02  0.14855929064E+03  0.78806457794E+02 0.  0.
         24    2    4    4    0    0  0.52004490987E+03  0.42054705003E+03  0.10370392444E+04  0.12365146003E+04  0.78812644189E+02 0.  0.
         11    1    3    3    0    0 -0.11200280086E+03 -0.11390116258E+03  0.14659828075E+03  0.21681595457E+03  0.00000000000E+00 0. -1.
        -12    1    3    3    0    0 -0.37939818037E+03 -0.20319530818E+03  0.44613994882E+03  0.61989689987E+03  0.00000000000E+00 0.  1.
         11    1    5    5    0    0 -0.49539071296E+01 -0.24859332841E+02 -0.18097899838E+02  0.31145811977E+02  0.00000000000E+00 0. -1.
        -12    1    5    5    0    0 -0.23690021512E+02 -0.78591246436E+02  0.83953104983E+02  0.11741347866E+03  0.00000000000E+00 0.  1.
          4    1    6    6  502    0  0.15121136043E+03  0.16983043306E+03  0.34202005026E+03  0.41071275399E+03  0.00000000000E+00 0. -1.
         -3    1    6    6    0  502  0.36883354944E+03  0.25071661697E+03  0.69501919411E+03  0.82580184633E+03  0.00000000000E+00 0.  1.
<mgrwt>
<rscale>  0 0.68546609E+03</rscale>
<asrwt>0</asrwt>
<pdfrwt beam="1">  1        1 0.30133995E+00 0.68546609E+03</pdfrwt>
<pdfrwt beam="2">  1       -2 0.40473391E-01 0.68546609E+03</pdfrwt>
<totfact> 0.16902029E+01</totfact>
</mgrwt>
</event>
<event>
12    3  0.2269558E-007  0.1772311E+04  0.7818608E-02  0.8721164E-01
         -2   -1    0    0    0  501 -0.00000000000E+00  0.00000000000E+00  0.20028763425E+04  0.20028763425E+04  0.00000000000E+00 0.  1.
          1   -1    0    0  501    0  0.00000000000E+00 -0.00000000000E+00 -0.23305726815E+04  0.23305726815E+04  0.00000000000E+00 0. -1.
        -24    2    1    2    0    0 -0.12862188024E+04  0.11725617748E+04 -0.13711745078E+04  0.22171578641E+04  0.80059605500E+02 0.  0.
    5000000    2    1    2    0    0  0.12862188024E+04 -0.11725617748E+04  0.10434781688E+04  0.21162911600E+04  0.60048452267E+03 0.  0.
        -24    2    4    4    0    0  0.37640369601E+02 -0.20921527478E+03  0.28860959751E+03  0.36610635636E+03  0.74501917918E+02 0.  0.
         24    2    4    4    0    0  0.12485784328E+04 -0.96334649997E+03  0.75486857126E+03  0.17501848036E+04  0.79597142944E+02 0.  0.
         11    1    3    3    0    0 -0.54243681567E+03  0.47889757666E+03 -0.61824454662E+03  0.95173888612E+03  0.00000000000E+00 0. -1.
        -12    1    3    3    0    0 -0.74378198670E+03  0.69366419809E+03 -0.75292996113E+03  0.12654189780E+04  0.00000000000E+00 0.  1.
         13    1    5    5    0    0  0.33442827598E+01 -0.18033438885E+03  0.23418210369E+03  0.29558912990E+03  0.00000000000E+00 0. -1.
        -14    1    5    5    0    0  0.34296086841E+02 -0.28880885933E+02  0.54427493816E+02  0.70517226462E+02  0.00000000000E+00 0.  1.
          2    1    6    6  502    0  0.58275316674E+03 -0.49676930632E+03  0.35088407215E+03  0.84231860311E+03  0.00000000000E+00 0. -1.
         -1    1    6    6    0  502  0.66582526603E+03 -0.46657719365E+03  0.40398449911E+03  0.90786620051E+03  0.00000000000E+00 0.  1.
<mgrwt>
<rscale>  0 0.17723107E+04</rscale>
<asrwt>0</asrwt>
<pdfrwt beam="1">  1        1 0.35854964E+00 0.17723107E+04</pdfrwt>
<pdfrwt beam="2">  1       -2 0.30813482E+00 0.17723107E+04</pdfrwt>
<totfact> 0.40062627E-02</totfact>
</mgrwt>
</event>
<event>
12    3  0.2269558E-007  0.1434724E+04  0.7818608E-02  0.8929060E-01
          1   -1    0    0  501    0  0.00000000000E+00  0.00000000000E+00  0.13164948088E+04  0.13164948088E+04  0.00000000000E+00 0. -1.
         -2   -1    0    0    0  501 -0.00000000000E+00 -0.00000000000E+00 -0.18737305282E+04  0.18737305282E+04  0.00000000000E+00 0.  1.
        -24    2    1    2    0    0  0.14223234871E+04  0.87631580896E+02  0.24522969021E+03  0.14481563191E+04  0.79597284460E+02 0.  0.
    5000000    2    1    2    0    0 -0.14223234871E+04 -0.87631580896E+02 -0.80246540959E+03  0.17420690179E+04  0.60014192787E+03 0.  0.
        -24    2    4    4    0    0 -0.12885493660E+04 -0.12838751629E+03 -0.47790550015E+03  0.13819663375E+04  0.67782504241E+02 0.  0.
         24    2    4    4    0    0 -0.13377412104E+03  0.40755935392E+02 -0.32455990945E+03  0.36010268037E+03  0.69124842566E+02 0.  0.
         11    1    5    5    0    0 -0.63427706224E+03 -0.34225714431E+02 -0.21522126273E+03  0.67067054740E+03  0.00000000000E+00 0. -1.
        -12    1    5    5    0    0 -0.65427230378E+03 -0.94161801857E+02 -0.26268423741E+03  0.71129579010E+03  0.00000000000E+00 0.  1.
         11    1    3    3    0    0  0.69950659706E+03  0.45709637799E+02  0.80349285873E+02  0.70558830635E+03  0.00000000000E+00 0. -1.
        -12    1    3    3    0    0  0.72281688999E+03  0.41921943097E+02  0.16488040433E+03  0.74256801271E+03  0.00000000000E+00 0.  1.
          2    1    6    6  502    0 -0.30351384460E+02  0.32474775793E+02 -0.15564459451E+03  0.16186740686E+03  0.00000000000E+00 0. -1.
         -1    1    6    6    0  502 -0.10342273658E+03  0.82811595993E+01 -0.16891531493E+03  0.19823527351E+03  0.00000000000E+00 0.  1.
<mgrwt>
<rscale>  0 0.14347236E+04</rscale>
<asrwt>0</asrwt>
<pdfrwt beam="1">  1        1 0.20253766E+00 0.14347236E+04</pdfrwt>
<pdfrwt beam="2">  1       -2 0.28826623E+00 0.14347236E+04</pdfrwt>
<totfact> 0.27524483E-01</totfact>
</mgrwt>
</event>
<event>
12    3  0.2269558E-007  0.1172183E+04  0.7818608E-02  0.9137559E-01
          1   -1    0    0  501    0  0.00000000000E+00  0.00000000000E+00  0.14110808797E+04  0.14110808797E+04  0.00000000000E+00 0. -1.
         -2   -1    0    0    0  501 -0.00000000000E+00 -0.00000000000E+00 -0.11722682610E+04  0.11722682610E+04  0.00000000000E+00 0.  1.
        -24    2    1    2    0    0 -0.64801989759E+03 -0.96971722058E+03 -0.22776696510E+03  0.11909939719E+04  0.79420243598E+02 0.  0.
    5000000    2    1    2    0    0  0.64801989759E+03  0.96971722058E+03  0.46657958382E+03  0.13923551689E+04  0.60056234699E+03 0.  0.
        -24    2    4    4    0    0  0.30658487077E+03  0.35463830110E+03  0.49227844952E+03  0.68439776035E+03  0.79370113556E+02 0.  0.
         24    2    4    4    0    0  0.34143502682E+03  0.61507891948E+03 -0.25698865694E+02  0.70795740850E+03  0.75121939678E+02 0.  0.
         11    1    5    5    0    0  0.19483911654E+03  0.16987378361E+03  0.29062746955E+03  0.38895206614E+03  0.00000000000E+00 0. -1.
        -12    1    5    5    0    0  0.11174575423E+03  0.18476451749E+03  0.20165097996E+03  0.29544569422E+03  0.00000000000E+00 0.  1.
         13    1    3    3    0    0 -0.27595900721E+03 -0.42832490778E+03 -0.60377369147E+02  0.51308968708E+03  0.00000000000E+00 0. -1.
        -14    1    3    3    0    0 -0.37206089038E+03 -0.54139231280E+03 -0.16738959595E+03  0.67790428479E+03  0.00000000000E+00 0.  1.
          2    1    6    6  502    0  0.68857661895E+02  0.12785260264E+03 -0.35847188296E+02  0.14957501968E+03  0.00000000000E+00 0. -1.
         -1    1    6    6    0  502  0.27257736493E+03  0.48722631684E+03  0.10148322602E+02  0.55838238882E+03  0.00000000000E+00 0.  1.
<mgrwt>
<rscale>  0 0.11721835E+04</rscale>
<asrwt>0</asrwt>
<pdfrwt beam="1">  1        1 0.21708937E+00 0.11721835E+04</pdfrwt>
<pdfrwt beam="2">  1       -2 0.18034896E+00 0.11721835E+04</pdfrwt>
<totfact> 0.11662645E+00</totfact>
</mgrwt>
</event>
<event>
12    3  0.2269558E-007  0.4527586E+03  0.7818608E-02  0.1026903E+00
          1   -1    0    0  501    0  0.00000000000E+00  0.00000000000E+00  0.77000117545E+03  0.77000117545E+03  0.00000000000E+00 0. -1.
         -2   -1    0    0    0  501 -0.00000000000E+00 -0.00000000000E+00 -0.27549363452E+03  0.27549363452E+03  0.00000000000E+00 0.  1.
        -24    2    1    2    0    0 -0.23995145886E+03 -0.84668183238E+02  0.10541231391E+03  0.28644952825E+03  0.78715770016E+02 0.  0.
    5000000    2    1    2    0    0  0.23995145886E+03  0.84668183238E+02  0.38909522702E+03  0.75904528171E+03  0.60000770007E+03 0.  0.
        -24    2    4    4    0    0  0.13131367093E+03 -0.24819071244E+03  0.15329285430E+03  0.32999635702E+03  0.80975221829E+02 0.  0.
         24    2    4    4    0    0  0.10863778793E+03  0.33285889568E+03  0.23580237272E+03  0.42904892470E+03  0.76700765355E+02 0.  0.
         13    1    5    5    0    0  0.25389656412E+02 -0.65868301685E+02  0.80166868554E+02  0.10681757643E+03  0.00000000000E+00 0. -1.
        -14    1    5    5    0    0  0.10592401452E+03 -0.18232241075E+03  0.73125985749E+02  0.22317878059E+03  0.00000000000E+00 0.  1.
         13    1    3    3    0    0 -0.17323713504E+03 -0.22661793611E+02  0.60444575264E+02  0.18487349330E+03  0.00000000000E+00 0. -1.
        -14    1    3    3    0    0 -0.66714323824E+02 -0.62006389627E+02  0.44967738643E+02  0.10157603495E+03  0.00000000000E+00 0.  1.
          2    1    6    6  502    0  0.14107697684E+01  0.11928234895E+03  0.84745888421E+02  0.14632885788E+03  0.00000000000E+00 0. -1.
         -1    1    6    6    0  502  0.10722701817E+03  0.21357654672E+03  0.15105648430E+03  0.28272006682E+03  0.00000000000E+00 0.  1.
<mgrwt>
<rscale>  0 0.45275859E+03</rscale>
<asrwt>0</asrwt>
<pdfrwt beam="1">  1        1 0.11846172E+00 0.45275859E+03</pdfrwt>
<pdfrwt beam="2">  1       -2 0.42383636E-01 0.45275859E+03</pdfrwt>
<totfact> 0.11307427E+02</totfact>
</mgrwt>
</event>
<event>
12    3  0.2269558E-007  0.9490755E+03  0.7818608E-02  0.9366232E-01
          1   -1    0    0  501    0  0.00000000000E+00  0.00000000000E+00  0.12196038734E+04  0.12196038734E+04  0.00000000000E+00 0. -1.
         -2   -1    0    0    0  501 -0.00000000000E+00 -0.00000000000E+00 -0.14289788893E+04  0.14289788893E+04  0.00000000000E+00 0.  1.
        -24    2    1    2    0    0 -0.33129327524E+03 -0.85921054029E+03 -0.94818027895E+03  0.13242134769E+04  0.80607098623E+02 0.  0.
    5000000    2    1    2    0    0  0.33129327524E+03  0.85921054029E+03  0.73880526308E+03  0.13243692857E+04  0.60010232586E+03 0.  0.
        -24    2    4    4    0    0  0.34779914110E+03  0.51511782562E+03  0.16092407580E+03  0.64700165686E+03  0.80024802334E+02 0.  0.
         24    2    4    4    0    0 -0.16505865852E+02  0.34409271467E+03  0.57788118728E+03  0.67736762889E+03  0.78790850720E+02 0.  0.
         11    1    5    5    0    0  0.19825119244E+03  0.26276891454E+03  0.12222333093E+03  0.35112616020E+03  0.00000000000E+00 0. -1.
        -12    1    5    5    0    0  0.14954794865E+03  0.25234891108E+03  0.38700744872E+02  0.29587549666E+03  0.00000000000E+00 0.  1.
         13    1    3    3    0    0 -0.10901501294E+03 -0.38821968020E+03 -0.39582727439E+03  0.56504692220E+03  0.00000000000E+00 0. -1.
        -14    1    3    3    0    0 -0.22227826231E+03 -0.47099086009E+03 -0.55235300456E+03  0.75916655473E+03  0.00000000000E+00 0.  1.
          4    1    6    6  502    0  0.78326701208E+01  0.30785963047E+03  0.52647590106E+03  0.60993096100E+03  0.00000000000E+00 0. -1.
         -1    1    6    6    0  502 -0.24338535973E+02  0.36233084200E+02  0.51405286218E+02  0.67436667882E+02  0.00000000000E+00 0.  1.
<mgrwt>
<rscale>  0 0.94907553E+03</rscale>
<asrwt>0</asrwt>
<pdfrwt beam="1">  1        1 0.18763137E+00 0.94907553E+03</pdfrwt>
<pdfrwt beam="2">  1       -2 0.21984291E+00 0.94907553E+03</pdfrwt>
<totfact> 0.90363226E-01</totfact>
</mgrwt>
</event>
<event>
12    3  0.2269558E-007  0.7720600E+03  0.7818608E-02  0.9601364E-01
         -2   -1    0    0    0  501 -0.00000000000E+00  0.00000000000E+00  0.52379075311E+03  0.52379075311E+03  0.00000000000E+00 0.  1.
          1   -1    0    0  501    0  0.00000000000E+00 -0.00000000000E+00 -0.11587913268E+04  0.11587913268E+04  0.00000000000E+00 0. -1.
        -24    2    1    2    0    0 -0.15511958095E+03  0.64162745877E+03 -0.30328886151E+03  0.73095583087E+03  0.81021064740E+02 0.  0.
    5000000    2    1    2    0    0  0.15511958095E+03 -0.64162745877E+03 -0.33171171216E+03  0.95162624903E+03  0.59984329422E+03 0.  0.
        -24    2    4    4    0    0  0.33180252741E+03 -0.58862870103E+03 -0.19460275740E+03  0.70831413461E+03  0.85217458458E+02 0.  0.
         24    2    4    4    0    0 -0.17668294646E+03 -0.52998757737E+02 -0.13710895476E+03  0.24331211442E+03  0.79851034156E+02 0.  0.
         13    1    3    3    0    0 -0.12115105916E+03  0.58678587549E+03 -0.25923022888E+03  0.65283654491E+03  0.00000000000E+00 0. -1.
        -14    1    3    3    0    0 -0.33968521797E+02  0.54841583273E+02 -0.44058632631E+02  0.78119285956E+02  0.00000000000E+00 0.  1.
         13    1    5    5    0    0  0.18078968169E+03 -0.23784289776E+03 -0.73499038087E+02  0.30766257754E+03  0.00000000000E+00 0. -1.
        -14    1    5    5    0    0  0.15101284573E+03 -0.35078580327E+03 -0.12110371932E+03  0.40065155707E+03  0.00000000000E+00 0.  1.
          4    1    6    6  502    0 -0.10573718308E+03  0.82478382510E+01 -0.59385079548E+02  0.12155231958E+03  0.00000000000E+00 0. -1.
         -3    1    6    6    0  502 -0.70945763378E+02 -0.61246595988E+02 -0.77723875212E+02  0.12175979484E+03  0.00000000000E+00 0.  1.
<mgrwt>
<rscale>  0 0.77206000E+03</rscale>
<asrwt>0</asrwt>
<pdfrwt beam="1">  1        1 0.17827559E+00 0.77206000E+03</pdfrwt>
<pdfrwt beam="2">  1       -2 0.80583193E-01 0.77206000E+03</pdfrwt>
<totfact> 0.13987243E+01</totfact>
</mgrwt>
</event>
<event>
12    3  0.2269558E-007  0.4903779E+03  0.7818608E-02  0.1016321E+00
         -4   -1    0    0    0  501 -0.00000000000E+00  0.00000000000E+00  0.32413813025E+03  0.32413813025E+03  0.00000000000E+00 0.  1.
          1   -1    0    0  501    0  0.00000000000E+00 -0.00000000000E+00 -0.99033452647E+03  0.99033452647E+03  0.00000000000E+00 0. -1.
        -24    2    1    2    0    0  0.36860460592E+03  0.10364736223E+03 -0.38704871856E+03  0.55027720850E+03  0.79913481075E+02 0.  0.
    5000000    2    1    2    0    0 -0.36860460592E+03 -0.10364736223E+03 -0.27914767766E+03  0.76419544822E+03  0.59954910219E+03 0.  0.
        -24    2    4    4    0    0 -0.41663808662E+03 -0.19198480609E+03 -0.91933962036E+01  0.46570208100E+03  0.79677153042E+02 0.  0.
         24    2    4    4    0    0  0.48033480702E+02  0.88337443865E+02 -0.26995428146E+03  0.29849336722E+03  0.78180924410E+02 0.  0.
         11    1    5    5    0    0 -0.21147000481E+03 -0.14096614592E+03 -0.83274901286E+01  0.25428402294E+03  0.00000000000E+00 0. -1.
        -12    1    5    5    0    0 -0.20516808181E+03 -0.51018660173E+02 -0.86590607500E+00  0.21141805806E+03  0.00000000000E+00 0.  1.
         11    1    3    3    0    0  0.19856183162E+03  0.96860762971E+02 -0.22275232596E+03  0.31373142511E+03  0.00000000000E+00 0. -1.
        -12    1    3    3    0    0  0.17004277430E+03  0.67865992572E+01 -0.16429639260E+03  0.23654578339E+03  0.00000000000E+00 0.  1.
          2    1    6    6  502    0  0.49885302541E+02  0.16966585544E+02 -0.14896945280E+03  0.15801362695E+03  0.00000000000E+00 0. -1.
         -1    1    6    6    0  502 -0.18518218398E+01  0.71370858320E+02 -0.12098482866E+03  0.14047974028E+03  0.00000000000E+00 0.  1.
<mgrwt>
<rscale>  0 0.49037787E+03</rscale>
<asrwt>0</asrwt>
<pdfrwt beam="1">  1        1 0.15235916E+00 0.49037787E+03</pdfrwt>
<pdfrwt beam="2">  1       -4 0.49867404E-01 0.49037787E+03</pdfrwt>
<totfact> 0.29600510E+01</totfact>
</mgrwt>
</event>
<event>
12    3  0.2269558E-007  0.8836119E+03  0.7818608E-02  0.9446302E-01
          1   -1    0    0  501    0  0.00000000000E+00  0.00000000000E+00  0.16043138328E+04  0.16043138328E+04  0.00000000000E+00 0. -1.
         -2   -1    0    0    0  501 -0.00000000000E+00 -0.00000000000E+00 -0.50129446468E+03  0.50129446468E+03  0.00000000000E+00 0.  1.
        -24    2    1    2    0    0  0.66362587311E+03  0.42108079797E+03  0.35537344041E+03  0.86595335533E+03  0.76658943263E+02 0.  0.
    5000000    2    1    2    0    0 -0.66362587311E+03 -0.42108079797E+03  0.74764592774E+03  0.12396549422E+04  0.60005133490E+03 0.  0.
        -24    2    4    4    0    0  0.94947205010E+02 -0.55923963747E+02  0.15961813745E+03  0.21005260596E+03  0.80633032978E+02 0.  0.
         24    2    4    4    0    0 -0.75857307812E+03 -0.36515683422E+03  0.58802779029E+03  0.10296023362E+04  0.74375131297E+02 0.  0.
         11    1    5    5    0    0  0.32840866678E+02 -0.63439904423E+02  0.10505216966E+03  0.12703976680E+03  0.00000000000E+00 0. -1.
        -12    1    5    5    0    0  0.62106338332E+02  0.75159406753E+01  0.54565967791E+02  0.83012839165E+02  0.00000000000E+00 0.  1.
         13    1    3    3    0    0  0.27878393257E+03  0.21120577490E+03  0.13068228921E+03  0.37337142516E+03  0.00000000000E+00 0. -1.
        -14    1    3    3    0    0  0.38484194054E+03  0.20987502307E+03  0.22469115121E+03  0.49258193017E+03  0.00000000000E+00 0.  1.
          4    1    6    6  502    0 -0.59607976840E+03 -0.31965011777E+03  0.46649610709E+03  0.82164828608E+03  0.00000000000E+00 0. -1.
         -3    1    6    6    0  502 -0.16249330972E+03 -0.45506716452E+02  0.12153168320E+03  0.20795405013E+03  0.00000000000E+00 0.  1.
<mgrwt>
<rscale>  0 0.88361193E+03</rscale>
<asrwt>0</asrwt>
<pdfrwt beam="1">  1        1 0.24681751E+00 0.88361193E+03</pdfrwt>
<pdfrwt beam="2">  1       -2 0.77122226E-01 0.88361193E+03</pdfrwt>
<totfact> 0.74203362E+00</totfact>
</mgrwt>
</event>
<event>
12    3  0.2269558E-007  0.7414115E+03  0.7818608E-02  0.9648921E-01
         -2   -1    0    0    0  501 -0.00000000000E+00  0.00000000000E+00  0.62580074255E+03  0.62580074255E+03  0.00000000000E+00 0.  1.
          1   -1    0    0  501    0  0.00000000000E+00 -0.00000000000E+00 -0.11061800847E+04  0.11061800847E+04  0.00000000000E+00 0. -1.
        -24    2    1    2    0    0  0.43437680137E+03 -0.55761570604E+03 -0.36413912331E+03  0.79758775513E+03  0.62693259702E+02 0.  0.
    5000000    2    1    2    0    0 -0.43437680137E+03  0.55761570604E+03 -0.11624021882E+03  0.93439307210E+03  0.59996678535E+03 0.  0.
        -24    2    4    4    0    0 -0.95815886383E+02  0.35439141799E+03 -0.31005168690E+03  0.48743241139E+03  0.81757849107E+02 0.  0.
         24    2    4    4    0    0 -0.33856091498E+03  0.20322428806E+03  0.19381146808E+03  0.44696066071E+03  0.79292765446E+02 0.  0.
         11    1    3    3    0    0  0.97994649768E+02 -0.95429991866E+02 -0.88935945057E+02  0.16315464153E+03  0.00000000000E+00 0. -1.
        -12    1    3    3    0    0  0.33638215160E+03 -0.46218571418E+03 -0.27520317825E+03  0.63443311360E+03  0.00000000000E+00 0.  1.
         11    1    5    5    0    0 -0.58441816034E+02  0.79436756197E+02 -0.82667672706E+02  0.12868406353E+03  0.00000000000E+00 0. -1.
        -12    1    5    5    0    0 -0.37374070349E+02  0.27495466179E+03 -0.22738401420E+03  0.35874834785E+03  0.00000000000E+00 0.  1.
          4    1    6    6  502    0 -0.96389585974E+02  0.31436437045E+02  0.79355493311E+02  0.12874974243E+03  0.00000000000E+00 0. -1.
         -3    1    6    6    0  502 -0.24217132901E+03  0.17178785101E+03  0.11445597477E+03  0.31821091828E+03  0.00000000000E+00 0.  1.
<mgrwt>
<rscale>  0 0.74141151E+03</rscale>
<asrwt>0</asrwt>
<pdfrwt beam="1">  1        1 0.17018155E+00 0.74141151E+03</pdfrwt>
<pdfrwt beam="2">  1       -2 0.96277037E-01 0.74141151E+03</pdfrwt>
<totfact> 0.10201243E+01</totfact>
</mgrwt>
</event>
<event>
12    3  0.2269558E-007  0.7368620E+03  0.7818608E-02  0.9656190E-01
          3   -1    0    0  501    0  0.00000000000E+00  0.00000000000E+00  0.53711285138E+03  0.53711285138E+03  0.00000000000E+00 0. -1.
         -4   -1    0    0    0  501 -0.00000000000E+00 -0.00000000000E+00 -0.12236316314E+04  0.12236316314E+04  0.00000000000E+00 0.  1.
        -24    2    1    2    0    0  0.54066771393E+03 -0.37515249935E+03 -0.47927744055E+02  0.66482598080E+03  0.81458832846E+02 0.  0.
    5000000    2    1    2    0    0 -0.54066771393E+03  0.37515249935E+03 -0.63859103595E+03  0.10959185020E+04  0.60014821261E+03 0.  0.
        -24    2    4    4    0    0  0.23381308780E+02  0.21763223729E+03 -0.39126387845E+03  0.45519763528E+03  0.78784441873E+02 0.  0.
         24    2    4    4    0    0 -0.56404902271E+03  0.15752026206E+03 -0.24732715751E+03  0.64072086668E+03  0.79928550495E+02 0.  0.
         11    1    3    3    0    0  0.10882001579E+03 -0.11212628821E+03  0.56482532496E+01  0.15635217654E+03  0.00000000000E+00 0. -1.
        -12    1    3    3    0    0  0.43184769814E+03 -0.26302621114E+03 -0.53575997304E+02  0.50847380426E+03  0.00000000000E+00 0.  1.
         13    1    5    5    0    0  0.36812694210E+02  0.13247063065E+03 -0.17618968845E+03  0.22348702145E+03  0.00000000000E+00 0. -1.
        -14    1    5    5    0    0 -0.13431385430E+02  0.85161606635E+02 -0.21507419000E+03  0.23171061383E+03  0.00000000000E+00 0.  1.
          4    1    6    6  502    0 -0.36618672629E+03  0.12886275887E+03 -0.13263448082E+03  0.41023192787E+03  0.00000000000E+00 0. -1.
         -3    1    6    6    0  502 -0.19786229641E+03  0.28657503188E+02 -0.11469267669E+03  0.23048893882E+03  0.00000000000E+00 0.  1.
<mgrwt>
<rscale>  0 0.73686198E+03</rscale>
<asrwt>0</asrwt>
<pdfrwt beam="1">  1        3 0.82632748E-01 0.73686198E+03</pdfrwt>
<pdfrwt beam="2">  1       -4 0.18825102E+00 0.73686198E+03</pdfrwt>
<totfact> 0.48305141E-01</totfact>
</mgrwt>
</event>
<event>
12    3  0.2269558E-007  0.6223424E+03  0.7818608E-02  0.9860107E-01
         -2   -1    0    0    0  501 -0.00000000000E+00  0.00000000000E+00  0.95137231777E+03  0.95137231777E+03  0.00000000000E+00 0.  1.
          1   -1    0    0  501    0  0.00000000000E+00 -0.00000000000E+00 -0.68730218595E+03  0.68730218595E+03  0.00000000000E+00 0. -1.
        -24    2    1    2    0    0  0.20219150451E+03  0.46015181241E+03  0.59939926321E+03  0.78711612834E+03  0.87471297003E+02 0.  0.
    5000000    2    1    2    0    0 -0.20219150451E+03 -0.46015181241E+03 -0.33532913139E+03  0.85155837538E+03  0.60007078363E+03 0.  0.
        -24    2    4    4    0    0  0.17654781074E+03 -0.88275105790E+02 -0.21264534851E+03  0.30106897293E+03  0.80391905301E+02 0.  0.
         24    2    4    4    0    0 -0.37873931525E+03 -0.37187670662E+03 -0.12268378288E+03  0.55048940245E+03  0.79066540253E+02 0.  0.
         11    1    3    3    0    0  0.76326970936E+02  0.84352974733E+02  0.13999920243E+03  0.18039126232E+03  0.00000000000E+00 0. -1.
        -12    1    3    3    0    0  0.12586453357E+03  0.37579883767E+03  0.45940006078E+03  0.60672486603E+03  0.00000000000E+00 0.  1.
         11    1    5    5    0    0  0.70271159531E+02 -0.20742165801E+02 -0.13367002475E+03  0.15243342422E+03  0.00000000000E+00 0. -1.
        -12    1    5    5    0    0  0.10627665121E+03 -0.67532939990E+02 -0.78975323763E+02  0.14863554871E+03  0.00000000000E+00 0.  1.
          2    1    6    6  502    0 -0.32134659365E+03 -0.27562813252E+03 -0.11196789846E+03  0.43791701380E+03  0.00000000000E+00 0. -1.
         -1    1    6    6    0  502 -0.57392721603E+02 -0.96248574094E+02 -0.10715884414E+02  0.11257238865E+03  0.00000000000E+00 0.  1.
<mgrwt>
<rscale>  0 0.62234243E+03</rscale>
<asrwt>0</asrwt>
<pdfrwt beam="1">  1        1 0.10573880E+00 0.62234243E+03</pdfrwt>
<pdfrwt beam="2">  1       -2 0.14636497E+00 0.62234243E+03</pdfrwt>
<totfact> 0.81402930E+00</totfact>
</mgrwt>
</event>
<event>
12    3  0.2269558E-007  0.6871301E+03  0.7818608E-02  0.9739498E-01
          1   -1    0    0  501    0  0.00000000000E+00  0.00000000000E+00  0.25368496863E+04  0.25368496863E+04  0.00000000000E+00 0. -1.
         -2   -1    0    0    0  501 -0.00000000000E+00 -0.00000000000E+00 -0.21775866714E+03  0.21775866714E+03  0.00000000000E+00 0.  1.
        -24    2    1    2    0    0 -0.10611641252E+03  0.60546309749E+03  0.83545281626E+03  0.10402474640E+04  0.79291378088E+02 0.  0.
    5000000    2    1    2    0    0  0.10611641252E+03 -0.60546309749E+03  0.14836382029E+04  0.17143608895E+04  0.60000390575E+03 0.  0.
        -24    2    4    4    0    0  0.24269086635E+03 -0.52747991054E+03  0.14009046047E+04  0.15185534309E+04  0.79604639334E+02 0.  0.
         24    2    4    4    0    0 -0.13657445383E+03 -0.77983186944E+02  0.82733598249E+02  0.19580745857E+03  0.82229883068E+02 0.  0.
         11    1    3    3    0    0 -0.45757654746E+02  0.97352379476E+02  0.16192977767E+03  0.19440293633E+03  0.00000000000E+00 0. -1.
        -12    1    3    3    0    0 -0.60358757773E+02  0.50811071801E+03  0.67352303859E+03  0.84584452762E+03  0.00000000000E+00 0.  1.
         13    1    5    5    0    0  0.85724357149E+02 -0.27788040406E+03  0.72394037155E+03  0.78016398657E+03  0.00000000000E+00 0. -1.
        -14    1    5    5    0    0  0.15696650920E+03 -0.24959950648E+03  0.67696423312E+03  0.73838944438E+03  0.00000000000E+00 0.  1.
          4    1    6    6  502    0 -0.13973251522E+03 -0.83654933177E+02  0.89992003406E+02  0.18606956853E+03  0.00000000000E+00 0. -1.
         -3    1    6    6    0  502  0.31580613943E+01  0.56717462328E+01 -0.72584051577E+01  0.97378900452E+01  0.00000000000E+00 0.  1.
<mgrwt>
<rscale>  0 0.68713014E+03</rscale>
<asrwt>0</asrwt>
<pdfrwt beam="1">  1        1 0.39028455E+00 0.68713014E+03</pdfrwt>
<pdfrwt beam="2">  1       -2 0.33501335E-01 0.68713014E+03</pdfrwt>
<totfact> 0.99223784E+00</totfact>
</mgrwt>
</event>
<event>
12    3  0.2507800E-007  0.9064553E+03  0.7818608E-02  0.9417548E-01
          1   -1    0    0  501    0  0.00000000000E+00  0.00000000000E+00  0.14645803865E+04  0.14645803865E+04  0.00000000000E+00 0. -1.
         -2   -1    0    0    0  501 -0.00000000000E+00 -0.00000000000E+00 -0.10050980107E+04  0.10050980107E+04  0.00000000000E+00 0.  1.
        -24    2    1    2    0    0 -0.60005503772E+03 -0.56667630846E+03 -0.58082806516E+03  0.10124649957E+04  0.80845775481E+02 0.  0.
    5000000    2    1    2    0    0  0.60005503772E+03  0.56667630846E+03  0.10403104410E+04  0.14572134014E+04  0.60003082986E+03 0.  0.
        -24    2    4    4    0    0  0.86809294388E+02  0.44166659821E+03  0.65439261826E+03  0.79812408279E+03  0.78530982047E+02 0.  0.
         24    2    4    4    0    0  0.51324574333E+03  0.12500971025E+03  0.38591782276E+03  0.65908931864E+03  0.80109570719E+02 0.  0.
         13    1    5    5    0    0  0.92737921674E+02  0.28579350120E+03  0.44766184147E+03  0.53914689255E+03  0.00000000000E+00 0. -1.
        -14    1    5    5    0    0 -0.59286272855E+01  0.15587309701E+03  0.20673077679E+03  0.25897719024E+03  0.00000000000E+00 0.  1.
         13    1    3    3    0    0 -0.13739619087E+03 -0.12480075640E+03 -0.91062223150E+02  0.20674929395E+03  0.00000000000E+00 0. -1.
        -14    1    3    3    0    0 -0.46265884686E+03 -0.44187555206E+03 -0.48976584201E+03  0.80571570177E+03  0.00000000000E+00 0.  1.
          2    1    6    6  502    0  0.30163544986E+03  0.10105472202E+03  0.26609879437E+03  0.41473433644E+03  0.00000000000E+00 0. -1.
         -1    1    6    6    0  502  0.21161029348E+03  0.23954988236E+02  0.11981902838E+03  0.24435498221E+03  0.00000000000E+00 0.  1.
<mgrwt>
<rscale>  0 0.90645525E+03</rscale>
<asrwt>0</asrwt>
<pdfrwt beam="1">  1        1 0.22532006E+00 0.90645525E+03</pdfrwt>
<pdfrwt beam="2">  1       -2 0.15463046E+00 0.90645525E+03</pdfrwt>
<totfact> 0.16952598E+00</totfact>
</mgrwt>
</event>
<event>
12    3  0.2269558E-007  0.4736982E+03  0.7818608E-02  0.1020882E+00
          1   -1    0    0  501    0  0.00000000000E+00  0.00000000000E+00  0.75064898632E+03  0.75064898632E+03  0.00000000000E+00 0. -1.
         -4   -1    0    0    0  501 -0.00000000000E+00 -0.00000000000E+00 -0.50824963390E+03  0.50824963390E+03  0.00000000000E+00 0.  1.
        -24    2    1    2    0    0 -0.21326515012E+02  0.38057031242E+03  0.36945782786E+03  0.53683017194E+03  0.79993524736E+02 0.  0.
    5000000    2    1    2    0    0  0.21326515012E+02 -0.38057031242E+03 -0.12705847544E+03  0.72206844829E+03  0.59995866933E+03 0.  0.
        -24    2    4    4    0    0 -0.19209058594E+02  0.70388799810E+02  0.14945005000E+03  0.18435704267E+03  0.79552691137E+02 0.  0.
         24    2    4    4    0    0  0.40535573606E+02 -0.45095911223E+03 -0.27650852543E+03  0.53771140562E+03  0.87574753603E+02 0.  0.
         11    1    3    3    0    0 -0.20923373179E+02  0.16122232537E+03  0.21034909071E+03  0.26585177394E+03  0.00000000000E+00 0. -1.
        -12    1    3    3    0    0 -0.40314183288E+00  0.21934798705E+03  0.15910873715E+03  0.27097839800E+03  0.00000000000E+00 0.  1.
         13    1    5    5    0    0  0.13434417416E+02  0.72317735480E+02  0.87525403713E+02  0.11432862604E+03  0.00000000000E+00 0. -1.
        -14    1    5    5    0    0 -0.32643476010E+02 -0.19289356694E+01  0.61924646282E+02  0.70028416632E+02  0.00000000000E+00 0.  1.
          2    1    6    6  502    0  0.29299003251E+02 -0.48923990949E+02 -0.18833321984E+02  0.60055661672E+02  0.00000000000E+00 0. -1.
         -1    1    6    6    0  502  0.11236570355E+02 -0.40203512128E+03 -0.25767520345E+03  0.47765574395E+03  0.00000000000E+00 0.  1.
<mgrwt>
<rscale>  0 0.47369824E+03</rscale>
<asrwt>0</asrwt>
<pdfrwt beam="1">  1        1 0.11548446E+00 0.47369824E+03</pdfrwt>
<pdfrwt beam="2">  1       -4 0.78192251E-01 0.47369824E+03</pdfrwt>
<totfact> 0.17563011E+01</totfact>
</mgrwt>
</event>
<event>
12    3  0.2269558E-007  0.1178086E+04  0.7818608E-02  0.9132257E-01
         -2   -1    0    0    0  501 -0.00000000000E+00  0.00000000000E+00  0.14535214466E+04  0.14535214466E+04  0.00000000000E+00 0.  1.
          1   -1    0    0  501    0  0.00000000000E+00 -0.00000000000E+00 -0.11209257942E+04  0.11209257942E+04  0.00000000000E+00 0. -1.
        -24    2    1    2    0    0 -0.62856414515E+03 -0.99082923751E+03 -0.11605138267E+03  0.11822314859E+04  0.85836474999E+02 0.  0.
    5000000    2    1    2    0    0  0.62856414515E+03  0.99082923751E+03  0.44864703515E+03  0.13922157549E+04  0.60012089075E+03 0.  0.
        -24    2    4    4    0    0  0.39622794719E+03  0.70943201093E+03  0.57470694761E+03  0.99833525719E+03  0.78069493714E+02 0.  0.
         24    2    4    4    0    0  0.23233619796E+03  0.28139722658E+03 -0.12605991246E+03  0.39388049769E+03  0.78014337925E+02 0.  0.
         11    1    3    3    0    0 -0.39587320593E+03 -0.55965445852E+03 -0.92310545417E+02  0.69170076254E+03  0.00000000000E+00 0. -1.
        -12    1    3    3    0    0 -0.23269093923E+03 -0.43117477899E+03 -0.23740837255E+02  0.49053072339E+03  0.00000000000E+00 0.  1.
         11    1    5    5    0    0  0.18745371079E+03  0.27341663520E+03  0.20527832797E+03  0.38991632696E+03  0.00000000000E+00 0. -1.
        -12    1    5    5    0    0  0.20877423640E+03  0.43601537573E+03  0.36942861963E+03  0.60841893023E+03  0.00000000000E+00 0.  1.
          4    1    6    6  502    0  0.70998116446E+02  0.10471405936E+03 -0.71957759447E+01  0.12671837261E+03  0.00000000000E+00 0. -1.
         -3    1    6    6    0  502  0.16133808151E+03  0.17668316722E+03 -0.11886413652E+03  0.26716212507E+03  0.00000000000E+00 0.  1.
<mgrwt>
<rscale>  0 0.11780864E+04</rscale>
<asrwt>0</asrwt>
<pdfrwt beam="1">  1        1 0.17245012E+00 0.11780864E+04</pdfrwt>
<pdfrwt beam="2">  1       -2 0.22361868E+00 0.11780864E+04</pdfrwt>
<totfact> 0.98267326E-01</totfact>
</mgrwt>
</event>
<event>
12    3  0.2647281E-007  0.7927674E+03  0.7818608E-02  0.9570545E-01
          1   -1    0    0  501    0  0.00000000000E+00  0.00000000000E+00  0.12005757803E+04  0.12005757803E+04  0.00000000000E+00 0. -1.
         -2   -1    0    0    0  501 -0.00000000000E+00 -0.00000000000E+00 -0.83041720091E+03  0.83041720091E+03  0.00000000000E+00 0.  1.
        -24    2    1    2    0    0 -0.35827030127E+03 -0.66736112325E+03  0.67493795631E+03  0.10176489386E+04  0.79621854775E+02 0.  0.
    5000000    2    1    2    0    0  0.35827030127E+03  0.66736112325E+03 -0.30477937688E+03  0.10133440426E+04  0.60020596681E+03 0.  0.
        -24    2    4    4    0    0  0.17583283052E+03  0.79901339630E+02  0.13941741963E+03  0.25135129954E+03  0.80242448376E+02 0.  0.
         24    2    4    4    0    0  0.18243747076E+03  0.58745978362E+03 -0.44419679651E+03  0.76199274311E+03  0.70211953441E+02 0.  0.
         11    1    3    3    0    0 -0.12339213184E+03 -0.31217783249E+03  0.28847690024E+03  0.44260539905E+03  0.00000000000E+00 0. -1.
        -12    1    3    3    0    0 -0.23487816944E+03 -0.35518329076E+03  0.38646105608E+03  0.57504353955E+03  0.00000000000E+00 0.  1.
         13    1    5    5    0    0  0.87581985313E+02 -0.32549737877E+01  0.64490439580E+02  0.10881275570E+03  0.00000000000E+00 0. -1.
        -14    1    5    5    0    0  0.88250845203E+02  0.83156313417E+02  0.74926980052E+02  0.14253854384E+03  0.00000000000E+00 0.  1.
          2    1    6    6  502    0  0.79811276151E+02  0.25679129877E+03 -0.23740895111E+03  0.35871244890E+03  0.00000000000E+00 0. -1.
         -1    1    6    6    0  502  0.10262619461E+03  0.33066848485E+03 -0.20678784540E+03  0.40328029421E+03  0.00000000000E+00 0.  1.
<mgrwt>
<rscale>  0 0.79276744E+03</rscale>
<asrwt>0</asrwt>
<pdfrwt beam="1">  1        1 0.18470397E+00 0.79276744E+03</pdfrwt>
<pdfrwt beam="2">  1       -2 0.12775649E+00 0.79276744E+03</pdfrwt>
<totfact> 0.43431191E+00</totfact>
</mgrwt>
</event>
<event>
12    3  0.2269558E-007  0.1365550E+04  0.7818608E-02  0.8979140E-01
          1   -1    0    0  501    0  0.00000000000E+00  0.00000000000E+00  0.19873987426E+04  0.19873987426E+04  0.00000000000E+00 0. -1.
         -2   -1    0    0    0  501 -0.00000000000E+00 -0.00000000000E+00 -0.16387774740E+04  0.16387774740E+04  0.00000000000E+00 0.  1.
        -24    2    1    2    0    0 -0.22295141959E+03  0.13398326711E+04 -0.94523370879E+03  0.16567002766E+04  0.79562052289E+02 0.  0.
    5000000    2    1    2    0    0  0.22295141959E+03 -0.13398326711E+04  0.12938549773E+04  0.19694759400E+04  0.59992987412E+03 0.  0.
        -24    2    4    4    0    0  0.19330265094E+01 -0.17315862754E+03  0.51354962524E+03  0.54635130553E+03  0.69129476954E+02 0.  0.
         24    2    4    4    0    0  0.22101839308E+03 -0.11666740436E+04  0.78030535210E+03  0.14231246345E+04  0.80186213065E+02 0.  0.
         13    1    5    5    0    0  0.27422744359E+02 -0.64736283338E+02  0.26157491871E+03  0.27085832346E+03  0.00000000000E+00 0. -1.
        -14    1    5    5    0    0 -0.25489717849E+02 -0.10842234420E+03  0.25197470654E+03  0.27549298208E+03  0.00000000000E+00 0.  1.
         13    1    3    3    0    0 -0.15067015058E+03  0.67142994136E+03 -0.46553943731E+03  0.83081082572E+03  0.00000000000E+00 0. -1.
        -14    1    3    3    0    0 -0.72281269008E+02  0.66840272975E+03 -0.47969427147E+03  0.82588945087E+03  0.00000000000E+00 0.  1.
          4    1    6    6  502    0  0.83991724650E+02 -0.29945842231E+03  0.17708843720E+03  0.35789701185E+03  0.00000000000E+00 0. -1.
         -3    1    6    6    0  502  0.13702666843E+03 -0.86721562125E+03  0.60321691490E+03  0.10652276226E+04  0.00000000000E+00 0.  1.
<mgrwt>
<rscale>  0 0.13655498E+04</rscale>
<asrwt>0</asrwt>
<pdfrwt beam="1">  1        1 0.30575365E+00 0.13655498E+04</pdfrwt>
<pdfrwt beam="2">  1       -2 0.25211961E+00 0.13655498E+04</pdfrwt>
<totfact> 0.15882198E-01</totfact>
</mgrwt>
</event>
<event>
12    3  0.2269558E-007  0.6913493E+03  0.7818608E-02  0.9732141E-01
          1   -1    0    0  501    0  0.00000000000E+00  0.00000000000E+00  0.14439771940E+04  0.14439771940E+04  0.00000000000E+00 0. -1.
         -2   -1    0    0    0  501 -0.00000000000E+00 -0.00000000000E+00 -0.38626710579E+03  0.38626710579E+03  0.00000000000E+00 0.  1.
        -24    2    1    2    0    0  0.55345014309E+03 -0.17688127254E+03  0.16826528407E+03  0.61010253190E+03  0.79484892570E+02 0.  0.
    5000000    2    1    2    0    0 -0.55345014309E+03  0.17688127254E+03  0.88944480409E+03  0.12201417678E+04  0.60003318963E+03 0.  0.
        -24    2    4    4    0    0 -0.22495818679E+03  0.35110271463E+03  0.63074495420E+03  0.76015316638E+03  0.78194226636E+02 0.  0.
         24    2    4    4    0    0 -0.32849195629E+03 -0.17422144210E+03  0.25869984989E+03  0.45998860146E+03  0.80023902114E+02 0.  0.
         11    1    3    3    0    0  0.49933906177E+03 -0.18318981566E+03  0.14967120165E+03  0.55253911696E+03  0.00000000000E+00 0. -1.
        -12    1    3    3    0    0  0.54111081318E+02  0.63085431268E+01  0.18594082423E+02  0.57563414935E+02  0.00000000000E+00 0.  1.
         13    1    5    5    0    0 -0.20230556485E+03  0.25491284906E+03  0.48406019969E+03  0.58328584682E+03  0.00000000000E+00 0. -1.
        -14    1    5    5    0    0 -0.22652621946E+02  0.96189865573E+02  0.14668475452E+03  0.17686731956E+03  0.00000000000E+00 0.  1.
          4    1    6    6  502    0 -0.16214931629E+03 -0.78289220959E+02  0.17302945267E+03  0.24972143357E+03  0.00000000000E+00 0. -1.
         -3    1    6    6    0  502 -0.16634264000E+03 -0.95932221137E+02  0.85670397215E+02  0.21026716790E+03  0.00000000000E+00 0.  1.
<mgrwt>
<rscale>  0 0.69134935E+03</rscale>
<asrwt>0</asrwt>
<pdfrwt beam="1">  1        1 0.22215033E+00 0.69134935E+03</pdfrwt>
<pdfrwt beam="2">  1       -2 0.59425710E-01 0.69134935E+03</pdfrwt>
<totfact> 0.17227200E+01</totfact>
</mgrwt>
</event>
<event>
12    3  0.2269558E-007  0.5039413E+03  0.7818608E-02  0.1012755E+00
         -4   -1    0    0    0  501 -0.00000000000E+00  0.00000000000E+00  0.15469371553E+04  0.15469371553E+04  0.00000000000E+00 0.  1.
          3   -1    0    0  501    0  0.00000000000E+00 -0.00000000000E+00 -0.26046537407E+03  0.26046537407E+03  0.00000000000E+00 0. -1.
        -24    2    1    2    0    0  0.17778234465E+03  0.35798013771E+03  0.10116496907E+03  0.42007111481E+03  0.80430401381E+02 0.  0.
    5000000    2    1    2    0    0 -0.17778234465E+03 -0.35798013771E+03  0.11853068121E+04  0.13873314146E+04  0.59998322795E+03 0.  0.
        -24    2    4    4    0    0  0.25201671096E+02 -0.38754927336E+03  0.10660052796E+04  0.11371649079E+04  0.77118143864E+02 0.  0.
         24    2    4    4    0    0 -0.20298401575E+03  0.29569135643E+02  0.11930153259E+03  0.25016650670E+03  0.79205940200E+02 0.  0.
         11    1    3    3    0    0  0.11049164285E+03  0.23146971992E+03  0.10394464867E+03  0.27675101511E+03  0.00000000000E+00 0. -1.
        -12    1    3    3    0    0  0.67290701803E+02  0.12651041780E+03 -0.27796795988E+01  0.14332009970E+03  0.00000000000E+00 0.  1.
         11    1    5    5    0    0  0.38322860156E+02 -0.88338093379E+02  0.27340429630E+03  0.28986577857E+03  0.00000000000E+00 0. -1.
        -12    1    5    5    0    0 -0.13121189060E+02 -0.29921117998E+03  0.79260098326E+03  0.84729912928E+03  0.00000000000E+00 0.  1.
          4    1    6    6  502    0 -0.17665617524E+03  0.56626544231E+01  0.71673074941E+02  0.19072624250E+03  0.00000000000E+00 0. -1.
         -3    1    6    6    0  502 -0.26327840507E+02  0.23906481220E+02  0.47628457649E+02  0.59440264199E+02  0.00000000000E+00 0.  1.
<mgrwt>
<rscale>  0 0.50394135E+03</rscale>
<asrwt>0</asrwt>
<pdfrwt beam="1">  1        3 0.40071597E-01 0.50394135E+03</pdfrwt>
<pdfrwt beam="2">  1       -4 0.23799033E+00 0.50394135E+03</pdfrwt>
<totfact> 0.10804146E+00</totfact>
</mgrwt>
</event>
<event>
12    3  0.2269558E-007  0.7915100E+03  0.7818608E-02  0.9572388E-01
         -2   -1    0    0    0  501 -0.00000000000E+00  0.00000000000E+00  0.20073057413E+03  0.20073057413E+03  0.00000000000E+00 0.  1.
          1   -1    0    0  501    0  0.00000000000E+00 -0.00000000000E+00 -0.36567365196E+04  0.36567365196E+04  0.00000000000E+00 0. -1.
        -24    2    1    2    0    0 -0.71227650191E+03  0.17171819765E+03 -0.18760108146E+04  0.20154533712E+04  0.76228344519E+02 0.  0.
    5000000    2    1    2    0    0  0.71227650191E+03 -0.17171819765E+03 -0.15799951309E+04  0.18420137225E+04  0.59983746609E+03 0.  0.
        -24    2    4    4    0    0  0.29868304481E+03 -0.28645988018E+03 -0.11716672974E+04  0.12446176943E+04  0.70697417703E+02 0.  0.
         24    2    4    4    0    0  0.41359345710E+03  0.11474168252E+03 -0.40832783346E+03  0.59739602823E+03  0.76975278468E+02 0.  0.
         11    1    3    3    0    0 -0.68008306713E+03  0.14794849881E+03 -0.17536097553E+04  0.18866766841E+04  0.00000000000E+00 0. -1.
        -12    1    3    3    0    0 -0.32193434785E+02  0.23769698840E+02 -0.12240105924E+03  0.12877668706E+03  0.00000000000E+00 0.  1.
         11    1    5    5    0    0  0.14242293760E+03 -0.13967661263E+03 -0.46081529694E+03  0.50214000753E+03  0.00000000000E+00 0. -1.
        -12    1    5    5    0    0  0.15626010721E+03 -0.14678326755E+03 -0.71085200048E+03  0.74247768675E+03  0.00000000000E+00 0.  1.
          4    1    6    6  502    0  0.20104127522E+03  0.25649091499E+02 -0.15678161350E+03  0.25623415965E+03  0.00000000000E+00 0. -1.
         -3    1    6    6    0  502  0.21255218189E+03  0.89092591022E+02 -0.25154621995E+03  0.34116186858E+03  0.00000000000E+00 0.  1.
<mgrwt>
<rscale>  0 0.79150997E+03</rscale>
<asrwt>0</asrwt>
<pdfrwt beam="1">  1        1 0.56257487E+00 0.79150997E+03</pdfrwt>
<pdfrwt beam="2">  1       -2 0.30881626E-01 0.79150997E+03</pdfrwt>
<totfact> 0.17229181E+00</totfact>
</mgrwt>
</event>
<event>
12    3  0.2269558E-007  0.6296982E+03  0.7818608E-02  0.9845638E-01
         -2   -1    0    0    0  501 -0.00000000000E+00  0.00000000000E+00  0.27310506440E+03  0.27310506440E+03  0.00000000000E+00 0.  1.
          1   -1    0    0  501    0  0.00000000000E+00 -0.00000000000E+00 -0.16152953618E+04  0.16152953618E+04  0.00000000000E+00 0. -1.
        -24    2    1    2    0    0  0.51446463798E+03  0.53983972815E+02 -0.66500584510E+03  0.84618830306E+03  0.78827261594E+02 0.  0.
    5000000    2    1    2    0    0 -0.51446463798E+03 -0.53983972815E+02 -0.67718445232E+03  0.10422121231E+04  0.60003266088E+03 0.  0.
        -24    2    4    4    0    0 -0.42798303040E+03  0.18887114853E+03 -0.24605979271E+03  0.53374500511E+03  0.74138544861E+02 0.  0.
         24    2    4    4    0    0 -0.86481607579E+02 -0.24285512134E+03 -0.43112465961E+03  0.50846711804E+03  0.78820426229E+02 0.  0.
         13    1    3    3    0    0  0.13924821959E+03 -0.18502498715E+02 -0.19759212110E+03  0.24243567278E+03  0.00000000000E+00 0. -1.
        -14    1    3    3    0    0  0.37521641839E+03  0.72486471530E+02 -0.46741372399E+03  0.60375263027E+03  0.00000000000E+00 0.  1.
         13    1    5    5    0    0 -0.17494533948E+03  0.10388927776E+03 -0.13758562090E+03  0.24561892622E+03  0.00000000000E+00 0. -1.
        -14    1    5    5    0    0 -0.25303769092E+03  0.84981870767E+02 -0.10847417180E+03  0.28812607888E+03  0.00000000000E+00 0.  1.
          4    1    6    6  502    0 -0.54655448122E+02 -0.61613717426E+02 -0.17140299904E+03  0.19016428756E+03  0.00000000000E+00 0. -1.
         -3    1    6    6    0  502 -0.31826159457E+02 -0.18124140392E+03 -0.25972166057E+03  0.31830283048E+03  0.00000000000E+00 0.  1.
<mgrwt>
<rscale>  0 0.62969821E+03</rscale>
<asrwt>0</asrwt>
<pdfrwt beam="1">  1        1 0.24850697E+00 0.62969821E+03</pdfrwt>
<pdfrwt beam="2">  1       -2 0.42016165E-01 0.62969821E+03</pdfrwt>
<totfact> 0.26873590E+01</totfact>
</mgrwt>
</event>
<event>
12    3  0.2269558E-007  0.6480405E+03  0.7818608E-02  0.9810463E-01
         -2   -1    0    0    0  501 -0.00000000000E+00  0.00000000000E+00  0.62559538392E+03  0.62559538392E+03  0.00000000000E+00 0.  1.
          1   -1    0    0  501    0  0.00000000000E+00 -0.00000000000E+00 -0.11326493605E+04  0.11326493605E+04  0.00000000000E+00 0. -1.
        -24    2    1    2    0    0 -0.45580334324E+03 -0.42646305399E+03  0.17825252586E+03  0.65403387507E+03  0.79742853158E+02 0.  0.
    5000000    2    1    2    0    0  0.45580334324E+03  0.42646305399E+03 -0.68530650241E+03  0.11042108693E+04  0.60000768126E+03 0.  0.
        -24    2    4    4    0    0  0.32096787267E+03  0.15168797122E+03 -0.69867668911E+03  0.78749803109E+03  0.77294354053E+02 0.  0.
         24    2    4    4    0    0  0.13483547057E+03  0.27477508278E+03  0.13370186696E+02  0.31671283824E+03  0.80288914398E+02 0.  0.
         11    1    5    5    0    0  0.69025526879E+02  0.14411228458E+01 -0.15651963045E+03  0.17107014617E+03  0.00000000000E+00 0. -1.
        -12    1    5    5    0    0  0.25194234579E+03  0.15024684837E+03 -0.54215705866E+03  0.61642788492E+03  0.00000000000E+00 0.  1.
         13    1    3    3    0    0 -0.27967368743E+03 -0.21842078190E+03  0.12544659366E+03  0.37637993739E+03  0.00000000000E+00 0. -1.
        -14    1    3    3    0    0 -0.17612965581E+03 -0.20804227210E+03  0.52805932201E+02  0.27765393768E+03  0.00000000000E+00 0.  1.
          2    1    6    6  502    0  0.59631091529E+02  0.10984296798E+03  0.44736445343E+02  0.13275049617E+03  0.00000000000E+00 0. -1.
         -1    1    6    6    0  502  0.75204379041E+02  0.16493211480E+03 -0.31366258647E+02  0.18396234207E+03  0.00000000000E+00 0.  1.
<mgrwt>
<rscale>  0 0.64804054E+03</rscale>
<asrwt>0</asrwt>
<pdfrwt beam="1">  1        1 0.17425375E+00 0.64804054E+03</pdfrwt>
<pdfrwt beam="2">  1       -2 0.96245445E-01 0.64804054E+03</pdfrwt>
<totfact> 0.98812726E+00</totfact>
</mgrwt>
</event>
<event>
12    3  0.2269558E-007  0.3871564E+03  0.7818608E-02  0.1048320E+00
          1   -1    0    0  501    0  0.00000000000E+00  0.00000000000E+00  0.25316078607E+03  0.25316078607E+03  0.00000000000E+00 0. -1.
         -2   -1    0    0    0  501 -0.00000000000E+00 -0.00000000000E+00 -0.97776895974E+03  0.97776895974E+03  0.00000000000E+00 0.  1.
        -24    2    1    2    0    0  0.30859745968E+03 -0.60452269695E+01 -0.20157471700E+03  0.37721794054E+03  0.79950429907E+02 0.  0.
    5000000    2    1    2    0    0 -0.30859745968E+03  0.60452269695E+01 -0.52303345667E+03  0.85371180527E+03  0.59999242726E+03 0.  0.
        -24    2    4    4    0    0 -0.16121183274E+03  0.16277346859E+03  0.40272157889E+02  0.24598601729E+03  0.80017603748E+02 0.  0.
         24    2    4    4    0    0 -0.14738562694E+03 -0.15672824162E+03 -0.56330561456E+03  0.60772578798E+03  0.75704380493E+02 0.  0.
         13    1    5    5    0    0 -0.13983110119E+03  0.88763687441E+02  0.26716787916E+02  0.16776625353E+03  0.00000000000E+00 0. -1.
        -14    1    5    5    0    0 -0.21380731553E+02  0.74009781151E+02  0.13555369973E+02  0.78219763762E+02  0.00000000000E+00 0.  1.
         13    1    3    3    0    0  0.13252066697E+03 -0.78411226149E+01 -0.41077251739E+02  0.13896240854E+03  0.00000000000E+00 0. -1.
        -14    1    3    3    0    0  0.17607679271E+03  0.17958956454E+01 -0.16049746526E+03  0.23825553200E+03  0.00000000000E+00 0.  1.
          2    1    6    6  502    0 -0.83677425649E+02 -0.47113327907E+02 -0.30884093103E+03  0.32342587699E+03  0.00000000000E+00 0. -1.
         -1    1    6    6    0  502 -0.63708201294E+02 -0.10961491372E+03 -0.25446468353E+03  0.28429991098E+03  0.00000000000E+00 0.  1.
<mgrwt>
<rscale>  0 0.38715644E+03</rscale>
<asrwt>0</asrwt>
<pdfrwt beam="1">  1        1 0.38947813E-01 0.38715644E+03</pdfrwt>
<pdfrwt beam="2">  1       -2 0.15042599E+00 0.38715644E+03</pdfrwt>
<totfact> 0.29823021E+01</totfact>
</mgrwt>
</event>
<event>
12    3  0.2269558E-007  0.1025709E+04  0.7818608E-02  0.9280789E-01
          1   -1    0    0  501    0  0.00000000000E+00  0.00000000000E+00  0.13940413556E+04  0.13940413556E+04  0.00000000000E+00 0. -1.
         -2   -1    0    0    0  501 -0.00000000000E+00 -0.00000000000E+00 -0.86610975509E+03  0.86610975509E+03  0.00000000000E+00 0.  1.
        -24    2    1    2    0    0 -0.96289328297E+02 -0.94388562960E+03 -0.12685760086E+03  0.96054456487E+03  0.79757718775E+02 0.  0.
    5000000    2    1    2    0    0  0.96289328297E+02  0.94388562960E+03  0.65478920140E+03  0.12996065458E+04  0.60003046524E+03 0.  0.
        -24    2    4    4    0    0  0.29407801938E+03  0.78409822338E+03  0.58155455405E+03  0.10228618550E+04  0.82150896143E+02 0.  0.
         24    2    4    4    0    0 -0.19778869108E+03  0.15978740622E+03  0.73234647355E+02  0.27674469082E+03  0.81067433753E+02 0.  0.
         11    1    5    5    0    0  0.24283408418E+03  0.55834564048E+03  0.39775930684E+03  0.72727622872E+03  0.00000000000E+00 0. -1.
        -12    1    5    5    0    0  0.51243935198E+02  0.22575258290E+03  0.18379524721E+03  0.29558562630E+03  0.00000000000E+00 0.  1.
         13    1    3    3    0    0 -0.75536095770E+02 -0.58755298758E+03 -0.11476674067E+03  0.60340336404E+03  0.00000000000E+00 0. -1.
        -14    1    3    3    0    0 -0.20753232527E+02 -0.35633264202E+03 -0.12090860198E+02  0.35714120083E+03  0.00000000000E+00 0.  1.
          4    1    6    6  502    0 -0.10399127131E+03  0.12276973984E+03  0.18345064268E+02  0.16193558878E+03  0.00000000000E+00 0. -1.
         -3    1    6    6    0  502 -0.93797419771E+02  0.37017666380E+02  0.54889583087E+02  0.11480910204E+03  0.00000000000E+00 0.  1.
<mgrwt>
<rscale>  0 0.10257089E+04</rscale>
<asrwt>0</asrwt>
<pdfrwt beam="1">  1        1 0.21446790E+00 0.10257089E+04</pdfrwt>
<pdfrwt beam="2">  1       -2 0.13324765E+00 0.10257089E+04</pdfrwt>
<totfact> 0.27618693E+00</totfact>
</mgrwt>
</event>
<event>
12    3  0.2269558E-007  0.2452972E+03  0.7818608E-02  0.1116313E+00
         -2   -1    0    0    0  501 -0.00000000000E+00  0.00000000000E+00  0.13169332925E+03  0.13169332925E+03  0.00000000000E+00 0.  1.
          1   -1    0    0  501    0  0.00000000000E+00 -0.00000000000E+00 -0.14205736196E+04  0.14205736196E+04  0.00000000000E+00 0. -1.
        -24    2    1    2    0    0  0.43356142097E+02 -0.19393834138E+03 -0.19835198199E+03  0.29182296886E+03  0.79531761438E+02 0.  0.
    5000000    2    1    2    0    0 -0.43356142097E+02  0.19393834138E+03 -0.10905283084E+04  0.12604439800E+04  0.59997933304E+03 0.  0.
        -24    2    4    4    0    0 -0.54852320792E+02  0.12587845260E+02 -0.10549386159E+04  0.10590431664E+04  0.74227449291E+02 0.  0.
         24    2    4    4    0    0  0.11496178695E+02  0.18135049612E+03 -0.35589692542E+02  0.20140081359E+03  0.79218034127E+02 0.  0.
         11    1    3    3    0    0  0.40056394087E+02 -0.36407132775E+02 -0.32883751418E+02  0.63335101890E+02  0.00000000000E+00 0. -1.
        -12    1    3    3    0    0  0.32997480099E+01 -0.15753120861E+03 -0.16546823057E+03  0.22848786697E+03  0.00000000000E+00 0.  1.
         11    1    5    5    0    0 -0.35188729324E+02 -0.25416944906E+02 -0.32999096332E+03  0.33283374774E+03  0.00000000000E+00 0. -1.
        -12    1    5    5    0    0 -0.19663591467E+02  0.38004790165E+02 -0.72494765254E+03  0.72620941871E+03  0.00000000000E+00 0.  1.
          4    1    6    6  502    0  0.30801361917E+02  0.42352865935E+02  0.11049266250E+02  0.53521728611E+02  0.00000000000E+00 0. -1.
         -3    1    6    6    0  502 -0.19305183222E+02  0.13899763019E+03 -0.46638958791E+02  0.14787908498E+03  0.00000000000E+00 0.  1.
<mgrwt>
<rscale>  0 0.24529720E+03</rscale>
<asrwt>0</asrwt>
<pdfrwt beam="1">  1        1 0.21854978E+00 0.24529720E+03</pdfrwt>
<pdfrwt beam="2">  1       -2 0.20260513E-01 0.24529720E+03</pdfrwt>
<totfact> 0.14800131E+02</totfact>
</mgrwt>
</event>
<event>
12    3  0.2269558E-007  0.5436262E+03  0.7818608E-02  0.1002980E+00
         -2   -1    0    0    0  501 -0.00000000000E+00  0.00000000000E+00  0.41678254570E+03  0.41678254570E+03  0.00000000000E+00 0.  1.
          1   -1    0    0  501    0  0.00000000000E+00 -0.00000000000E+00 -0.74151900534E+03  0.74151900534E+03  0.00000000000E+00 0. -1.
        -24    2    1    2    0    0  0.26568005486E+03  0.27843709426E+03 -0.59550610992E+02  0.39770673990E+03  0.80692432595E+02 0.  0.
    5000000    2    1    2    0    0 -0.26568005486E+03 -0.27843709426E+03 -0.26518584864E+03  0.76059481115E+03  0.60005651851E+03 0.  0.
        -24    2    4    4    0    0 -0.32333271865E+03  0.72074203232E+02 -0.18553462620E+03  0.38741078239E+03  0.76975834377E+02 0.  0.
         24    2    4    4    0    0  0.57652663786E+02 -0.35051129750E+03 -0.79651222443E+02  0.37318402875E+03  0.82097519842E+02 0.  0.
         11    1    3    3    0    0  0.81536408524E+02  0.13226477077E+03 -0.83815083479E+00  0.15537972197E+03  0.00000000000E+00 0. -1.
        -12    1    3    3    0    0  0.18414364634E+03  0.14617232350E+03 -0.58712460157E+02  0.24232701793E+03  0.00000000000E+00 0.  1.
         13    1    5    5    0    0 -0.11116073236E+03 -0.52068333013E+01 -0.85990249071E+02  0.14063478399E+03  0.00000000000E+00 0. -1.
        -14    1    5    5    0    0 -0.21217198628E+03  0.77281036533E+02 -0.99544377129E+02  0.24677599840E+03  0.00000000000E+00 0.  1.
          2    1    6    6  502    0  0.50552004412E+02 -0.13669179513E+03 -0.62449313285E+02  0.15855620056E+03  0.00000000000E+00 0. -1.
         -1    1    6    6    0  502  0.71006593740E+01 -0.21381950237E+03 -0.17201909159E+02  0.21462782820E+03  0.00000000000E+00 0.  1.
<mgrwt>
<rscale>  0 0.54362622E+03</rscale>
<asrwt>0</asrwt>
<pdfrwt beam="1">  1        1 0.11407985E+00 0.54362622E+03</pdfrwt>
<pdfrwt beam="2">  1       -2 0.64120392E-01 0.54362622E+03</pdfrwt>
<totfact> 0.50983309E+01</totfact>
</mgrwt>
</event>
<event>
12    3  0.2269558E-007  0.4726132E+03  0.7818608E-02  0.1021185E+00
         -2   -1    0    0    0  501 -0.00000000000E+00  0.00000000000E+00  0.16504180706E+03  0.16504180706E+03  0.00000000000E+00 0.  1.
          1   -1    0    0  501    0  0.00000000000E+00 -0.00000000000E+00 -0.15675567965E+04  0.15675567965E+04  0.00000000000E+00 0. -1.
        -24    2    1    2    0    0  0.18933067279E+03 -0.24135206837E+03 -0.27352450465E+03  0.41779758085E+03  0.75114841161E+02 0.  0.
    5000000    2    1    2    0    0 -0.18933067279E+03  0.24135206837E+03 -0.11289904848E+04  0.13148010227E+04  0.59998774153E+03 0.  0.
        -24    2    4    4    0    0 -0.46300560158E+02  0.40808258810E+03 -0.55545981014E+03  0.69539977528E+03  0.79812945040E+02 0.  0.
         24    2    4    4    0    0 -0.14303011263E+03 -0.16673051973E+03 -0.57353067463E+03  0.61940124741E+03  0.80397706540E+02 0.  0.
         11    1    3    3    0    0  0.10836177346E+03 -0.94200628763E+02 -0.16050469032E+03  0.21535502785E+03  0.00000000000E+00 0. -1.
        -12    1    3    3    0    0  0.80968899327E+02 -0.14715143960E+03 -0.11301981433E+03  0.20244255300E+03  0.00000000000E+00 0.  1.
         13    1    5    5    0    0 -0.28631352593E+02  0.14720132779E+03 -0.26573885575E+03  0.30513132371E+03  0.00000000000E+00 0. -1.
        -14    1    5    5    0    0 -0.17669207565E+02  0.26088126031E+03 -0.28972095439E+03  0.39026845157E+03  0.00000000000E+00 0.  1.
          2    1    6    6  502    0 -0.60660032426E+02 -0.46154683753E+02 -0.29768757789E+03  0.30729104835E+03  0.00000000000E+00 0. -1.
         -1    1    6    6    0  502 -0.82370080205E+02 -0.12057583598E+03 -0.27584309674E+03  0.31211019905E+03  0.00000000000E+00 0.  1.
<mgrwt>
<rscale>  0 0.47261323E+03</rscale>
<asrwt>0</asrwt>
<pdfrwt beam="1">  1        1 0.24116260E+00 0.47261323E+03</pdfrwt>
<pdfrwt beam="2">  1       -2 0.25391046E-01 0.47261323E+03</pdfrwt>
<totfact> 0.76117927E+01</totfact>
</mgrwt>
</event>
<event>
12    3  0.2269558E-007  0.7004496E+03  0.7818608E-02  0.9716464E-01
         -2   -1    0    0    0  501 -0.00000000000E+00  0.00000000000E+00  0.11578085149E+04  0.11578085149E+04  0.00000000000E+00 0.  1.
          1   -1    0    0  501    0  0.00000000000E+00 -0.00000000000E+00 -0.60784785149E+03  0.60784785149E+03  0.00000000000E+00 0. -1.
        -24    2    1    2    0    0  0.34872192855E+03  0.47359109109E+03 -0.21315831210E+03  0.63066988476E+03  0.80078289932E+02 0.  0.
    5000000    2    1    2    0    0 -0.34872192855E+03 -0.47359109109E+03  0.76311897548E+03  0.11349864816E+04  0.59995686318E+03 0.  0.
        -24    2    4    4    0    0  0.14803087967E+03 -0.10991787761E+03  0.30236727498E+03  0.36280867644E+03  0.78797751013E+02 0.  0.
         24    2    4    4    0    0 -0.49675280822E+03 -0.36367321348E+03  0.46075170050E+03  0.77217780517E+03  0.70319802381E+02 0.  0.
         13    1    3    3    0    0  0.26708976231E+03  0.37643783066E+03 -0.20020453276E+03  0.50311453608E+03  0.00000000000E+00 0. -1.
        -14    1    3    3    0    0  0.81632166242E+02  0.97153260429E+02 -0.12953779342E+02  0.12755534868E+03  0.00000000000E+00 0.  1.
         13    1    5    5    0    0  0.22168009708E+01 -0.30452819493E+02  0.24702050209E+02  0.39274415414E+02  0.00000000000E+00 0. -1.
        -14    1    5    5    0    0  0.14581407870E+03 -0.79465058121E+02  0.27766522477E+03  0.32353426102E+03  0.00000000000E+00 0.  1.
          2    1    6    6  502    0 -0.68917629160E+02 -0.43925716461E+02  0.92419066269E+02  0.12337095276E+03  0.00000000000E+00 0. -1.
         -1    1    6    6    0  502 -0.42783517906E+03 -0.31974749702E+03  0.36833263423E+03  0.64880685240E+03  0.00000000000E+00 0.  1.
<mgrwt>
<rscale>  0 0.70044960E+03</rscale>
<asrwt>0</asrwt>
<pdfrwt beam="1">  1        1 0.93515054E-01 0.70044960E+03</pdfrwt>
<pdfrwt beam="2">  1       -2 0.17812439E+00 0.70044960E+03</pdfrwt>
<totfact> 0.56616620E+00</totfact>
</mgrwt>
</event>
<event>
12    3  0.2269558E-007  0.9167390E+03  0.7818608E-02  0.9404895E-01
         -2   -1    0    0    0  501 -0.00000000000E+00  0.00000000000E+00  0.39206401186E+03  0.39206401186E+03  0.00000000000E+00 0.  1.
          1   -1    0    0  501    0  0.00000000000E+00 -0.00000000000E+00 -0.23301014313E+04  0.23301014313E+04  0.00000000000E+00 0. -1.
        -24    2    1    2    0    0 -0.44888869885E+03  0.69349818006E+03 -0.12125031188E+04  0.14696286762E+04  0.84875457363E+02 0.  0.
    5000000    2    1    2    0    0  0.44888869885E+03 -0.69349818006E+03 -0.72553430065E+03  0.12525367669E+04  0.60000628443E+03 0.  0.
        -24    2    4    4    0    0  0.46923706105E+03 -0.21262118934E+03 -0.28142692867E+03  0.59249979219E+03  0.80397126528E+02 0.  0.
         24    2    4    4    0    0 -0.20348362199E+02 -0.48087699072E+03 -0.44410737199E+03  0.66003697473E+03  0.82223561747E+02 0.  0.
         11    1    3    3    0    0 -0.11029984820E+03  0.21576233985E+03 -0.40908976513E+03  0.47547227021E+03  0.00000000000E+00 0. -1.
        -12    1    3    3    0    0 -0.33858885065E+03  0.47773584021E+03 -0.80341335362E+03  0.99415640600E+03  0.00000000000E+00 0.  1.
         13    1    5    5    0    0  0.17935702332E+03 -0.10812628613E+03 -0.14946170798E+03  0.25729173659E+03  0.00000000000E+00 0. -1.
        -14    1    5    5    0    0  0.28988003772E+03 -0.10449490322E+03 -0.13196522069E+03  0.33520805560E+03  0.00000000000E+00 0.  1.
          4    1    6    6  502    0 -0.35724718385E+01 -0.46475402546E+03 -0.41827024964E+03  0.62526719766E+03  0.00000000000E+00 0. -1.
         -3    1    6    6    0  502 -0.16775890360E+02 -0.16122965261E+02 -0.25837122346E+02  0.34769777067E+02  0.00000000000E+00 0.  1.
<mgrwt>
<rscale>  0 0.91673900E+03</rscale>
<asrwt>0</asrwt>
<pdfrwt beam="1">  1        1 0.35847715E+00 0.91673900E+03</pdfrwt>
<pdfrwt beam="2">  1       -2 0.60317540E-01 0.91673900E+03</pdfrwt>
<totfact> 0.40892872E+00</totfact>
</mgrwt>
</event>
<event>
12    3  0.2269558E-007  0.5302987E+03  0.7818608E-02  0.1006160E+00
          1   -1    0    0  501    0  0.00000000000E+00  0.00000000000E+00  0.99244750461E+03  0.99244750461E+03  0.00000000000E+00 0. -1.
         -2   -1    0    0    0  501 -0.00000000000E+00 -0.00000000000E+00 -0.45348045809E+03  0.45348045809E+03  0.00000000000E+00 0.  1.
        -24    2    1    2    0    0 -0.26855401624E+03  0.43919539557E+03  0.66455688618E+02  0.52502066157E+03  0.78844666288E+02 0.  0.
    5000000    2    1    2    0    0  0.26855401624E+03 -0.43919539557E+03  0.47251135790E+03  0.92090730113E+03  0.59982448999E+03 0.  0.
        -24    2    4    4    0    0  0.19700430379E+02 -0.17141551107E+02  0.41427739172E+03  0.42274012629E+03  0.80009482925E+02 0.  0.
         24    2    4    4    0    0  0.24885358587E+03 -0.42205384446E+03  0.58233966183E+02  0.49816717483E+03  0.68715241701E+02 0.  0.
         11    1    5    5    0    0 -0.14556759330E+02 -0.74783271881E+01  0.33980443451E+03  0.34019829267E+03  0.00000000000E+00 0. -1.
        -12    1    5    5    0    0  0.34257189708E+02 -0.96632239187E+01  0.74472957203E+02  0.82541833623E+02  0.00000000000E+00 0.  1.
         13    1    3    3    0    0 -0.10011369902E+03  0.15525323016E+03  0.61955676163E+02  0.19484564151E+03  0.00000000000E+00 0. -1.
        -14    1    3    3    0    0 -0.16844031722E+03  0.28394216540E+03  0.45000124553E+01  0.33017502006E+03  0.00000000000E+00 0.  1.
          2    1    6    6  502    0  0.29871466875E+02 -0.20029419631E+02 -0.38935077597E+01  0.36175151509E+02  0.00000000000E+00 0. -1.
         -1    1    6    6    0  502  0.21898211899E+03 -0.40202442483E+03  0.62127473943E+02  0.46199202332E+03  0.00000000000E+00 0.  1.
<mgrwt>
<rscale>  0 0.53029871E+03</rscale>
<asrwt>0</asrwt>
<pdfrwt beam="1">  1        1 0.15268423E+00 0.53029871E+03</pdfrwt>
<pdfrwt beam="2">  1       -2 0.69766224E-01 0.53029871E+03</pdfrwt>
<totfact> 0.26440339E+01</totfact>
</mgrwt>
</event>
<event>
12    3  0.2269558E-007  0.6790422E+03  0.7818608E-02  0.9753760E-01
          1   -1    0    0  501    0  0.00000000000E+00  0.00000000000E+00  0.69581932582E+03  0.69581932582E+03  0.00000000000E+00 0. -1.
         -4   -1    0    0    0  501 -0.00000000000E+00 -0.00000000000E+00 -0.72589510277E+03  0.72589510277E+03  0.00000000000E+00 0.  1.
        -24    2    1    2    0    0 -0.16044585063E+03  0.55806186749E+03  0.52290093761E+01  0.58597539644E+03  0.78510532822E+02 0.  0.
    5000000    2    1    2    0    0  0.16044585063E+03 -0.55806186749E+03 -0.35304786329E+02  0.83573903215E+03  0.60003115169E+03 0.  0.
        -24    2    4    4    0    0  0.29976955467E+03 -0.16829649173E+03  0.13589715276E+03  0.37868832710E+03  0.82166403846E+02 0.  0.
         24    2    4    4    0    0 -0.13932370404E+03 -0.38976537576E+03 -0.17120193909E+03  0.45705070505E+03  0.90868588604E+02 0.  0.
         11    1    5    5    0    0  0.26901340664E+03 -0.17296501967E+03  0.13611079505E+03  0.34757914136E+03  0.00000000000E+00 0. -1.
        -12    1    5    5    0    0  0.30756148031E+02  0.46685279338E+01 -0.21364228608E+00  0.31109185746E+02  0.00000000000E+00 0.  1.
         13    1    3    3    0    0 -0.33017557147E+02  0.22558186937E+03  0.25071825647E+02  0.22935983805E+03  0.00000000000E+00 0. -1.
        -14    1    3    3    0    0 -0.12742829348E+03  0.33247999812E+03 -0.19842816271E+02  0.35661555839E+03  0.00000000000E+00 0.  1.
          2    1    6    6  502    0 -0.11033883181E+03 -0.17840799693E+03 -0.72056884463E+02  0.22180231237E+03  0.00000000000E+00 0. -1.
         -1    1    6    6    0  502 -0.28984872224E+02 -0.21135737882E+03 -0.99145054625E+02  0.23524839268E+03  0.00000000000E+00 0.  1.
<mgrwt>
<rscale>  0 0.67904220E+03</rscale>
<asrwt>0</asrwt>
<pdfrwt beam="1">  1        1 0.10704913E+00 0.67904220E+03</pdfrwt>
<pdfrwt beam="2">  1       -4 0.11167617E+00 0.67904220E+03</pdfrwt>
<totfact> 0.84275893E+00</totfact>
</mgrwt>
</event>
<event>
12    3  0.2269558E-007  0.5188526E+03  0.7818608E-02  0.1008972E+00
          1   -1    0    0  501    0  0.00000000000E+00  0.00000000000E+00  0.36538888689E+04  0.36538888689E+04  0.00000000000E+00 0. -1.
         -2   -1    0    0    0  501 -0.00000000000E+00 -0.00000000000E+00 -0.14924275975E+03  0.14924275975E+03  0.00000000000E+00 0.  1.
        -24    2    1    2    0    0 -0.30606870886E+03  0.38334783121E+03  0.51934744342E+03  0.71876699430E+03  0.79187188759E+02 0.  0.
    5000000    2    1    2    0    0  0.30606870886E+03 -0.38334783121E+03  0.29852986657E+04  0.30843646343E+04  0.60055262864E+03 0.  0.
        -24    2    4    4    0    0  0.28356042512E+02 -0.18503234673E+03  0.23579776564E+04  0.23667273307E+04  0.79363690898E+02 0.  0.
         24    2    4    4    0    0  0.27771266635E+03 -0.19831548448E+03  0.62732100936E+03  0.71763730365E+03  0.70839920756E+02 0.  0.
         11    1    3    3    0    0 -0.22902812834E+03  0.27898462426E+03  0.32881132933E+03  0.48826549585E+03  0.00000000000E+00 0. -1.
        -12    1    3    3    0    0 -0.77040580526E+02  0.10436320695E+03  0.19053611409E+03  0.23050149845E+03  0.00000000000E+00 0.  1.
         13    1    5    5    0    0  0.51322353520E+02 -0.11272768248E+03  0.16676991340E+04  0.16722924134E+04  0.00000000000E+00 0. -1.
        -14    1    5    5    0    0 -0.22966311008E+02 -0.72304664246E+02  0.69027852232E+03  0.69443491724E+03  0.00000000000E+00 0.  1.
          4    1    6    6  502    0  0.16984434493E+03 -0.81759973542E+02  0.37015549592E+03  0.41538763335E+03  0.00000000000E+00 0. -1.
         -3    1    6    6    0  502  0.10786832142E+03 -0.11655551094E+03  0.25716551345E+03  0.30224967031E+03  0.00000000000E+00 0.  1.
<mgrwt>
<rscale>  0 0.51885259E+03</rscale>
<asrwt>0</asrwt>
<pdfrwt beam="1">  1        1 0.56213668E+00 0.51885259E+03</pdfrwt>
<pdfrwt beam="2">  1       -2 0.22960427E-01 0.51885259E+03</pdfrwt>
<totfact> 0.31669178E+00</totfact>
</mgrwt>
</event>
<event>
12    3  0.2269558E-007  0.1279286E+04  0.7818608E-02  0.9046155E-01
          1   -1    0    0  501    0  0.00000000000E+00  0.00000000000E+00  0.18545878142E+04  0.18545878142E+04  0.00000000000E+00 0. -1.
         -2   -1    0    0    0  501 -0.00000000000E+00 -0.00000000000E+00 -0.98795251821E+03  0.98795251821E+03  0.00000000000E+00 0.  1.
        -24    2    1    2    0    0  0.58953940403E+03  0.10678593026E+04 -0.15643292962E+02  0.12219439006E+04  0.70865960889E+02 0.  0.
    5000000    2    1    2    0    0 -0.58953940403E+03 -0.10678593026E+04  0.88227858891E+03  0.16205964318E+04  0.60003090527E+03 0.  0.
        -24    2    4    4    0    0 -0.57675738036E+03 -0.48412789683E+03  0.60644569072E+03  0.97021760353E+03  0.80727480559E+02 0.  0.
         24    2    4    4    0    0 -0.12782023676E+02 -0.58373140578E+03  0.27583289819E+03  0.65037882828E+03  0.77479663999E+02 0.  0.
         11    1    5    5    0    0 -0.11276981007E+03 -0.11843372455E+03  0.16856086669E+03  0.23485387575E+03  0.00000000000E+00 0. -1.
        -12    1    5    5    0    0 -0.46398757029E+03 -0.36569417228E+03  0.43788482403E+03  0.73536372778E+03  0.00000000000E+00 0.  1.
         13    1    3    3    0    0  0.32337687522E+03  0.54934637596E+03  0.22547641768E+02  0.63785769601E+03  0.00000000000E+00 0. -1.
        -14    1    3    3    0    0  0.26616252881E+03  0.51851292665E+03 -0.38190934730E+02  0.58408620454E+03  0.00000000000E+00 0.  1.
          4    1    6    6  502    0 -0.13904231417E+02 -0.42122360468E+03  0.15996099201E+03  0.45078838911E+03  0.00000000000E+00 0. -1.
         -3    1    6    6    0  502  0.11222077414E+01 -0.16250780110E+03  0.11587190618E+03  0.19959043917E+03  0.00000000000E+00 0.  1.
<mgrwt>
<rscale>  0 0.12792855E+04</rscale>
<asrwt>0</asrwt>
<pdfrwt beam="1">  1        1 0.28532120E+00 0.12792855E+04</pdfrwt>
<pdfrwt beam="2">  1       -2 0.15199270E+00 0.12792855E+04</pdfrwt>
<totfact> 0.91871343E-01</totfact>
</mgrwt>
</event>
<event>
12    3  0.2269558E-007  0.8841711E+03  0.7818608E-02  0.9445587E-01
         -2   -1    0    0    0  501 -0.00000000000E+00  0.00000000000E+00  0.94880488596E+03  0.94880488596E+03  0.00000000000E+00 0.  1.
          1   -1    0    0  501    0  0.00000000000E+00 -0.00000000000E+00 -0.99375786160E+03  0.99375786160E+03  0.00000000000E+00 0. -1.
        -24    2    1    2    0    0 -0.14720588069E+03 -0.80752093300E+03 -0.32765927808E+03  0.88724015398E+03  0.77941386785E+02 0.  0.
    5000000    2    1    2    0    0  0.14720588069E+03  0.80752093300E+03  0.28270630245E+03  0.10553225936E+04  0.60001941181E+03 0.  0.
        -24    2    4    4    0    0  0.29851648483E+03  0.66565544664E+03  0.36398676566E+03  0.81908928166E+03  0.78813833815E+02 0.  0.
         24    2    4    4    0    0 -0.15131060414E+03  0.14186548636E+03 -0.81280463210E+02  0.23623331193E+03  0.78606289935E+02 0.  0.
         11    1    5    5    0    0  0.14754979514E+03  0.33140354039E+03  0.22498244120E+03  0.42686806800E+03  0.00000000000E+00 0. -1.
        -12    1    5    5    0    0  0.15096668969E+03  0.33425190625E+03  0.13900432445E+03  0.39222121366E+03  0.00000000000E+00 0.  1.
         13    1    3    3    0    0 -0.27851396172E+02 -0.97341923848E+02 -0.66858753459E+02  0.12133113088E+03  0.00000000000E+00 0. -1.
        -14    1    3    3    0    0 -0.11935448451E+03 -0.71017900915E+03 -0.26080052462E+03  0.76590902309E+03  0.00000000000E+00 0.  1.
          4    1    6    6  502    0 -0.80182725411E+02  0.11747851923E+03 -0.30406941963E+02  0.14544777088E+03  0.00000000000E+00 0. -1.
         -3    1    6    6    0  502 -0.71127878733E+02  0.24386967132E+02 -0.50873521247E+02  0.90785541046E+02  0.00000000000E+00 0.  1.
<mgrwt>
<rscale>  0 0.88417114E+03</rscale>
<asrwt>0</asrwt>
<pdfrwt beam="1">  1        1 0.15288582E+00 0.88417114E+03</pdfrwt>
<pdfrwt beam="2">  1       -2 0.14596998E+00 0.88417114E+03</pdfrwt>
<totfact> 0.43563798E+00</totfact>
</mgrwt>
</event>
<event>
12    3  0.2269558E-007  0.4695880E+03  0.7818608E-02  0.1022037E+00
          1   -1    0    0  501    0  0.00000000000E+00  0.00000000000E+00  0.41218759341E+03  0.41218759341E+03  0.00000000000E+00 0. -1.
         -2   -1    0    0    0  501 -0.00000000000E+00 -0.00000000000E+00 -0.11140656898E+04  0.11140656898E+04  0.00000000000E+00 0.  1.
        -24    2    1    2    0    0  0.39741463822E+03 -0.14955699421E+03  0.94674552688E+02  0.44235245607E+03  0.80042084407E+02 0.  0.
    5000000    2    1    2    0    0 -0.39741463822E+03  0.14955699421E+03 -0.79655264905E+03  0.10839008271E+04  0.60003265836E+03 0.  0.
        -24    2    4    4    0    0 -0.31929675322E+03 -0.10612754079E+02 -0.76520106501E+02  0.33796926562E+03  0.79403089620E+02 0.  0.
         24    2    4    4    0    0 -0.78117885007E+02  0.16016974829E+03 -0.72003254255E+03  0.74593156149E+03  0.78805328932E+02 0.  0.
         11    1    5    5    0    0 -0.24989655674E+03 -0.33261118740E+01 -0.92313204969E+02  0.26642274660E+03  0.00000000000E+00 0. -1.
        -12    1    5    5    0    0 -0.69400196471E+02 -0.72866422053E+01  0.15793098469E+02  0.71546519022E+02  0.00000000000E+00 0.  1.
         13    1    3    3    0    0  0.85952400345E+02 -0.32091359997E+02 -0.12618530530E+02  0.92611542608E+02  0.00000000000E+00 0. -1.
        -14    1    3    3    0    0  0.31146223788E+03 -0.11746563421E+03  0.10729308322E+03  0.34974091346E+03  0.00000000000E+00 0.  1.
          2    1    6    6  502    0 -0.89680898171E+02  0.10321030433E+03 -0.50468821593E+03  0.52288165555E+03  0.00000000000E+00 0. -1.
         -1    1    6    6    0  502  0.11563013164E+02  0.56959443962E+02 -0.21534432662E+03  0.22304990593E+03  0.00000000000E+00 0.  1.
<mgrwt>
<rscale>  0 0.46958799E+03</rscale>
<asrwt>0</asrwt>
<pdfrwt beam="1">  1        1 0.63413477E-01 0.46958799E+03</pdfrwt>
<pdfrwt beam="2">  1       -2 0.17139472E+00 0.46958799E+03</pdfrwt>
<totfact> 0.11089417E+01</totfact>
</mgrwt>
</event>
<event>
12    3  0.2269558E-007  0.1209605E+04  0.7818608E-02  0.9104490E-01
         -2   -1    0    0    0  501 -0.00000000000E+00  0.00000000000E+00  0.17310267576E+04  0.17310267576E+04  0.00000000000E+00 0.  1.
          1   -1    0    0  501    0  0.00000000000E+00 -0.00000000000E+00 -0.94155177539E+03  0.94155177539E+03  0.00000000000E+00 0. -1.
        -24    2    1    2    0    0  0.97884636631E+03 -0.68826423986E+03  0.52000458958E+03  0.13071607853E+04  0.80104136880E+02 0.  0.
    5000000    2    1    2    0    0 -0.97884636631E+03  0.68826423986E+03  0.26947039267E+03  0.13654177477E+04  0.59991954508E+03 0.  0.
        -24    2    4    4    0    0 -0.24434818011E+03  0.28490963460E+03 -0.16565023351E+03  0.41759798340E+03  0.77900852774E+02 0.  0.
         24    2    4    4    0    0 -0.73449818619E+03  0.40335460526E+03  0.43512062618E+03  0.94781976433E+03  0.82763658781E+02 0.  0.
         11    1    3    3    0    0  0.48168909257E+03 -0.29111928275E+03  0.23410948376E+03  0.60957531862E+03  0.00000000000E+00 0. -1.
        -12    1    3    3    0    0  0.49715727374E+03 -0.39714495711E+03  0.28589510582E+03  0.69758546668E+03  0.00000000000E+00 0.  1.
         11    1    5    5    0    0 -0.23488725147E+03  0.24239979918E+03 -0.13146292648E+03  0.36223222467E+03  0.00000000000E+00 0. -1.
        -12    1    5    5    0    0 -0.94609286435E+01  0.42509835413E+02 -0.34187307034E+02  0.55365758731E+02  0.00000000000E+00 0.  1.
          4    1    6    6  502    0 -0.78230682404E+02  0.58096619205E+02  0.25782257624E+02  0.10079673428E+03  0.00000000000E+00 0. -1.
         -3    1    6    6    0  502 -0.65626750379E+03  0.34525798606E+03  0.40933836856E+03  0.84702303005E+03  0.00000000000E+00 0.  1.
<mgrwt>
<rscale>  0 0.12096054E+04</rscale>
<asrwt>0</asrwt>
<pdfrwt beam="1">  1        1 0.14485412E+00 0.12096054E+04</pdfrwt>
<pdfrwt beam="2">  1       -2 0.26631181E+00 0.12096054E+04</pdfrwt>
<totfact> 0.73655888E-01</totfact>
</mgrwt>
</event>
<event>
12    3  0.2269558E-007  0.6805164E+03  0.7818608E-02  0.9751144E-01
         -2   -1    0    0    0  501 -0.00000000000E+00  0.00000000000E+00  0.11503161379E+04  0.11503161379E+04  0.00000000000E+00 0.  1.
          1   -1    0    0  501    0  0.00000000000E+00 -0.00000000000E+00 -0.61048440495E+03  0.61048440495E+03  0.00000000000E+00 0. -1.
        -24    2    1    2    0    0  0.52795901817E+03  0.31244595790E+03  0.64794148146E+03  0.89570241825E+03  0.78047787845E+02 0.  0.
    5000000    2    1    2    0    0 -0.52795901817E+03 -0.31244595790E+03 -0.10810974847E+03  0.86509812464E+03  0.60028647000E+03 0.  0.
        -24    2    4    4    0    0 -0.21682969388E+03 -0.35917662330E+03  0.14780697450E+03  0.45201202787E+03  0.80280811913E+02 0.  0.
         24    2    4    4    0    0 -0.31112932429E+03  0.46730665399E+02 -0.25591672297E+03  0.41308609677E+03  0.78495494928E+02 0.  0.
         13    1    3    3    0    0  0.45902961877E+03  0.28189238672E+03  0.52980470654E+03  0.75555577932E+03  0.00000000000E+00 0. -1.
        -14    1    3    3    0    0  0.68929399400E+02  0.30553571179E+02  0.11813677492E+03  0.14014663893E+03  0.00000000000E+00 0.  1.
         13    1    5    5    0    0 -0.12111918408E+03 -0.25681510146E+03  0.73084585591E+02  0.29319824307E+03  0.00000000000E+00 0. -1.
        -14    1    5    5    0    0 -0.95710509795E+02 -0.10236152184E+03  0.74722388907E+02  0.15881378480E+03  0.00000000000E+00 0.  1.
          4    1    6    6  502    0 -0.84401176649E+02 -0.19600638788E+02 -0.86097296514E+02  0.12214944997E+03  0.00000000000E+00 0. -1.
         -3    1    6    6    0  502 -0.22672814764E+03  0.66331304187E+02 -0.16981942646E+03  0.29093664680E+03  0.00000000000E+00 0.  1.
<mgrwt>
<rscale>  0 0.68051636E+03</rscale>
<asrwt>0</asrwt>
<pdfrwt beam="1">  1        1 0.93920678E-01 0.68051636E+03</pdfrwt>
<pdfrwt beam="2">  1       -2 0.17697171E+00 0.68051636E+03</pdfrwt>
<totfact> 0.57455841E+00</totfact>
</mgrwt>
</event>
<event>
12    3  0.2269558E-007  0.1417958E+04  0.7818608E-02  0.8940922E-01
         -2   -1    0    0    0  501 -0.00000000000E+00  0.00000000000E+00  0.11568097656E+04  0.11568097656E+04  0.00000000000E+00 0.  1.
          1   -1    0    0  501    0  0.00000000000E+00 -0.00000000000E+00 -0.19258613605E+04  0.19258613605E+04  0.00000000000E+00 0. -1.
        -24    2    1    2    0    0  0.13119974612E+04  0.49714749166E+03 -0.77500992477E+02  0.14073273411E+04  0.77915817535E+02 0.  0.
    5000000    2    1    2    0    0 -0.13119974612E+04 -0.49714749166E+03 -0.69155060245E+03  0.16753437849E+04  0.60003466183E+03 0.  0.
        -24    2    4    4    0    0 -0.11424816478E+04 -0.49892771100E+03 -0.36906353939E+03  0.13026112399E+04  0.79968555364E+02 0.  0.
         24    2    4    4    0    0 -0.16951581333E+03  0.17802193382E+01 -0.32248706306E+03  0.37273254500E+03  0.78694752759E+02 0.  0.
         11    1    5    5    0    0 -0.24751871097E+03 -0.12649782782E+03 -0.52625501981E+02  0.28290750464E+03  0.00000000000E+00 0. -1.
        -12    1    5    5    0    0 -0.89496293686E+03 -0.37242988318E+03 -0.31643803741E+03  0.10197037353E+04  0.00000000000E+00 0.  1.
         11    1    3    3    0    0  0.80262547009E+03  0.33121751531E+03 -0.76084374588E+02  0.87160858173E+03  0.00000000000E+00 0. -1.
        -12    1    3    3    0    0  0.50937199108E+03  0.16592997635E+03 -0.14166178882E+01  0.53571875938E+03  0.00000000000E+00 0.  1.
          4    1    6    6  502    0 -0.73732811978E+02  0.37045654549E+02 -0.11550124360E+03  0.14194874200E+03  0.00000000000E+00 0. -1.
         -3    1    6    6    0  502 -0.95783001353E+02 -0.35265435211E+02 -0.20698581946E+03  0.23078380300E+03  0.00000000000E+00 0.  1.
<mgrwt>
<rscale>  0 0.14179575E+04</rscale>
<asrwt>0</asrwt>
<pdfrwt beam="1">  1        1 0.29628636E+00 0.14179575E+04</pdfrwt>
<pdfrwt beam="2">  1       -2 0.17797074E+00 0.14179575E+04</pdfrwt>
<totfact> 0.52310479E-01</totfact>
</mgrwt>
</event>
<event>
12    3  0.4085180E-007  0.7771104E+03  0.7818608E-02  0.9593753E-01
         -2   -1    0    0    0  501 -0.00000000000E+00  0.00000000000E+00  0.53159045931E+03  0.53159045931E+03  0.00000000000E+00 0.  1.
          1   -1    0    0  501    0  0.00000000000E+00 -0.00000000000E+00 -0.13520514650E+04  0.13520514650E+04  0.00000000000E+00 0. -1.
        -24    2    1    2    0    0  0.68553921911E+03 -0.20333408108E+02 -0.53493884185E+02  0.69261079246E+03  0.80440324217E+02 0.  0.
    5000000    2    1    2    0    0 -0.68553921911E+03  0.20333408108E+02 -0.76696712151E+03  0.11910311318E+04  0.59994926713E+03 0.  0.
        -24    2    4    4    0    0 -0.19710807848E+03 -0.22709262777E+03 -0.46726809026E+03  0.56218193074E+03  0.85360405835E+02 0.  0.
         24    2    4    4    0    0 -0.48843114063E+03  0.24742603588E+03 -0.29969903124E+03  0.62884920111E+03  0.76466895011E+02 0.  0.
         11    1    3    3    0    0  0.44572825465E+03 -0.44878641774E+02 -0.13006739919E+02  0.44817066477E+03  0.00000000000E+00 0. -1.
        -12    1    3    3    0    0  0.23981096446E+03  0.24545233667E+02 -0.40487144266E+02  0.24444012769E+03  0.00000000000E+00 0.  1.
         13    1    5    5    0    0 -0.12081658715E+03 -0.74578568798E+02 -0.20628635742E+03  0.25042498261E+03  0.00000000000E+00 0. -1.
        -14    1    5    5    0    0 -0.76291491325E+02 -0.15251405897E+03 -0.26098173284E+03  0.31175694813E+03  0.00000000000E+00 0.  1.
          2    1    6    6  502    0 -0.24911585429E+03  0.84110067500E+02 -0.15053562092E+03  0.30297555261E+03  0.00000000000E+00 0. -1.
         -1    1    6    6    0  502 -0.23931528635E+03  0.16331596838E+03 -0.14916341032E+03  0.32587364850E+03  0.00000000000E+00 0.  1.
<mgrwt>
<rscale>  0 0.77711038E+03</rscale>
<asrwt>0</asrwt>
<pdfrwt beam="1">  1        1 0.20800792E+00 0.77711038E+03</pdfrwt>
<pdfrwt beam="2">  1       -2 0.81783147E-01 0.77711038E+03</pdfrwt>
<totfact> 0.98334085E+00</totfact>
</mgrwt>
</event>
<event>
12    3  0.2269558E-007  0.1625647E+04  0.7818608E-02  0.8804945E-01
         -2   -1    0    0    0  501 -0.00000000000E+00  0.00000000000E+00  0.67195624747E+03  0.67195624747E+03  0.00000000000E+00 0.  1.
          1   -1    0    0  501    0  0.00000000000E+00 -0.00000000000E+00 -0.42073662834E+04  0.42073662834E+04  0.00000000000E+00 0. -1.
        -24    2    1    2    0    0  0.14353448017E+04  0.70391485889E+03 -0.12736067441E+04  0.20453286381E+04  0.74727980079E+02 0.  0.
    5000000    2    1    2    0    0 -0.14353448017E+04 -0.70391485889E+03 -0.22618032919E+04  0.28339938928E+04  0.60004701875E+03 0.  0.
        -24    2    4    4    0    0 -0.12168797180E+04 -0.72252789892E+03 -0.21495778520E+04  0.25749237687E+04  0.81881989060E+02 0.  0.
         24    2    4    4    0    0 -0.21846508376E+03  0.18613040033E+02 -0.11222543992E+03  0.25907012410E+03  0.80307793840E+02 0.  0.
         11    1    5    5    0    0 -0.81389126333E+03 -0.43868991601E+03 -0.13889528545E+04  0.16685496285E+04  0.00000000000E+00 0. -1.
        -12    1    5    5    0    0 -0.40298845463E+03 -0.28383798291E+03 -0.76062499747E+03  0.90637414012E+03  0.00000000000E+00 0.  1.
         11    1    3    3    0    0  0.40366143600E+03  0.16095747616E+03 -0.34628293044E+03  0.55566332609E+03  0.00000000000E+00 0. -1.
        -12    1    3    3    0    0  0.10316833657E+04  0.54295738272E+03 -0.92732381362E+03  0.14896653120E+04  0.00000000000E+00 0.  1.
          2    1    6    6  502    0 -0.17310110081E+03 -0.19420583573E+02 -0.80184190610E+02  0.19175675892E+03  0.00000000000E+00 0. -1.
         -1    1    6    6    0  502 -0.45363982950E+02  0.38033623606E+02 -0.32041249305E+02  0.67313365171E+02  0.00000000000E+00 0.  1.
<mgrwt>
<rscale>  0 0.16256470E+04</rscale>
<asrwt>0</asrwt>
<pdfrwt beam="1">  1        1 0.64728712E+00 0.16256470E+04</pdfrwt>
<pdfrwt beam="2">  1       -2 0.10337788E+00 0.16256470E+04</pdfrwt>
<totfact> 0.39797741E-02</totfact>
</mgrwt>
</event>
<event>
12    3  0.2269558E-007  0.4993419E+03  0.7818608E-02  0.1013951E+00
          1   -1    0    0  501    0  0.00000000000E+00  0.00000000000E+00  0.38856584139E+04  0.38856584139E+04  0.00000000000E+00 0. -1.
         -2   -1    0    0    0  501 -0.00000000000E+00 -0.00000000000E+00 -0.90343235685E+02  0.90343235685E+02  0.00000000000E+00 0.  1.
        -24    2    1    2    0    0 -0.39182464912E+03  0.31147250418E+02  0.78014033645E+03  0.87669033951E+03  0.73961476234E+02 0.  0.
    5000000    2    1    2    0    0  0.39182464912E+03 -0.31147250418E+02  0.30151748417E+04  0.30993113101E+04  0.59996213503E+03 0.  0.
        -24    2    4    4    0    0  0.48707493883E+03  0.10476754198E+02  0.15195358421E+04  0.15979533118E+04  0.84343659668E+02 0.  0.
         24    2    4    4    0    0 -0.95250289710E+02 -0.41624004616E+02  0.14956389997E+04  0.15013579983E+04  0.79590490245E+02 0.  0.
         11    1    5    5    0    0  0.25278704428E+03  0.36067393978E+02  0.88332710141E+03  0.91949383617E+03  0.00000000000E+00 0. -1.
        -12    1    5    5    0    0  0.23428789455E+03 -0.25590639781E+02  0.63620874067E+03  0.67845947563E+03  0.00000000000E+00 0.  1.
         13    1    3    3    0    0 -0.24482305452E+03  0.15449904773E+02  0.56163865314E+03  0.61287437888E+03  0.00000000000E+00 0. -1.
        -14    1    3    3    0    0 -0.14700159460E+03  0.15697345645E+02  0.21850168331E+03  0.26381596063E+03  0.00000000000E+00 0.  1.
          4    1    6    6  502    0 -0.28566772102E+02  0.99047803850E+01  0.80930033460E+03  0.80986492499E+03  0.00000000000E+00 0. -1.
         -3    1    6    6    0  502 -0.66683517609E+02 -0.51528785001E+02  0.68633866507E+03  0.69149307326E+03  0.00000000000E+00 0.  1.
<mgrwt>
<rscale>  0 0.49934191E+03</rscale>
<asrwt>0</asrwt>
<pdfrwt beam="1">  1        1 0.59779347E+00 0.49934191E+03</pdfrwt>
<pdfrwt beam="2">  1       -2 0.13898962E-01 0.49934191E+03</pdfrwt>
<totfact> 0.48898524E+00</totfact>
</mgrwt>
</event>
<event>
12    3  0.2269558E-007  0.1220476E+04  0.7818608E-02  0.9095121E-01
          1   -1    0    0  501    0  0.00000000000E+00  0.00000000000E+00  0.12478804900E+04  0.12478804900E+04  0.00000000000E+00 0. -1.
         -2   -1    0    0    0  501 -0.00000000000E+00 -0.00000000000E+00 -0.13443265059E+04  0.13443265059E+04  0.00000000000E+00 0.  1.
        -24    2    1    2    0    0 -0.39863362661E+03 -0.11156834155E+04 -0.35477445981E+03  0.12392680797E+04  0.79134090573E+02 0.  0.
    5000000    2    1    2    0    0  0.39863362661E+03  0.11156834155E+04  0.25832844388E+03  0.13529389161E+04  0.60004322679E+03 0.  0.
        -24    2    4    4    0    0 -0.52929033729E+02  0.61545008637E+01 -0.57176236757E+02  0.11162962663E+03  0.79703770298E+02 0.  0.
         24    2    4    4    0    0  0.45156266034E+03  0.11095289146E+04  0.31550468063E+03  0.12413092895E+04  0.79638559161E+02 0.  0.
         11    1    5    5    0    0 -0.26109725544E+02  0.11544857550E+02  0.16545394444E+02  0.32996235863E+02  0.00000000000E+00 0. -1.
        -12    1    5    5    0    0 -0.26819308185E+02 -0.53903566859E+01 -0.73721631201E+02  0.78633390768E+02  0.00000000000E+00 0.  1.
         13    1    3    3    0    0 -0.19117652506E+03 -0.64311842309E+03 -0.21588135852E+03  0.70480815177E+03  0.00000000000E+00 0. -1.
        -14    1    3    3    0    0 -0.20745710155E+03 -0.47256499240E+03 -0.13889310129E+03  0.53445992797E+03  0.00000000000E+00 0.  1.
          4    1    6    6  502    0  0.37080359675E+03  0.89344098411E+03  0.28611574513E+03  0.10087588012E+04  0.00000000000E+00 0. -1.
         -3    1    6    6    0  502  0.80759063581E+02  0.21608793050E+03  0.29388935506E+02  0.23255048826E+03  0.00000000000E+00 0.  1.
<mgrwt>
<rscale>  0 0.12204757E+04</rscale>
<asrwt>0</asrwt>
<pdfrwt beam="1">  1        1 0.19198161E+00 0.12204757E+04</pdfrwt>
<pdfrwt beam="2">  1       -2 0.20681946E+00 0.12204757E+04</pdfrwt>
<totfact> 0.10091922E+00</totfact>
</mgrwt>
</event>
<event>
12    3  0.2269558E-007  0.9505409E+03  0.7818608E-02  0.9364519E-01
         -2   -1    0    0    0  501 -0.00000000000E+00  0.00000000000E+00  0.58391339855E+03  0.58391339855E+03  0.00000000000E+00 0.  1.
          1   -1    0    0  501    0  0.00000000000E+00 -0.00000000000E+00 -0.18370174267E+04  0.18370174267E+04  0.00000000000E+00 0. -1.
        -24    2    1    2    0    0 -0.90173390587E+03 -0.57265416707E+02 -0.24275035868E+03  0.93891537421E+03  0.78936546344E+02 0.  0.
    5000000    2    1    2    0    0  0.90173390587E+03  0.57265416707E+02 -0.10103536694E+04  0.14820154510E+04  0.59929282888E+03 0.  0.
        -24    2    4    4    0    0  0.61086948840E+03  0.22566028329E+03 -0.91144371064E+03  0.11226930551E+04  0.75006419264E+02 0.  0.
         24    2    4    4    0    0  0.29086441747E+03 -0.16839486658E+03 -0.98909958799E+02  0.35932239594E+03  0.79815185485E+02 0.  0.
         11    1    5    5    0    0  0.22734979316E+03  0.46054120526E+02 -0.33002611832E+03  0.40339329350E+03  0.00000000000E+00 0. -1.
        -12    1    5    5    0    0  0.38351969524E+03  0.17960616276E+03 -0.58141759232E+03  0.71929976157E+03  0.00000000000E+00 0.  1.
         11    1    3    3    0    0 -0.56343554278E+03 -0.43517023854E+02 -0.11283376175E+03  0.57626799323E+03  0.00000000000E+00 0. -1.
        -12    1    3    3    0    0 -0.33829836309E+03 -0.13748392853E+02 -0.12991659692E+03  0.36264738098E+03  0.00000000000E+00 0.  1.
          2    1    6    6  502    0  0.10080742992E+03 -0.25038169102E+02 -0.53979158417E+02  0.11705894832E+03  0.00000000000E+00 0. -1.
         -1    1    6    6    0  502  0.19005698755E+03 -0.14335669748E+03 -0.44930800381E+02  0.24226344762E+03  0.00000000000E+00 0.  1.
<mgrwt>
<rscale>  0 0.95054090E+03</rscale>
<asrwt>0</asrwt>
<pdfrwt beam="1">  1        1 0.28261807E+00 0.95054090E+03</pdfrwt>
<pdfrwt beam="2">  1       -2 0.89832830E-01 0.95054090E+03</pdfrwt>
<totfact> 0.36206852E+00</totfact>
</mgrwt>
</event>
<event>
12    3  0.2269558E-007  0.9242827E+03  0.7818608E-02  0.9395726E-01
          3   -1    0    0  501    0  0.00000000000E+00  0.00000000000E+00  0.76436061673E+03  0.76436061673E+03  0.00000000000E+00 0. -1.
         -4   -1    0    0    0  501 -0.00000000000E+00 -0.00000000000E+00 -0.12395738676E+04  0.12395738676E+04  0.00000000000E+00 0.  1.
        -24    2    1    2    0    0 -0.85458656464E+03  0.16482446493E+03 -0.89351288682E+02  0.87853157767E+03  0.79679228605E+02 0.  0.
    5000000    2    1    2    0    0  0.85458656464E+03 -0.16482446493E+03 -0.38586196220E+03  0.11254029067E+04  0.60013077556E+03 0.  0.
        -24    2    4    4    0    0  0.46191746942E+03 -0.30983130351E+03 -0.41588977922E+03  0.69954734868E+03  0.83898744910E+02 0.  0.
         24    2    4    4    0    0  0.39266909522E+03  0.14500683858E+03  0.30027817016E+02  0.42585555799E+03  0.72355268683E+02 0.  0.
         11    1    5    5    0    0  0.20327308161E+03 -0.10854881278E+03 -0.12964347972E+03  0.26440541275E+03  0.00000000000E+00 0. -1.
        -12    1    5    5    0    0  0.25864438782E+03 -0.20128249073E+03 -0.28624629950E+03  0.43514193593E+03  0.00000000000E+00 0.  1.
         13    1    3    3    0    0 -0.31499533509E+03  0.85458658927E+02 -0.33732440737E+01  0.32639948267E+03  0.00000000000E+00 0. -1.
        -14    1    3    3    0    0 -0.53959122956E+03  0.79365806000E+02 -0.85978044608E+02  0.55213209500E+03  0.00000000000E+00 0.  1.
          4    1    6    6  502    0  0.28492600534E+03  0.10322210391E+03 -0.10945908455E+02  0.30324485844E+03  0.00000000000E+00 0. -1.
         -3    1    6    6    0  502  0.10774308987E+03  0.41784734667E+02  0.40973725470E+02  0.12261069956E+03  0.00000000000E+00 0.  1.
<mgrwt>
<rscale>  0 0.92428267E+03</rscale>
<asrwt>0</asrwt>
<pdfrwt beam="1">  1        3 0.11759394E+00 0.92428267E+03</pdfrwt>
<pdfrwt beam="2">  1       -4 0.19070367E+00 0.92428267E+03</pdfrwt>
<totfact> 0.20128140E-01</totfact>
</mgrwt>
</event>
<event>
12    3  0.2269558E-007  0.5238557E+03  0.7818608E-02  0.1007733E+00
          1   -1    0    0  501    0  0.00000000000E+00  0.00000000000E+00  0.95814053576E+03  0.95814053576E+03  0.00000000000E+00 0. -1.
         -2   -1    0    0    0  501 -0.00000000000E+00 -0.00000000000E+00 -0.29745389626E+03  0.29745389626E+03  0.00000000000E+00 0.  1.
        -24    2    1    2    0    0 -0.15306733444E+03  0.32278676012E+03  0.28021075695E+03  0.46043517774E+03  0.76560977067E+02 0.  0.
    5000000    2    1    2    0    0  0.15306733444E+03 -0.32278676012E+03  0.38047588255E+03  0.79515925428E+03  0.59991286124E+03 0.  0.
        -24    2    4    4    0    0  0.33098653522E+03 -0.35895895477E+02  0.25568915771E+03  0.42702254677E+03  0.78298839527E+02 0.  0.
         24    2    4    4    0    0 -0.17791920078E+03 -0.28689086465E+03  0.12478672484E+03  0.36813670751E+03  0.77403478576E+02 0.  0.
         11    1    3    3    0    0 -0.11079398350E+02  0.10351716071E+03  0.77862489891E+02  0.13000431901E+03  0.00000000000E+00 0. -1.
        -12    1    3    3    0    0 -0.14198793609E+03  0.21926959942E+03  0.20234826706E+03  0.33043085874E+03  0.00000000000E+00 0.  1.
         11    1    5    5    0    0  0.38136696799E+02  0.18902918748E+02  0.46156423132E+02  0.62786490397E+02  0.00000000000E+00 0. -1.
        -12    1    5    5    0    0  0.29284983842E+03 -0.54798814226E+02  0.20953273458E+03  0.36423605637E+03  0.00000000000E+00 0.  1.
          4    1    6    6  502    0 -0.14472999894E+03 -0.18603917738E+03  0.58109074262E+02  0.24276328517E+03  0.00000000000E+00 0. -1.
         -3    1    6    6    0  502 -0.33189201839E+02 -0.10085168726E+03  0.66677650576E+02  0.12537342234E+03  0.00000000000E+00 0.  1.
<mgrwt>
<rscale>  0 0.52385570E+03</rscale>
<asrwt>0</asrwt>
<pdfrwt beam="1">  1        1 0.14740624E+00 0.52385570E+03</pdfrwt>
<pdfrwt beam="2">  1       -2 0.45762138E-01 0.52385570E+03</pdfrwt>
<totfact> 0.67540775E+01</totfact>
</mgrwt>
</event>
<event>
12    3  0.2269558E-007  0.3883638E+03  0.7818608E-02  0.1047885E+00
          1   -1    0    0  501    0  0.00000000000E+00  0.00000000000E+00  0.18480942840E+04  0.18480942840E+04  0.00000000000E+00 0. -1.
         -2   -1    0    0    0  501 -0.00000000000E+00 -0.00000000000E+00 -0.16408629024E+03  0.16408629024E+03  0.00000000000E+00 0.  1.
        -24    2    1    2    0    0  0.14948631855E+03 -0.12081535499E+03 -0.64736579920E+01  0.20809141784E+03  0.79483460511E+02 0.  0.
    5000000    2    1    2    0    0 -0.14948631855E+03  0.12081535499E+03  0.16904816518E+04  0.18040891564E+04  0.60005579730E+03 0.  0.
        -24    2    4    4    0    0  0.80396719327E+02 -0.17851084344E+03  0.34723132426E+03  0.40660618205E+03  0.80182548154E+02 0.  0.
         24    2    4    4    0    0 -0.22988303788E+03  0.29932619844E+03  0.13432503275E+04  0.13974829744E+04  0.78707287466E+02 0.  0.
         11    1    3    3    0    0  0.11360715510E+03 -0.63445410270E+02 -0.34862503761E+02  0.13471191463E+03  0.00000000000E+00 0. -1.
        -12    1    3    3    0    0  0.35879163448E+02 -0.57369944722E+02  0.28388845769E+02  0.73379503209E+02  0.00000000000E+00 0.  1.
         13    1    5    5    0    0  0.63458646817E+02 -0.93752099440E+02  0.26108398918E+03  0.28457214447E+03  0.00000000000E+00 0. -1.
        -14    1    5    5    0    0  0.16938072509E+02 -0.84758744004E+02  0.86147335082E+02  0.12203403758E+03  0.00000000000E+00 0.  1.
          4    1    6    6  502    0 -0.10910095197E+03  0.11159416476E+03  0.67980563353E+03  0.69748976674E+03  0.00000000000E+00 0. -1.
         -3    1    6    6    0  502 -0.12078208591E+03  0.18773203368E+03  0.66344469400E+03  0.69999320764E+03  0.00000000000E+00 0.  1.
<mgrwt>
<rscale>  0 0.38836378E+03</rscale>
<asrwt>0</asrwt>
<pdfrwt beam="1">  1        1 0.28432218E+00 0.38836378E+03</pdfrwt>
<pdfrwt beam="2">  1       -2 0.25244046E-01 0.38836378E+03</pdfrwt>
<totfact> 0.50900066E+01</totfact>
</mgrwt>
</event>
<event>
12    3  0.2269558E-007  0.7226918E+03  0.7818608E-02  0.9679194E-01
          1   -1    0    0  501    0  0.00000000000E+00  0.00000000000E+00  0.26229964379E+04  0.26229964379E+04  0.00000000000E+00 0. -1.
         -2   -1    0    0    0  501 -0.00000000000E+00 -0.00000000000E+00 -0.22278960277E+03  0.22278960277E+03  0.00000000000E+00 0.  1.
        -24    2    1    2    0    0  0.26978338287E+03  0.54454882844E+03  0.14145084268E+04  0.15415253595E+04  0.78420944039E+02 0.  0.
    5000000    2    1    2    0    0 -0.26978338287E+03 -0.54454882844E+03  0.98569840833E+03  0.13042606811E+04  0.60014837486E+03 0.  0.
        -24    2    4    4    0    0 -0.30418694150E+03 -0.63959983029E+03  0.91217365865E+03  0.11578194985E+04  0.82870798122E+02 0.  0.
         24    2    4    4    0    0  0.34403558627E+02  0.95051001846E+02  0.73524749678E+02  0.14644118264E+03  0.76294386170E+02 0.  0.
         13    1    5    5    0    0 -0.33203731700E+02 -0.14684462400E+03  0.20332138385E+03  0.25299291794E+03  0.00000000000E+00 0. -1.
        -14    1    5    5    0    0 -0.27098320980E+03 -0.49275520629E+03  0.70885227481E+03  0.90482658052E+03  0.00000000000E+00 0.  1.
         13    1    3    3    0    0  0.81800082255E+02  0.16656376093E+03  0.52740805784E+03  0.55910106366E+03  0.00000000000E+00 0. -1.
        -14    1    3    3    0    0  0.18798330062E+03  0.37798506752E+03  0.88710036893E+03  0.98242429588E+03  0.00000000000E+00 0.  1.
          4    1    6    6  502    0 -0.98316578017E+01  0.75945732635E+02  0.57136569095E+02  0.95545817954E+02  0.00000000000E+00 0. -1.
         -1    1    6    6    0  502  0.44235216429E+02  0.19105269210E+02  0.16388180583E+02  0.50895364690E+02  0.00000000000E+00 0.  1.
<mgrwt>
<rscale>  0 0.72269177E+03</rscale>
<asrwt>0</asrwt>
<pdfrwt beam="1">  1        1 0.40353789E+00 0.72269177E+03</pdfrwt>
<pdfrwt beam="2">  1       -2 0.34275325E-01 0.72269177E+03</pdfrwt>
<totfact> 0.82431089E+00</totfact>
</mgrwt>
</event>
<event>
12    3  0.2269558E-007  0.3955342E+03  0.7818608E-02  0.1045337E+00
          1   -1    0    0  501    0  0.00000000000E+00  0.00000000000E+00  0.32405926522E+04  0.32405926522E+04  0.00000000000E+00 0. -1.
         -2   -1    0    0    0  501 -0.00000000000E+00 -0.00000000000E+00 -0.11424101394E+03  0.11424101394E+03  0.00000000000E+00 0.  1.
        -24    2    1    2    0    0 -0.29589239999E+03  0.12930889894E+03  0.30561033170E+03  0.45296370805E+03  0.86633378398E+02 0.  0.
    5000000    2    1    2    0    0  0.29589239999E+03 -0.12930889894E+03  0.28207413065E+04  0.29018699581E+04  0.59999552612E+03 0.  0.
        -24    2    4    4    0    0  0.56487963146E+02 -0.18751963637E+03  0.23900194491E+04  0.23994121156E+04  0.81431134630E+02 0.  0.
         24    2    4    4    0    0  0.23940443685E+03  0.58210737427E+02  0.43072185747E+03  0.50245784244E+03  0.78991079167E+02 0.  0.
         11    1    3    3    0    0 -0.16939885760E+03  0.30801287438E+02  0.18184534284E+03  0.25042448158E+03  0.00000000000E+00 0. -1.
        -12    1    3    3    0    0 -0.12649354239E+03  0.98507611506E+02  0.12376498886E+03  0.20253922647E+03  0.00000000000E+00 0.  1.
         13    1    5    5    0    0  0.51649492456E+02 -0.42324592320E+02  0.72954948440E+03  0.73259913416E+03  0.00000000000E+00 0. -1.
        -14    1    5    5    0    0  0.48384706902E+01 -0.14519504405E+03  0.16604699647E+04  0.16668129815E+04  0.00000000000E+00 0.  1.
          4    1    6    6  502    0  0.13615929107E+03  0.37256592471E+02  0.16820764007E+03  0.21959329773E+03  0.00000000000E+00 0. -1.
         -3    1    6    6    0  502  0.10324514578E+03  0.20954144955E+02  0.26251421740E+03  0.28286454471E+03  0.00000000000E+00 0.  1.
<mgrwt>
<rscale>  0 0.39553419E+03</rscale>
<asrwt>0</asrwt>
<pdfrwt beam="1">  1        1 0.49855265E+00 0.39553419E+03</pdfrwt>
<pdfrwt beam="2">  1       -2 0.17575543E-01 0.39553419E+03</pdfrwt>
<totfact> 0.10770354E+01</totfact>
</mgrwt>
</event>
<event>
12    3  0.2269558E-007  0.1102313E+04  0.7818608E-02  0.9202940E-01
         -2   -1    0    0    0  501 -0.00000000000E+00  0.00000000000E+00  0.83232481464E+03  0.83232481464E+03  0.00000000000E+00 0.  1.
          1   -1    0    0  501    0  0.00000000000E+00 -0.00000000000E+00 -0.26556991717E+04  0.26556991717E+04  0.00000000000E+00 0. -1.
        -24    2    1    2    0    0  0.88282448110E+03  0.52688076435E+03 -0.20328708105E+04  0.22794132705E+04  0.78604840783E+02 0.  0.
    5000000    2    1    2    0    0 -0.88282448110E+03 -0.52688076435E+03  0.20949645352E+03  0.12086107158E+04  0.59989056844E+03 0.  0.
        -24    2    4    4    0    0 -0.48195627320E+03 -0.59413600011E+03  0.77018794693E+02  0.77297343750E+03  0.79225024039E+02 0.  0.
         24    2    4    4    0    0 -0.40086820790E+03  0.67255235761E+02  0.13247765883E+03  0.43563727833E+03  0.83731244717E+02 0.  0.
         13    1    3    3    0    0  0.33114990550E+03  0.16867559424E+03 -0.67203391725E+03  0.76794615823E+03  0.00000000000E+00 0. -1.
        -14    1    3    3    0    0  0.55167457560E+03  0.35820517011E+03 -0.13608368933E+04  0.15114671122E+04  0.00000000000E+00 0.  1.
         13    1    5    5    0    0 -0.29287878219E+03 -0.30162468229E+03  0.29656543384E+02  0.42146760325E+03  0.00000000000E+00 0. -1.
        -14    1    5    5    0    0 -0.18907749101E+03 -0.29251131782E+03  0.47362251310E+02  0.35150583424E+03  0.00000000000E+00 0.  1.
          4    1    6    6  502    0 -0.26301978499E+03  0.41642978162E+02  0.44161385855E+02  0.26993290449E+03  0.00000000000E+00 0. -1.
         -3    1    6    6    0  502 -0.13784842291E+03  0.25612257599E+02  0.88316272975E+02  0.16570437384E+03  0.00000000000E+00 0.  1.
<mgrwt>
<rscale>  0 0.11023133E+04</rscale>
<asrwt>0</asrwt>
<pdfrwt beam="1">  1        1 0.40856910E+00 0.11023133E+04</pdfrwt>
<pdfrwt beam="2">  1       -2 0.12804997E+00 0.11023133E+04</pdfrwt>
<totfact> 0.41690598E-01</totfact>
</mgrwt>
</event>
<event>
12    3  0.2269558E-007  0.6447643E+03  0.7818608E-02  0.9816654E-01
         -2   -1    0    0    0  501 -0.00000000000E+00  0.00000000000E+00  0.47418976599E+03  0.47418976599E+03  0.00000000000E+00 0.  1.
          1   -1    0    0  501    0  0.00000000000E+00 -0.00000000000E+00 -0.90415689869E+03  0.90415689869E+03  0.00000000000E+00 0. -1.
        -24    2    1    2    0    0 -0.36680321791E+03 -0.34773038032E+03 -0.73836406815E+02  0.51695730814E+03  0.79574024657E+02 0.  0.
    5000000    2    1    2    0    0  0.36680321791E+03  0.34773038032E+03 -0.35613072588E+03  0.86138935654E+03  0.59975120807E+03 0.  0.
        -24    2    4    4    0    0  0.35736631330E+03  0.49505575043E+03 -0.29506506413E+03  0.68277148164E+03  0.79514943006E+02 0.  0.
         24    2    4    4    0    0  0.94369046074E+01 -0.14732537011E+03 -0.61065661754E+02  0.17861787490E+03  0.79884356053E+02 0.  0.
         11    1    3    3    0    0 -0.74702732136E+02 -0.40117691489E+02  0.71438126587E+01  0.85093838897E+02  0.00000000000E+00 0. -1.
        -12    1    3    3    0    0 -0.29210048577E+03 -0.30761268883E+03 -0.80980219473E+02  0.43186346924E+03  0.00000000000E+00 0.  1.
         11    1    5    5    0    0  0.23658638620E+03  0.28470451972E+03 -0.14510834462E+03  0.39760057012E+03  0.00000000000E+00 0. -1.
        -12    1    5    5    0    0  0.12077992710E+03  0.21035123071E+03 -0.14995671951E+03  0.28517091152E+03  0.00000000000E+00 0.  1.
          2    1    6    6  502    0 -0.33894212710E+02 -0.88236484071E+02 -0.36737454243E+02  0.10141072587E+03  0.00000000000E+00 0. -1.
         -1    1    6    6    0  502  0.43331117318E+02 -0.59088886038E+02 -0.24328207511E+02  0.77207149034E+02  0.00000000000E+00 0.  1.
<mgrwt>
<rscale>  0 0.64476425E+03</rscale>
<asrwt>0</asrwt>
<pdfrwt beam="1">  1        1 0.13910106E+00 0.64476425E+03</pdfrwt>
<pdfrwt beam="2">  1       -2 0.72952273E-01 0.64476425E+03</pdfrwt>
<totfact> 0.27750225E+01</totfact>
</mgrwt>
</event>
<event>
12    3  0.2269558E-007  0.6874240E+03  0.7818608E-02  0.9738984E-01
          1   -1    0    0  501    0  0.00000000000E+00  0.00000000000E+00  0.36804490116E+03  0.36804490116E+03  0.00000000000E+00 0. -1.
         -2   -1    0    0    0  501 -0.00000000000E+00 -0.00000000000E+00 -0.15184076316E+04  0.15184076316E+04  0.00000000000E+00 0.  1.
        -24    2    1    2    0    0  0.55808882281E+03  0.23664277517E+03 -0.67185850267E+03  0.90842115331E+03  0.79826104630E+02 0.  0.
    5000000    2    1    2    0    0 -0.55808882281E+03 -0.23664277517E+03 -0.47850422779E+03  0.97803137947E+03  0.60009678054E+03 0.  0.
        -24    2    4    4    0    0 -0.22416021530E+03 -0.34381993677E+03 -0.45438326766E+03  0.61803526242E+03  0.83925446827E+02 0.  0.
         24    2    4    4    0    0 -0.33392860751E+03  0.10717716159E+03 -0.24120960135E+02  0.35999611705E+03  0.77589462481E+02 0.  0.
         11    1    3    3    0    0  0.28816967015E+03  0.95750661842E+02 -0.28848700657E+03  0.41884925808E+03  0.00000000000E+00 0. -1.
        -12    1    3    3    0    0  0.26991915266E+03  0.14089211333E+03 -0.38337149610E+03  0.48957189523E+03  0.00000000000E+00 0.  1.
         11    1    5    5    0    0 -0.41591845907E+02 -0.11818131744E+03 -0.10235811778E+03  0.16178346552E+03  0.00000000000E+00 0. -1.
        -12    1    5    5    0    0 -0.18256836939E+03 -0.22563861933E+03 -0.35202514987E+03  0.45625179690E+03  0.00000000000E+00 0.  1.
          4    1    6    6  502    0 -0.95190033225E+02  0.39209825221E+02  0.27285861989E+02  0.10650385478E+03  0.00000000000E+00 0. -1.
         -3    1    6    6    0  502 -0.23873857429E+03  0.67967336372E+02 -0.51406822124E+02  0.25349226226E+03  0.00000000000E+00 0.  1.
<mgrwt>
<rscale>  0 0.68742400E+03</rscale>
<asrwt>0</asrwt>
<pdfrwt beam="1">  1        1 0.56622293E-01 0.68742400E+03</pdfrwt>
<pdfrwt beam="2">  1       -2 0.23360117E+00 0.68742400E+03</pdfrwt>
<totfact> 0.49358559E+00</totfact>
</mgrwt>
</event>
<event>
12    3  0.2269558E-007  0.8051731E+03  0.7818608E-02  0.9552559E-01
         -2   -1    0    0    0  501 -0.00000000000E+00  0.00000000000E+00  0.65186613178E+03  0.65186613178E+03  0.00000000000E+00 0.  1.
          1   -1    0    0  501    0  0.00000000000E+00 -0.00000000000E+00 -0.11519892716E+04  0.11519892716E+04  0.00000000000E+00 0. -1.
        -24    2    1    2    0    0  0.56519701387E+03  0.42797702979E+03  0.64862303496E+02  0.71680144915E+03  0.83577488425E+02 0.  0.
    5000000    2    1    2    0    0 -0.56519701387E+03 -0.42797702979E+03 -0.56498544328E+03  0.10870539542E+04  0.59988811101E+03 0.  0.
        -24    2    4    4    0    0 -0.40499229117E+03  0.27981228895E+02 -0.13679641131E+03  0.43677388573E+03  0.85184881448E+02 0.  0.
         24    2    4    4    0    0 -0.16020472269E+03 -0.45595825869E+03 -0.42818903197E+03  0.65028006848E+03  0.77167567837E+02 0.  0.
         13    1    5    5    0    0 -0.88612418643E+02 -0.29011425481E+02 -0.34486232114E+02  0.99413901199E+02  0.00000000000E+00 0. -1.
        -14    1    5    5    0    0 -0.31637987253E+03  0.56992654375E+02 -0.10231017920E+03  0.33735998453E+03  0.00000000000E+00 0.  1.
         13    1    3    3    0    0  0.46023108728E+03  0.31673828594E+03  0.74073348355E+02  0.56358021294E+03  0.00000000000E+00 0. -1.
        -14    1    3    3    0    0  0.10496592658E+03  0.11123874385E+03 -0.92110448593E+01  0.15322123621E+03  0.00000000000E+00 0.  1.
          4    1    6    6  502    0 -0.78773988969E+02 -0.26346634414E+03 -0.19487832523E+03  0.33704215979E+03  0.00000000000E+00 0. -1.
         -3    1    6    6    0  502 -0.81430733725E+02 -0.19249191455E+03 -0.23331070674E+03  0.31323790869E+03  0.00000000000E+00 0.  1.
<mgrwt>
<rscale>  0 0.80517311E+03</rscale>
<asrwt>0</asrwt>
<pdfrwt beam="1">  1        1 0.17722912E+00 0.80517311E+03</pdfrwt>
<pdfrwt beam="2">  1       -2 0.10028710E+00 0.80517311E+03</pdfrwt>
<totfact> 0.85043375E+00</totfact>
</mgrwt>
</event>
<event>
12    3  0.2269558E-007  0.1445578E+04  0.7818608E-02  0.8921472E-01
          1   -1    0    0  501    0  0.00000000000E+00  0.00000000000E+00  0.12486430004E+04  0.12486430004E+04  0.00000000000E+00 0. -1.
         -2   -1    0    0    0  501 -0.00000000000E+00 -0.00000000000E+00 -0.23685204095E+04  0.23685204095E+04  0.00000000000E+00 0.  1.
        -24    2    1    2    0    0  0.36134327891E+02  0.14013769112E+04  0.40435041857E+03  0.14611241066E+04  0.78876214493E+02 0.  0.
    5000000    2    1    2    0    0 -0.36134327891E+02 -0.14013769112E+04 -0.15242278277E+04  0.21560393032E+04  0.60006005499E+03 0.  0.
        -24    2    4    4    0    0  0.22634955863E+03 -0.69227101481E+03 -0.97133088778E+03  0.12165677198E+04  0.77974628940E+02 0.  0.
         24    2    4    4    0    0 -0.26248388652E+03 -0.70910589636E+03 -0.55289693988E+03  0.93947158338E+03  0.71992130911E+02 0.  0.
         11    1    3    3    0    0  0.46103604450E+02  0.59402267889E+03  0.14681812350E+03  0.61363184954E+03  0.00000000000E+00 0. -1.
        -12    1    3    3    0    0 -0.99692765589E+01  0.80735423228E+03  0.25753229506E+03  0.84749225710E+03  0.00000000000E+00 0.  1.
         13    1    5    5    0    0  0.14226818089E+03 -0.45531933934E+03 -0.57370496810E+03  0.74611884207E+03  0.00000000000E+00 0. -1.
        -14    1    5    5    0    0  0.84081377747E+02 -0.23695167547E+03 -0.39762591968E+03  0.47044887777E+03  0.00000000000E+00 0.  1.
          4    1    6    6  502    0 -0.10035740614E+03 -0.17997956753E+03 -0.15576219884E+03  0.25831398778E+03  0.00000000000E+00 0. -1.
         -3    1    6    6    0  502 -0.16212648039E+03 -0.52912632883E+03 -0.39713474104E+03  0.68115759560E+03  0.00000000000E+00 0.  1.
<mgrwt>
<rscale>  0 0.14455782E+04</rscale>
<asrwt>0</asrwt>
<pdfrwt beam="1">  1        1 0.19209892E+00 0.14455782E+04</pdfrwt>
<pdfrwt beam="2">  1       -2 0.36438775E+00 0.14455782E+04</pdfrwt>
<totfact> 0.10379773E-01</totfact>
</mgrwt>
</event>
<event>
12    3  0.2269558E-007  0.1087089E+04  0.7818608E-02  0.9217868E-01
         -2   -1    0    0    0  501 -0.00000000000E+00  0.00000000000E+00  0.17906786207E+04  0.17906786207E+04  0.00000000000E+00 0.  1.
          1   -1    0    0  501    0  0.00000000000E+00 -0.00000000000E+00 -0.15887202044E+04  0.15887202044E+04  0.00000000000E+00 0. -1.
        -24    2    1    2    0    0 -0.10195480052E+04 -0.22779375042E+03 -0.11586392960E+04  0.15621137725E+04  0.79914282293E+02 0.  0.
    5000000    2    1    2    0    0  0.10195480052E+04  0.22779375042E+03  0.13605977123E+04  0.18172850526E+04  0.59994224732E+03 0.  0.
        -24    2    4    4    0    0  0.10165766585E+04  0.25910463615E+03  0.10202827682E+04  0.14657965305E+04  0.83780824253E+02 0.  0.
         24    2    4    4    0    0  0.29713467222E+01 -0.31310885737E+02  0.34031494404E+03  0.35148852214E+03  0.82101885452E+02 0.  0.
         11    1    5    5    0    0  0.79561856931E+03  0.22253662638E+03  0.84111504753E+03  0.11789851488E+04  0.00000000000E+00 0. -1.
        -12    1    5    5    0    0  0.22095808916E+03  0.36568009779E+02  0.17916772071E+03  0.28681138166E+03  0.00000000000E+00 0.  1.
         11    1    3    3    0    0 -0.84239893683E+03 -0.16185981797E+03 -0.97381845632E+03  0.12977507293E+04  0.00000000000E+00 0. -1.
        -12    1    3    3    0    0 -0.17714906836E+03 -0.65933932446E+02 -0.18482083965E+03  0.26436304325E+03  0.00000000000E+00 0.  1.
          2    1    6    6  502    0  0.13483830853E+01  0.22927763877E+02  0.19543990607E+03  0.19678479966E+03  0.00000000000E+00 0. -1.
         -1    1    6    6    0  502  0.16229636369E+01 -0.54238649614E+02  0.14487503797E+03  0.15470372248E+03  0.00000000000E+00 0.  1.
<mgrwt>
<rscale>  0 0.10870889E+04</rscale>
<asrwt>0</asrwt>
<pdfrwt beam="1">  1        1 0.24441849E+00 0.10870889E+04</pdfrwt>
<pdfrwt beam="2">  1       -2 0.27548902E+00 0.10870889E+04</pdfrwt>
<totfact> 0.22219540E-01</totfact>
</mgrwt>
</event>
<event>
12    3  0.2269558E-007  0.1210901E+04  0.7818608E-02  0.9103368E-01
          1   -1    0    0  501    0  0.00000000000E+00  0.00000000000E+00  0.78742653872E+03  0.78742653872E+03  0.00000000000E+00 0. -1.
         -2   -1    0    0    0  501 -0.00000000000E+00 -0.00000000000E+00 -0.21815003454E+04  0.21815003454E+04  0.00000000000E+00 0.  1.
        -24    2    1    2    0    0  0.22998491519E+03  0.11248078837E+04 -0.12865073227E+03  0.11580119013E+04  0.79716474916E+02 0.  0.
    5000000    2    1    2    0    0 -0.22998491519E+03 -0.11248078837E+04 -0.12654230744E+04  0.18109149828E+04  0.60002640048E+03 0.  0.
        -24    2    4    4    0    0  0.17718720532E+03 -0.33650607299E+03 -0.25023881881E+03  0.46083442398E+03  0.71535005371E+02 0.  0.
         24    2    4    4    0    0 -0.40717212051E+03 -0.78830181067E+03 -0.10151842556E+04  0.13500805588E+04  0.70068266953E+02 0.  0.
         11    1    3    3    0    0  0.76974329132E+02  0.41482195493E+03 -0.94539735741E+01  0.42200909854E+03  0.00000000000E+00 0. -1.
        -12    1    3    3    0    0  0.15301058606E+03  0.70998592874E+03 -0.11919675870E+03  0.73600280280E+03  0.00000000000E+00 0.  1.
         13    1    5    5    0    0  0.69137964640E+02 -0.82944308344E+02 -0.44039828640E+02  0.11661613502E+03  0.00000000000E+00 0. -1.
        -14    1    5    5    0    0  0.10804924068E+03 -0.25356176465E+03 -0.20619899017E+03  0.34421828896E+03  0.00000000000E+00 0.  1.
          2    1    6    6  502    0 -0.19386732635E+03 -0.30051076975E+03 -0.40667971245E+03  0.54155299970E+03  0.00000000000E+00 0. -1.
         -1    1    6    6    0  502 -0.21330479417E+03 -0.48779104092E+03 -0.60850454316E+03  0.80852755912E+03  0.00000000000E+00 0.  1.
<mgrwt>
<rscale>  0 0.12109013E+04</rscale>
<asrwt>0</asrwt>
<pdfrwt beam="1">  1        1 0.12114255E+00 0.12109013E+04</pdfrwt>
<pdfrwt beam="2">  1       -2 0.33561543E+00 0.12109013E+04</pdfrwt>
<totfact> 0.37500498E-01</totfact>
</mgrwt>
</event>
<event>
12    3  0.2269558E-007  0.6428796E+03  0.7818608E-02  0.9820233E-01
         -2   -1    0    0    0  501 -0.00000000000E+00  0.00000000000E+00  0.95095932978E+03  0.95095932978E+03  0.00000000000E+00 0.  1.
          1   -1    0    0  501    0  0.00000000000E+00 -0.00000000000E+00 -0.16200369064E+04  0.16200369064E+04  0.00000000000E+00 0. -1.
        -24    2    1    2    0    0 -0.56415598693E+03  0.21106206871E+03  0.72011778855E+03  0.94226357447E+03  0.80447746648E+02 0.  0.
    5000000    2    1    2    0    0  0.56415598693E+03 -0.21106206871E+03 -0.13891953652E+04  0.16287326617E+04  0.60007261750E+03 0.  0.
        -24    2    4    4    0    0  0.45580011990E+03 -0.22371528817E+02 -0.39767852097E+03  0.61045106242E+03  0.79044664371E+02 0.  0.
         24    2    4    4    0    0  0.10835586704E+03 -0.18869053989E+03 -0.99151684419E+03  0.10182815993E+04  0.80291029181E+02 0.  0.
         11    1    5    5    0    0  0.22767868502E+03 -0.19223514943E+02 -0.14798179713E+03  0.27222369372E+03  0.00000000000E+00 0. -1.
        -12    1    5    5    0    0  0.22812143488E+03 -0.31480138741E+01 -0.24969672384E+03  0.33822736870E+03  0.00000000000E+00 0.  1.
         11    1    3    3    0    0 -0.17309525694E+03  0.10513656803E+03  0.23665763233E+03  0.31148435089E+03  0.00000000000E+00 0. -1.
        -12    1    3    3    0    0 -0.39106073000E+03  0.10592550067E+03  0.48346015623E+03  0.63077922358E+03  0.00000000000E+00 0.  1.
          4    1    6    6  502    0  0.42221581331E+02 -0.11463899722E+03 -0.69303586363E+03  0.70372115919E+03  0.00000000000E+00 0. -1.
         -3    1    6    6    0  502  0.66134285709E+02 -0.74051542666E+02 -0.29848098056E+03  0.31456044009E+03  0.00000000000E+00 0.  1.
<mgrwt>
<rscale>  0 0.64287957E+03</rscale>
<asrwt>0</asrwt>
<pdfrwt beam="1">  1        1 0.24923644E+00 0.64287957E+03</pdfrwt>
<pdfrwt beam="2">  1       -2 0.14630144E+00 0.64287957E+03</pdfrwt>
<totfact> 0.16077244E+00</totfact>
</mgrwt>
</event>
<event>
12    3  0.2269558E-007  0.1234650E+04  0.7818608E-02  0.9083057E-01
         -2   -1    0    0    0  501 -0.00000000000E+00  0.00000000000E+00  0.16713732329E+04  0.16713732329E+04  0.00000000000E+00 0.  1.
          1   -1    0    0  501    0  0.00000000000E+00 -0.00000000000E+00 -0.16022047720E+04  0.16022047720E+04  0.00000000000E+00 0. -1.
        -24    2    1    2    0    0  0.68022353178E+03 -0.95464615807E+03  0.10929706562E+04  0.16055849266E+04  0.96253627734E+02 0.  0.
    5000000    2    1    2    0    0 -0.68022353178E+03  0.95464615807E+03 -0.10238021953E+04  0.16679930783E+04  0.59998052801E+03 0.  0.
        -24    2    4    4    0    0 -0.42850297729E+02  0.52095937173E+03 -0.29983792517E+03  0.60763970576E+03  0.78028300241E+02 0.  0.
         24    2    4    4    0    0 -0.63737323405E+03  0.43368678634E+03 -0.72396427010E+03  0.10603533726E+04  0.76786341203E+02 0.  0.
         11    1    3    3    0    0  0.82491089024E+02 -0.17035626325E+03  0.19781179931E+03  0.27378010180E+03  0.00000000000E+00 0. -1.
        -12    1    3    3    0    0  0.59773244275E+03 -0.78428989482E+03  0.89515885688E+03  0.13318048248E+04  0.00000000000E+00 0.  1.
         11    1    5    5    0    0 -0.25798380018E+02  0.39507771810E+03 -0.18755033073E+03  0.43809483711E+03  0.00000000000E+00 0. -1.
        -12    1    5    5    0    0 -0.17051917711E+02  0.12588165363E+03 -0.11228759445E+03  0.16954486864E+03  0.00000000000E+00 0.  1.
          4    1    6    6  502    0 -0.10669068228E+03  0.68908745793E+02 -0.16053584079E+03  0.20470240133E+03  0.00000000000E+00 0. -1.
         -3    1    6    6    0  502 -0.53068255177E+03  0.36477804055E+03 -0.56342842932E+03  0.85565097124E+03  0.00000000000E+00 0.  1.
<mgrwt>
<rscale>  0 0.12346500E+04</rscale>
<asrwt>0</asrwt>
<pdfrwt beam="1">  1        1 0.24649304E+00 0.12346500E+04</pdfrwt>
<pdfrwt beam="2">  1       -2 0.25713434E+00 0.12346500E+04</pdfrwt>
<totfact> 0.27527381E-01</totfact>
</mgrwt>
</event>
<event>
12    3  0.2269558E-007  0.1002002E+04  0.7818608E-02  0.9306352E-01
         -2   -1    0    0    0  501 -0.00000000000E+00  0.00000000000E+00  0.14237164500E+04  0.14237164500E+04  0.00000000000E+00 0.  1.
          1   -1    0    0  501    0  0.00000000000E+00 -0.00000000000E+00 -0.20730744242E+04  0.20730744242E+04  0.00000000000E+00 0. -1.
        -24    2    1    2    0    0  0.77266920334E+03  0.50860272254E+03  0.10937781430E+04  0.14342119708E+04  0.70135040517E+02 0.  0.
    5000000    2    1    2    0    0 -0.77266920334E+03 -0.50860272254E+03 -0.17431361172E+04  0.20625789035E+04  0.60001148538E+03 0.  0.
        -24    2    4    4    0    0 -0.21440650632E+03  0.11064749608E+03 -0.29495943892E+03  0.38945640172E+03  0.80387809366E+02 0.  0.
         24    2    4    4    0    0 -0.55826269702E+03 -0.61925021862E+03 -0.14481766783E+04  0.16731225017E+04  0.83636965589E+02 0.  0.
         13    1    3    3    0    0  0.54312880949E+03  0.39476151719E+03  0.78591339133E+03  0.10336756831E+04  0.00000000000E+00 0. -1.
        -14    1    3    3    0    0  0.22954039386E+03  0.11384120535E+03  0.30786475169E+03  0.40053628772E+03  0.00000000000E+00 0.  1.
         13    1    5    5    0    0 -0.76882592288E+02  0.34853408326E+02 -0.16612233021E+03  0.18633926495E+03  0.00000000000E+00 0. -1.
        -14    1    5    5    0    0 -0.13752391404E+03  0.75794087759E+02 -0.12883710871E+03  0.20311713678E+03  0.00000000000E+00 0.  1.
          2    1    6    6  502    0 -0.13323122359E+03 -0.12074108433E+03 -0.25639987835E+03  0.31316108635E+03  0.00000000000E+00 0. -1.
         -1    1    6    6    0  502 -0.42503147343E+03 -0.49850913429E+03 -0.11917768000E+04  0.13599614154E+04  0.00000000000E+00 0.  1.
<mgrwt>
<rscale>  0 0.10020022E+04</rscale>
<asrwt>0</asrwt>
<pdfrwt beam="1">  1        1 0.31893453E+00 0.10020022E+04</pdfrwt>
<pdfrwt beam="2">  1       -2 0.21903330E+00 0.10020022E+04</pdfrwt>
<totfact> 0.23529621E-01</totfact>
</mgrwt>
</event>
<event>
12    3  0.2269558E-007  0.7667556E+03  0.7818608E-02  0.9609424E-01
         -2   -1    0    0    0  501 -0.00000000000E+00  0.00000000000E+00  0.95076425779E+03  0.95076425779E+03  0.00000000000E+00 0.  1.
          1   -1    0    0  501    0  0.00000000000E+00 -0.00000000000E+00 -0.99407913824E+03  0.99407913824E+03  0.00000000000E+00 0. -1.
        -24    2    1    2    0    0 -0.93153133681E+01 -0.75561221229E+03  0.42670732094E+03  0.87148596745E+03  0.79825204611E+02 0.  0.
    5000000    2    1    2    0    0  0.93153133681E+01  0.75561221229E+03 -0.47002220139E+03  0.10733574286E+04  0.60011557993E+03 0.  0.
        -24    2    4    4    0    0  0.60812220779E+02  0.32263641560E+03  0.99437475306E+02  0.35209999767E+03  0.79336082569E+02 0.  0.
         24    2    4    4    0    0 -0.51496907411E+02  0.43297579669E+03 -0.56945967670E+03  0.72125743091E+03  0.76210145469E+02 0.  0.
         11    1    3    3    0    0  0.98903173738E+01 -0.49515812692E+03  0.23929063562E+03  0.55003581459E+03  0.00000000000E+00 0. -1.
        -12    1    3    3    0    0 -0.19205630742E+02 -0.26045408536E+03  0.18741668532E+03  0.32145015286E+03  0.00000000000E+00 0.  1.
         13    1    5    5    0    0  0.52300423765E+02  0.11146995084E+03  0.60557194183E+02  0.13721537098E+03  0.00000000000E+00 0. -1.
        -14    1    5    5    0    0  0.85117970145E+01  0.21116646475E+03  0.38880281123E+02  0.21488462668E+03  0.00000000000E+00 0.  1.
          2    1    6    6  502    0 -0.62777332060E+02  0.20560905069E+03 -0.27922006801E+03  0.35239171603E+03  0.00000000000E+00 0. -1.
         -1    1    6    6    0  502  0.11280424649E+02  0.22736674600E+03 -0.29023960868E+03  0.36886571488E+03  0.00000000000E+00 0.  1.
<mgrwt>
<rscale>  0 0.76675563E+03</rscale>
<asrwt>0</asrwt>
<pdfrwt beam="1">  1        1 0.15293525E+00 0.76675563E+03</pdfrwt>
<pdfrwt beam="2">  1       -2 0.14627142E+00 0.76675563E+03</pdfrwt>
<totfact> 0.43938815E+00</totfact>
</mgrwt>
</event>
<event>
12    3  0.2269558E-007  0.7339867E+03  0.7818608E-02  0.9660813E-01
          1   -1    0    0  501    0  0.00000000000E+00  0.00000000000E+00  0.18612385539E+04  0.18612385539E+04  0.00000000000E+00 0. -1.
         -2   -1    0    0    0  501 -0.00000000000E+00 -0.00000000000E+00 -0.39912940026E+03  0.39912940026E+03  0.00000000000E+00 0.  1.
        -24    2    1    2    0    0 -0.58411823030E+03  0.21269040443E+03  0.82411847273E+02  0.63230121454E+03  0.81128282570E+02 0.  0.
    5000000    2    1    2    0    0  0.58411823030E+03 -0.21269040443E+03  0.13796973064E+04  0.16280667396E+04  0.60050423510E+03 0.  0.
        -24    2    4    4    0    0  0.54456108289E+03  0.70649742326E+02  0.76366028112E+03  0.94411221607E+03  0.81441343800E+02 0.  0.
         24    2    4    4    0    0  0.39557147417E+02 -0.28334014675E+03  0.61603702527E+03  0.68395452358E+03  0.80285535108E+02 0.  0.
         11    1    3    3    0    0 -0.43761617986E+03  0.12196062607E+03  0.51102703647E+02  0.45715839871E+03  0.00000000000E+00 0. -1.
        -12    1    3    3    0    0 -0.14650205044E+03  0.90729778356E+02  0.31309143626E+02  0.17514281584E+03  0.00000000000E+00 0.  1.
         13    1    5    5    0    0  0.13902240383E+03  0.52691068951E+02  0.22319143631E+03  0.26817530601E+03  0.00000000000E+00 0. -1.
        -14    1    5    5    0    0  0.40553867906E+03  0.17958673376E+02  0.54046884481E+03  0.67593691005E+03  0.00000000000E+00 0.  1.
          2    1    6    6  502    0  0.16272566633E+02 -0.58949846091E+02  0.21818232403E+03  0.22659083675E+03  0.00000000000E+00 0. -1.
         -1    1    6    6    0  502  0.23284580784E+02 -0.22439030066E+03  0.39785470124E+03  0.45736368683E+03  0.00000000000E+00 0.  1.
<mgrwt>
<rscale>  0 0.73398670E+03</rscale>
<asrwt>0</asrwt>
<pdfrwt beam="1">  1        1 0.28634439E+00 0.73398670E+03</pdfrwt>
<pdfrwt beam="2">  1       -2 0.61404524E-01 0.73398670E+03</pdfrwt>
<totfact> 0.83487290E+00</totfact>
</mgrwt>
</event>
<event>
12    3  0.2269558E-007  0.1354178E+04  0.7818608E-02  0.8987672E-01
          1   -1    0    0  501    0  0.00000000000E+00  0.00000000000E+00  0.14544037098E+04  0.14544037098E+04  0.00000000000E+00 0. -1.
         -2   -1    0    0    0  501 -0.00000000000E+00 -0.00000000000E+00 -0.14670897624E+04  0.14670897624E+04  0.00000000000E+00 0.  1.
        -24    2    1    2    0    0  0.13132469420E+03 -0.13144494114E+04  0.45133343250E+03  0.13982559106E+04  0.79964328015E+02 0.  0.
    5000000    2    1    2    0    0 -0.13132469420E+03  0.13144494114E+04 -0.46401948508E+03  0.15232375616E+04  0.59992929259E+03 0.  0.
        -24    2    4    4    0    0  0.13815877067E+03  0.59292239248E+03  0.13407400847E+02  0.61421023620E+03  0.80185076202E+02 0.  0.
         24    2    4    4    0    0 -0.26948346487E+03  0.72152701889E+03 -0.47742688593E+03  0.90902732537E+03  0.71914324267E+02 0.  0.
         13    1    3    3    0    0  0.27785541384E+02 -0.39398029417E+03  0.17194041698E+03  0.43076213331E+03  0.00000000000E+00 0. -1.
        -14    1    3    3    0    0  0.10353915281E+03 -0.92046911720E+03  0.27939301552E+03  0.96749377724E+03  0.00000000000E+00 0.  1.
         13    1    5    5    0    0  0.99513095585E+02  0.25918961614E+03 -0.58194757229E+01  0.27769764062E+03  0.00000000000E+00 0. -1.
        -14    1    5    5    0    0  0.38645675087E+02  0.33373277633E+03  0.19226876569E+02  0.33651259558E+03  0.00000000000E+00 0.  1.
          2    1    6    6  502    0 -0.21450871668E+03  0.47891830672E+03 -0.32801327092E+03  0.61884524716E+03  0.00000000000E+00 0. -1.
         -1    1    6    6    0  502 -0.54974748190E+02  0.24260871217E+03 -0.14941361501E+03  0.29018207821E+03  0.00000000000E+00 0.  1.
<mgrwt>
<rscale>  0 0.13541777E+04</rscale>
<asrwt>0</asrwt>
<pdfrwt beam="1">  1        1 0.22375442E+00 0.13541777E+04</pdfrwt>
<pdfrwt beam="2">  1       -2 0.22570612E+00 0.13541777E+04</pdfrwt>
<totfact> 0.53746977E-01</totfact>
</mgrwt>
</event>
<event>
12    3  0.2269558E-007  0.5096620E+03  0.7818608E-02  0.1011287E+00
         -2   -1    0    0    0  501 -0.00000000000E+00  0.00000000000E+00  0.64345398502E+03  0.64345398502E+03  0.00000000000E+00 0.  1.
          1   -1    0    0  501    0  0.00000000000E+00 -0.00000000000E+00 -0.86997820705E+03  0.86997820705E+03  0.00000000000E+00 0. -1.
        -24    2    1    2    0    0 -0.22108726392E+03  0.35139445608E+03  0.37725511761E+03  0.56647748761E+03  0.78852255334E+02 0.  0.
    5000000    2    1    2    0    0  0.22108726392E+03 -0.35139445608E+03 -0.60377933963E+03  0.94695470446E+03  0.59984671317E+03 0.  0.
        -24    2    4    4    0    0  0.29009961667E+03 -0.52459147610E+02 -0.51126307250E+02  0.30961102570E+03  0.79594837633E+02 0.  0.
         24    2    4    4    0    0 -0.69012352753E+02 -0.29893530847E+03 -0.55265303238E+03  0.63734367877E+03  0.81587788164E+02 0.  0.
         13    1    3    3    0    0 -0.10778038003E+03  0.20649853220E+03  0.25629151611E+03  0.34632873884E+03  0.00000000000E+00 0. -1.
        -14    1    3    3    0    0 -0.11330688389E+03  0.14489592388E+03  0.12096360151E+03  0.22014874876E+03  0.00000000000E+00 0.  1.
         13    1    5    5    0    0  0.16761950602E+03 -0.28293133645E+02  0.10644496488E+02  0.17032353189E+03  0.00000000000E+00 0. -1.
        -14    1    5    5    0    0  0.12248011065E+03 -0.24166013964E+02 -0.61770803738E+02  0.13928749381E+03  0.00000000000E+00 0.  1.
          4    1    6    6  502    0 -0.22856241371E+02 -0.14893871221E+03 -0.19233408154E+03  0.24433081403E+03  0.00000000000E+00 0. -1.
         -3    1    6    6    0  502 -0.46156111382E+02 -0.14999659626E+03 -0.36031895085E+03  0.39301286473E+03  0.00000000000E+00 0.  1.
<mgrwt>
<rscale>  0 0.50966199E+03</rscale>
<asrwt>0</asrwt>
<pdfrwt beam="1">  1        1 0.13384280E+00 0.50966199E+03</pdfrwt>
<pdfrwt beam="2">  1       -2 0.98992921E-01 0.50966199E+03</pdfrwt>
<totfact> 0.15062163E+01</totfact>
</mgrwt>
</event>
<event>
12    3  0.2269558E-007  0.1207096E+04  0.7818608E-02  0.9106668E-01
         -2   -1    0    0    0  501 -0.00000000000E+00  0.00000000000E+00  0.10894052728E+04  0.10894052728E+04  0.00000000000E+00 0.  1.
          1   -1    0    0  501    0  0.00000000000E+00 -0.00000000000E+00 -0.17922099023E+04  0.17922099023E+04  0.00000000000E+00 0. -1.
        -24    2    1    2    0    0  0.10433900025E+04  0.47179279511E+03  0.36524888669E+03  0.12047202011E+04  0.81809993099E+02 0.  0.
    5000000    2    1    2    0    0 -0.10433900025E+04 -0.47179279511E+03 -0.10680535161E+04  0.16768949740E+04  0.59998941810E+03 0.  0.
        -24    2    4    4    0    0 -0.27822337410E+03 -0.41698295201E+03 -0.54447636603E+03  0.74461334434E+03  0.81923691573E+02 0.  0.
         24    2    4    4    0    0 -0.76516662835E+03 -0.54809843106E+02 -0.52357715011E+03  0.93228162969E+03  0.80820275240E+02 0.  0.
         11    1    5    5    0    0 -0.10227913106E+02 -0.11210167988E+02 -0.45097783796E+02  0.47582435584E+02  0.00000000000E+00 0. -1.
        -12    1    5    5    0    0 -0.26799546100E+03 -0.40577278402E+03 -0.49937858224E+03  0.69703090876E+03  0.00000000000E+00 0.  1.
         11    1    3    3    0    0  0.42026181882E+03  0.19341455266E+03  0.10573300233E+03  0.47456153797E+03  0.00000000000E+00 0. -1.
        -12    1    3    3    0    0  0.62312818364E+03  0.27837824246E+03  0.25951588436E+03  0.73015866314E+03  0.00000000000E+00 0.  1.
          2    1    6    6  502    0 -0.52981183625E+03 -0.50624518891E+02 -0.31963169909E+03  0.62082835535E+03  0.00000000000E+00 0. -1.
         -1    1    6    6    0  502 -0.23535479210E+03 -0.41853242152E+01 -0.20394545101E+03  0.31145327434E+03  0.00000000000E+00 0.  1.
<mgrwt>
<rscale>  0 0.12070964E+04</rscale>
<asrwt>0</asrwt>
<pdfrwt beam="1">  1        1 0.27572460E+00 0.12070964E+04</pdfrwt>
<pdfrwt beam="2">  1       -2 0.16760081E+00 0.12070964E+04</pdfrwt>
<totfact> 0.78167673E-01</totfact>
</mgrwt>
</event>
<event>
12    3  0.2269558E-007  0.6022581E+03  0.7818608E-02  0.9900732E-01
          1   -1    0    0  501    0  0.00000000000E+00  0.00000000000E+00  0.11701384388E+04  0.11701384388E+04  0.00000000000E+00 0. -1.
         -2   -1    0    0    0  501 -0.00000000000E+00 -0.00000000000E+00 -0.44657812484E+03  0.44657812484E+03  0.00000000000E+00 0.  1.
        -24    2    1    2    0    0 -0.27651498150E+03 -0.52509761227E+03  0.35217082588E+03  0.69474689312E+03  0.80379832608E+02 0.  0.
    5000000    2    1    2    0    0  0.27651498150E+03  0.52509761227E+03  0.37138948809E+03  0.92196967053E+03  0.59992489872E+03 0.  0.
        -24    2    4    4    0    0  0.56982766802E+02  0.59146106277E+02 -0.14769187660E+03  0.18631895839E+03  0.78463789385E+02 0.  0.
         24    2    4    4    0    0  0.21953221470E+03  0.46595150600E+03  0.51908136468E+03  0.73565071213E+03  0.80195435478E+02 0.  0.
         11    1    3    3    0    0 -0.17457766693E+03 -0.40643643955E+03  0.25469862318E+03  0.51043053380E+03  0.00000000000E+00 0. -1.
        -12    1    3    3    0    0 -0.10193731457E+03 -0.11866117272E+03  0.97472202700E+02  0.18431635932E+03  0.00000000000E+00 0.  1.
         13    1    5    5    0    0  0.61275869239E+02  0.56967823509E+02 -0.71732417700E+02  0.11020709966E+03  0.00000000000E+00 0. -1.
        -14    1    5    5    0    0 -0.42931024362E+01  0.21782827680E+01 -0.75959458895E+02  0.76111858734E+02  0.00000000000E+00 0.  1.
          4    1    6    6  502    0  0.12537125829E+03  0.31871478262E+03  0.29919977517E+03  0.45477199840E+03  0.00000000000E+00 0. -1.
         -3    1    6    6    0  502  0.94160956416E+02  0.14723672337E+03  0.21988158951E+03  0.28087871373E+03  0.00000000000E+00 0.  1.
<mgrwt>
<rscale>  0 0.60225809E+03</rscale>
<asrwt>0</asrwt>
<pdfrwt beam="1">  1        1 0.18002130E+00 0.60225809E+03</pdfrwt>
<pdfrwt beam="2">  1       -2 0.68704327E-01 0.60225809E+03</pdfrwt>
<totfact> 0.19942704E+01</totfact>
</mgrwt>
</event>
<event>
12    3  0.2269558E-007  0.3748151E+03  0.7818608E-02  0.1052867E+00
         -2   -1    0    0    0  501 -0.00000000000E+00  0.00000000000E+00  0.28392108795E+03  0.28392108795E+03  0.00000000000E+00 0.  1.
          1   -1    0    0  501    0  0.00000000000E+00 -0.00000000000E+00 -0.78092551891E+03  0.78092551891E+03  0.00000000000E+00 0. -1.
        -24    2    1    2    0    0  0.25283011948E+03 -0.43182714925E+02 -0.24997086351E+03  0.36717854252E+03  0.80912503955E+02 0.  0.
    5000000    2    1    2    0    0 -0.25283011948E+03  0.43182714925E+02 -0.24703356745E+03  0.69766806433E+03  0.59993943724E+03 0.  0.
        -24    2    4    4    0    0 -0.33766318674E+03  0.13083205920E+03  0.42971057791E+02  0.37270900367E+03  0.77019700183E+02 0.  0.
         24    2    4    4    0    0  0.84833067257E+02 -0.87649344273E+02 -0.29000462524E+03  0.32495906066E+03  0.81342802982E+02 0.  0.
         11    1    5    5    0    0 -0.19096088266E+03  0.88333732711E+02 -0.11079140173E+02  0.21069327087E+03  0.00000000000E+00 0. -1.
        -12    1    5    5    0    0 -0.14670230408E+03  0.42498326487E+02  0.54050197964E+02  0.16201573280E+03  0.00000000000E+00 0.  1.
         13    1    3    3    0    0  0.14315103856E+03 -0.53297834434E+02 -0.18258863371E+03  0.23805774123E+03  0.00000000000E+00 0. -1.
        -14    1    3    3    0    0  0.10967908092E+03  0.10115119509E+02 -0.67382229803E+02  0.12912080129E+03  0.00000000000E+00 0.  1.
          4    1    6    6  502    0  0.10166582493E+02 -0.21757935286E+02 -0.15688995414E+03  0.15871743715E+03  0.00000000000E+00 0. -1.
         -1    1    6    6    0  502  0.74666484763E+02 -0.65891408987E+02 -0.13311467110E+03  0.16624162351E+03  0.00000000000E+00 0.  1.
<mgrwt>
<rscale>  0 0.37481512E+03</rscale>
<asrwt>0</asrwt>
<pdfrwt beam="1">  1        1 0.12014239E+00 0.37481512E+03</pdfrwt>
<pdfrwt beam="2">  1       -2 0.43680167E-01 0.37481512E+03</pdfrwt>
<totfact> 0.10522444E+02</totfact>
</mgrwt>
</event>
<event>
12    3  0.2269558E-007  0.5782452E+03  0.7818608E-02  0.9951597E-01
          1   -1    0    0  501    0  0.00000000000E+00  0.00000000000E+00  0.10465708591E+04  0.10465708591E+04  0.00000000000E+00 0. -1.
         -2   -1    0    0    0  501 -0.00000000000E+00 -0.00000000000E+00 -0.46728734662E+03  0.46728734662E+03  0.00000000000E+00 0.  1.
        -24    2    1    2    0    0  0.54144095132E+03 -0.12816709650E+03  0.35770861907E+03  0.66625630214E+03  0.79730142244E+02 0.  0.
    5000000    2    1    2    0    0 -0.54144095132E+03  0.12816709650E+03  0.22157489339E+03  0.84760190356E+03  0.59979033432E+03 0.  0.
        -24    2    4    4    0    0 -0.31071284438E+03 -0.14722220542E+02  0.39979755679E+03  0.51297013879E+03  0.80876828779E+02 0.  0.
         24    2    4    4    0    0 -0.23072810694E+03  0.14288931704E+03 -0.17822266340E+03  0.33463176477E+03  0.81007925450E+02 0.  0.
         11    1    5    5    0    0 -0.47898492677E+02 -0.24860149198E+02  0.10390210629E+03  0.11708091352E+03  0.00000000000E+00 0. -1.
        -12    1    5    5    0    0 -0.26281435170E+03  0.10137928656E+02  0.29589545050E+03  0.39588922527E+03  0.00000000000E+00 0.  1.
         11    1    3    3    0    0  0.48129332660E+03 -0.13874910102E+03  0.31445226981E+03  0.59141762677E+03  0.00000000000E+00 0. -1.
        -12    1    3    3    0    0  0.60147624720E+02  0.10582004516E+02  0.43256349265E+02  0.74838675367E+02  0.00000000000E+00 0.  1.
          4    1    6    6  502    0 -0.55855836953E+02  0.66158170288E+02 -0.87901494658E+02  0.12338334888E+03  0.00000000000E+00 0. -1.
         -3    1    6    6    0  502 -0.17487226999E+03  0.76731146757E+02 -0.90321168742E+02  0.21124841589E+03  0.00000000000E+00 0.  1.
<mgrwt>
<rscale>  0 0.57824525E+03</rscale>
<asrwt>0</asrwt>
<pdfrwt beam="1">  1        1 0.16101090E+00 0.57824525E+03</pdfrwt>
<pdfrwt beam="2">  1       -2 0.71890361E-01 0.57824525E+03</pdfrwt>
<totfact> 0.22372843E+01</totfact>
</mgrwt>
</event>
<event>
12    3  0.2280389E-007  0.8033890E+03  0.7818608E-02  0.9555125E-01
          1   -1    0    0  501    0  0.00000000000E+00  0.00000000000E+00  0.13134141343E+04  0.13134141343E+04  0.00000000000E+00 0. -1.
         -2   -1    0    0    0  501 -0.00000000000E+00 -0.00000000000E+00 -0.60012639639E+03  0.60012639639E+03  0.00000000000E+00 0.  1.
        -24    2    1    2    0    0  0.74930773809E+03  0.23066622048E+03  0.30017663438E+03  0.84332232605E+03  0.80109563451E+02 0.  0.
    5000000    2    1    2    0    0 -0.74930773809E+03 -0.23066622048E+03  0.41311110356E+03  0.10702182047E+04  0.60003102427E+03 0.  0.
        -24    2    4    4    0    0 -0.49424151071E+02 -0.40524107973E+02  0.31800175829E+03  0.33441698503E+03  0.81391962513E+02 0.  0.
         24    2    4    4    0    0 -0.69988358702E+03 -0.19014211251E+03  0.95109345270E+02  0.73580121964E+03  0.79790907610E+02 0.  0.
         11    1    5    5    0    0  0.16753641182E+02 -0.14359647428E+02  0.15494221137E+03  0.15650550415E+03  0.00000000000E+00 0. -1.
        -12    1    5    5    0    0 -0.66177792254E+02 -0.26164460545E+02  0.16305954693E+03  0.17791148087E+03  0.00000000000E+00 0.  1.
         13    1    3    3    0    0  0.12334429081E+03  0.68813267381E+02  0.62810274753E+02  0.15457752249E+03  0.00000000000E+00 0. -1.
        -14    1    3    3    0    0  0.62596344727E+03  0.16185295310E+03  0.23736635963E+03  0.68874480356E+03  0.00000000000E+00 0.  1.
          2    1    6    6  502    0 -0.20338338068E+03 -0.68073699813E+02 -0.62539957012E+01  0.21456453716E+03  0.00000000000E+00 0. -1.
         -1    1    6    6    0  502 -0.49650020634E+03 -0.12206841270E+03  0.10136334097E+03  0.52123668248E+03  0.00000000000E+00 0.  1.
<mgrwt>
<rscale>  0 0.80338897E+03</rscale>
<asrwt>0</asrwt>
<pdfrwt beam="1">  1        1 0.20206371E+00 0.80338897E+03</pdfrwt>
<pdfrwt beam="2">  1       -2 0.92327138E-01 0.80338897E+03</pdfrwt>
<totfact> 0.79033280E+00</totfact>
</mgrwt>
</event>
<event>
12    3  0.2269558E-007  0.6531594E+03  0.7818608E-02  0.9800869E-01
          1   -1    0    0  501    0  0.00000000000E+00  0.00000000000E+00  0.87747646935E+03  0.87747646935E+03  0.00000000000E+00 0. -1.
         -2   -1    0    0    0  501 -0.00000000000E+00 -0.00000000000E+00 -0.52107184203E+03  0.52107184203E+03  0.00000000000E+00 0.  1.
        -24    2    1    2    0    0 -0.51587992498E+03  0.12919906725E+03  0.23935084414E+03  0.58851488548E+03  0.78971183730E+02 0.  0.
    5000000    2    1    2    0    0  0.51587992498E+03 -0.12919906725E+03  0.11705378318E+03  0.81003342591E+03  0.59968997570E+03 0.  0.
        -24    2    4    4    0    0  0.39041226844E+03 -0.34094476224E+03  0.15725858643E+03  0.54786773556E+03  0.82241853214E+02 0.  0.
         24    2    4    4    0    0  0.12546765655E+03  0.21174569499E+03 -0.40204803246E+02  0.26216569035E+03  0.80845845935E+02 0.  0.
         11    1    5    5    0    0  0.18802863534E+03 -0.15472810146E+03  0.11616149970E+03  0.26979445343E+03  0.00000000000E+00 0. -1.
        -12    1    5    5    0    0  0.20238363309E+03 -0.18621666078E+03  0.41097086725E+02  0.27807328213E+03  0.00000000000E+00 0.  1.
         11    1    3    3    0    0 -0.16442017155E+03  0.24700849378E+02  0.39384322126E+02  0.17086617454E+03  0.00000000000E+00 0. -1.
        -12    1    3    3    0    0 -0.35145975343E+03  0.10449821787E+03  0.19996652201E+03  0.41764871093E+03  0.00000000000E+00 0.  1.
          2    1    6    6  502    0  0.91031825722E+02  0.88747070363E+02 -0.43573692955E+02  0.13439308952E+03  0.00000000000E+00 0. -1.
         -1    1    6    6    0  502  0.34435830823E+02  0.12299862463E+03  0.33688897094E+01  0.12777260083E+03  0.00000000000E+00 0.  1.
<mgrwt>
<rscale>  0 0.65315938E+03</rscale>
<asrwt>0</asrwt>
<pdfrwt beam="1">  1        1 0.13499638E+00 0.65315938E+03</pdfrwt>
<pdfrwt beam="2">  1       -2 0.80164899E-01 0.65315938E+03</pdfrwt>
<totfact> 0.23639149E+01</totfact>
</mgrwt>
</event>
<event>
12    3  0.2269558E-007  0.1150422E+04  0.7818608E-02  0.9157394E-01
         -2   -1    0    0    0  501 -0.00000000000E+00  0.00000000000E+00  0.11600360820E+04  0.11600360820E+04  0.00000000000E+00 0.  1.
          1   -1    0    0  501    0  0.00000000000E+00 -0.00000000000E+00 -0.14170442719E+04  0.14170442719E+04  0.00000000000E+00 0. -1.
        -24    2    1    2    0    0 -0.11442329174E+04 -0.13138566300E+02  0.27522629348E+03  0.11796913311E+04  0.80501756976E+02 0.  0.
    5000000    2    1    2    0    0  0.11442329174E+04  0.13138566300E+02 -0.53223448332E+03  0.13973890228E+04  0.59998412022E+03 0.  0.
        -24    2    4    4    0    0  0.73489345509E+03  0.25295084109E+02 -0.23811315609E+02  0.73973598183E+03  0.77033190588E+02 0.  0.
         24    2    4    4    0    0  0.40933946232E+03 -0.12156517809E+02 -0.50842316771E+03  0.65765304094E+03  0.79415542877E+02 0.  0.
         11    1    3    3    0    0 -0.55733936609E+03  0.28311863781E+02  0.15491216489E+03  0.57916017600E+03  0.00000000000E+00 0. -1.
        -12    1    3    3    0    0 -0.58689355132E+03 -0.41450430081E+02  0.12031412859E+03  0.60053115512E+03  0.00000000000E+00 0.  1.
         13    1    5    5    0    0  0.37984007995E+03 -0.15614855339E+02 -0.37975623190E+02  0.38205295183E+03  0.00000000000E+00 0. -1.
        -14    1    5    5    0    0  0.35505337514E+03  0.40909939448E+02  0.14164307581E+02  0.35768303000E+03  0.00000000000E+00 0.  1.
          2    1    6    6  502    0  0.32646636571E+03  0.22056099996E+02 -0.38895725946E+03  0.50828585380E+03  0.00000000000E+00 0. -1.
         -1    1    6    6    0  502  0.82873096609E+02 -0.34212617805E+02 -0.11946590825E+03  0.14936718714E+03  0.00000000000E+00 0.  1.
<mgrwt>
<rscale>  0 0.11504224E+04</rscale>
<asrwt>0</asrwt>
<pdfrwt beam="1">  1        1 0.21800681E+00 0.11504224E+04</pdfrwt>
<pdfrwt beam="2">  1       -2 0.17846709E+00 0.11504224E+04</pdfrwt>
<totfact> 0.11932622E+00</totfact>
</mgrwt>
</event>
<event>
12    3  0.2269558E-007  0.8171239E+03  0.7818608E-02  0.9535556E-01
          1   -1    0    0  501    0  0.00000000000E+00  0.00000000000E+00  0.10785477084E+04  0.10785477084E+04  0.00000000000E+00 0. -1.
         -2   -1    0    0    0  501 -0.00000000000E+00 -0.00000000000E+00 -0.63484281319E+03  0.63484281319E+03  0.00000000000E+00 0.  1.
        -24    2    1    2    0    0  0.60636543774E+03 -0.37568865688E+03  0.12673855630E+03  0.72889268666E+03  0.80005474984E+02 0.  0.
    5000000    2    1    2    0    0 -0.60636543774E+03  0.37568865688E+03  0.31696633890E+03  0.98449783492E+03  0.59995609504E+03 0.  0.
        -24    2    4    4    0    0 -0.60603394112E+03  0.76780915996E+02  0.26098517810E+03  0.66905193777E+03  0.79654161161E+02 0.  0.
         24    2    4    4    0    0 -0.33149661845E+00  0.29890774088E+03  0.55981160797E+02  0.31544589715E+03  0.83822885992E+02 0.  0.
         11    1    3    3    0    0  0.45374433404E+03 -0.32028504843E+03  0.95475465475E+02  0.56354413973E+03  0.00000000000E+00 0. -1.
        -12    1    3    3    0    0  0.15262110370E+03 -0.55403608445E+02  0.31263090821E+02  0.16534854693E+03  0.00000000000E+00 0.  1.
         11    1    5    5    0    0 -0.20772749543E+03  0.41975687722E+01  0.12229543633E+03  0.24109024387E+03  0.00000000000E+00 0. -1.
        -12    1    5    5    0    0 -0.39830644569E+03  0.72583347224E+02  0.13868974178E+03  0.42796169390E+03  0.00000000000E+00 0.  1.
          4    1    6    6  502    0  0.27111876179E+02  0.14491509900E+03  0.59510385436E+02  0.15898718729E+03  0.00000000000E+00 0. -1.
         -3    1    6    6    0  502 -0.27443372797E+02  0.15399264189E+03 -0.35292246392E+01  0.15645870986E+03  0.00000000000E+00 0.  1.
<mgrwt>
<rscale>  0 0.81712389E+03</rscale>
<asrwt>0</asrwt>
<pdfrwt beam="1">  1        1 0.16593042E+00 0.81712389E+03</pdfrwt>
<pdfrwt beam="2">  1       -2 0.97668125E-01 0.81712389E+03</pdfrwt>
<totfact> 0.10253573E+01</totfact>
</mgrwt>
</event>
<event>
12    3  0.2269558E-007  0.7392609E+03  0.7818608E-02  0.9652351E-01
          1   -1    0    0  501    0  0.00000000000E+00  0.00000000000E+00  0.18932949384E+04  0.18932949384E+04  0.00000000000E+00 0. -1.
         -2   -1    0    0    0  501 -0.00000000000E+00 -0.00000000000E+00 -0.10496827510E+04  0.10496827510E+04  0.00000000000E+00 0.  1.
        -24    2    1    2    0    0 -0.57974097547E+03 -0.23693355585E+03 -0.83865999108E+03  0.10502810417E+04  0.86617420113E+02 0.  0.
    5000000    2    1    2    0    0  0.57974097547E+03  0.23693355585E+03  0.16822721785E+04  0.18926966477E+04  0.60001984068E+03 0.  0.
        -24    2    4    4    0    0 -0.69399890207E+02  0.18315311759E+03  0.37722938314E+03  0.43189900136E+03  0.76637658038E+02 0.  0.
         24    2    4    4    0    0  0.64914086567E+03  0.53780438267E+02  0.13050427953E+04  0.14607976463E+04  0.80727113516E+02 0.  0.
         11    1    3    3    0    0 -0.47062293704E+02 -0.43476217769E+02 -0.10834775880E+03  0.12587405546E+03  0.00000000000E+00 0. -1.
        -12    1    3    3    0    0 -0.53267868176E+03 -0.19345733808E+03 -0.73031223228E+03  0.92440698628E+03  0.00000000000E+00 0.  1.
         13    1    5    5    0    0 -0.20133037155E+02  0.71755083310E+02  0.73576160462E+02  0.10472622668E+03  0.00000000000E+00 0. -1.
        -14    1    5    5    0    0 -0.49266853051E+02  0.11139803428E+03  0.30365322268E+03  0.32717277468E+03  0.00000000000E+00 0.  1.
          2    1    6    6  502    0  0.33631624845E+03  0.31169571972E+02  0.76579102051E+03  0.83696836755E+03  0.00000000000E+00 0. -1.
         -1    1    6    6    0  502  0.31282461723E+03  0.22610866295E+02  0.53925177481E+03  0.62382927878E+03  0.00000000000E+00 0.  1.
<mgrwt>
<rscale>  0 0.73926087E+03</rscale>
<asrwt>0</asrwt>
<pdfrwt beam="1">  1        1 0.29127614E+00 0.73926087E+03</pdfrwt>
<pdfrwt beam="2">  1       -2 0.16148965E+00 0.73926087E+03</pdfrwt>
<totfact> 0.79471918E-01</totfact>
</mgrwt>
</event>
<event>
12    3  0.2269558E-007  0.8859634E+03  0.7818608E-02  0.9443300E-01
         -2   -1    0    0    0  501 -0.00000000000E+00  0.00000000000E+00  0.77666026507E+03  0.77666026507E+03  0.00000000000E+00 0.  1.
          1   -1    0    0  501    0  0.00000000000E+00 -0.00000000000E+00 -0.10313144799E+04  0.10313144799E+04  0.00000000000E+00 0. -1.
        -24    2    1    2    0    0  0.12579265365E+03  0.78251025577E+03 -0.10462033139E+03  0.80266598229E+03  0.71980367392E+02 0.  0.
    5000000    2    1    2    0    0 -0.12579265365E+03 -0.78251025577E+03 -0.15003388345E+03  0.10053087627E+04  0.59999120831E+03 0.  0.
        -24    2    4    4    0    0 -0.27751132077E+03 -0.75788765486E+03 -0.70277489527E+02  0.81386023598E+03  0.77610100108E+02 0.  0.
         24    2    4    4    0    0  0.15171866712E+03 -0.24622600913E+02 -0.79756393927E+02  0.19144852670E+03  0.81649430961E+02 0.  0.
         11    1    5    5    0    0 -0.23557611902E+03 -0.62293383225E+03 -0.86619793251E+02  0.67159932683E+03  0.00000000000E+00 0. -1.
        -12    1    5    5    0    0 -0.41935201745E+02 -0.13495382261E+03  0.16342303724E+02  0.14226090915E+03  0.00000000000E+00 0.  1.
         13    1    3    3    0    0  0.45475963533E+02  0.45625276900E+03 -0.83067667796E+02  0.46597734914E+03  0.00000000000E+00 0. -1.
        -14    1    3    3    0    0  0.80316690113E+02  0.32625748677E+03 -0.21552663594E+02  0.33668863315E+03  0.00000000000E+00 0.  1.
          4    1    6    6  502    0  0.12531525517E+03  0.10964235230E+02 -0.76017709159E+02  0.14697897720E+03  0.00000000000E+00 0. -1.
         -3    1    6    6    0  502  0.26403411946E+02 -0.35586836143E+02 -0.37386847686E+01  0.44469549501E+02  0.00000000000E+00 0.  1.
<mgrwt>
<rscale>  0 0.88596342E+03</rscale>
<asrwt>0</asrwt>
<pdfrwt beam="1">  1        1 0.15866377E+00 0.88596342E+03</pdfrwt>
<pdfrwt beam="2">  1       -2 0.11948620E+00 0.88596342E+03</pdfrwt>
<totfact> 0.67907693E+00</totfact>
</mgrwt>
</event>
<event>
12    3  0.2269558E-007  0.1490495E+04  0.7818608E-02  0.8890798E-01
          1   -1    0    0  501    0  0.00000000000E+00  0.00000000000E+00  0.33556679015E+04  0.33556679015E+04  0.00000000000E+00 0. -1.
         -2   -1    0    0    0  501 -0.00000000000E+00 -0.00000000000E+00 -0.77216439437E+03  0.77216439437E+03  0.00000000000E+00 0.  1.
        -24    2    1    2    0    0 -0.35038365948E+03  0.14121583615E+04  0.55291147569E+03  0.15586364573E+04  0.81710215167E+02 0.  0.
    5000000    2    1    2    0    0  0.35038365948E+03 -0.14121583615E+04  0.20305920315E+04  0.25691958386E+04  0.60041928033E+03 0.  0.
        -24    2    4    4    0    0 -0.12091691045E+02 -0.86514947408E+03  0.14452044044E+04  0.16862634964E+04  0.78987259801E+02 0.  0.
         24    2    4    4    0    0  0.36247535053E+03 -0.54700888740E+03  0.58538762705E+03  0.88293234223E+03  0.79270072647E+02 0.  0.
         11    1    5    5    0    0  0.16647505788E+02 -0.50538647736E+03  0.78272437195E+03  0.93185303208E+03  0.00000000000E+00 0. -1.
        -12    1    5    5    0    0 -0.28739196833E+02 -0.35976299672E+03  0.66248003247E+03  0.75441046431E+03  0.00000000000E+00 0.  1.
         13    1    3    3    0    0 -0.92369710820E+02  0.43300528387E+03  0.20554880823E+03  0.48813528033E+03  0.00000000000E+00 0. -1.
        -14    1    3    3    0    0 -0.25801394866E+03  0.97915307761E+03  0.34736266746E+03  0.10705011769E+04  0.00000000000E+00 0.  1.
          4    1    6    6  502    0  0.21292117135E+03 -0.37440399379E+03  0.35035176194E+03  0.55521179100E+03  0.00000000000E+00 0. -1.
         -3    1    6    6    0  502  0.14955417918E+03 -0.17260489361E+03  0.23503586511E+03  0.32772055123E+03  0.00000000000E+00 0.  1.
<mgrwt>
<rscale>  0 0.14904954E+04</rscale>
<asrwt>0</asrwt>
<pdfrwt beam="1">  1        1 0.51625659E+00 0.14904954E+04</pdfrwt>
<pdfrwt beam="2">  1       -2 0.11879452E+00 0.14904954E+04</pdfrwt>
<totfact> 0.14809690E-01</totfact>
</mgrwt>
</event>
<event>
12    3  0.2269558E-007  0.4060346E+03  0.7818608E-02  0.1041710E+00
         -2   -1    0    0    0  501 -0.00000000000E+00  0.00000000000E+00  0.33469478584E+03  0.33469478584E+03  0.00000000000E+00 0.  1.
          1   -1    0    0  501    0  0.00000000000E+00 -0.00000000000E+00 -0.80059061070E+03  0.80059061070E+03  0.00000000000E+00 0. -1.
        -24    2    1    2    0    0 -0.41342279412E+02 -0.33252678821E+03 -0.18442909743E+03  0.39258384959E+03  0.88457549347E+02 0.  0.
    5000000    2    1    2    0    0  0.41342279412E+02  0.33252678821E+03 -0.28146672743E+03  0.74270154694E+03  0.60008234455E+03 0.  0.
        -24    2    4    4    0    0 -0.33500478832E+02 -0.36389666009E+02 -0.34015873455E+03  0.35218334176E+03  0.76672365595E+02 0.  0.
         24    2    4    4    0    0  0.74842758244E+02  0.36891645422E+03  0.58692007117E+02  0.39051820519E+03  0.85784195678E+02 0.  0.
         11    1    3    3    0    0 -0.75295697914E+01 -0.22166671116E+03 -0.16168356065E+03  0.27447112606E+03  0.00000000000E+00 0. -1.
        -12    1    3    3    0    0 -0.33812709621E+02 -0.11086007705E+03 -0.22745536774E+02  0.11811272352E+03  0.00000000000E+00 0.  1.
         13    1    5    5    0    0 -0.36602814687E+02  0.14562993759E+02 -0.17164886931E+03  0.17611127495E+03  0.00000000000E+00 0. -1.
        -14    1    5    5    0    0  0.31023358556E+01 -0.50952659768E+02 -0.16850986524E+03  0.17607206680E+03  0.00000000000E+00 0.  1.
          4    1    6    6  502    0  0.11925837595E+02  0.24183320780E+03  0.17056471506E+02  0.24272710853E+03  0.00000000000E+00 0. -1.
         -3    1    6    6    0  502  0.62916920649E+02  0.12708324642E+03  0.41635535611E+02  0.14779109665E+03  0.00000000000E+00 0.  1.
<mgrwt>
<rscale>  0 0.40603459E+03</rscale>
<asrwt>0</asrwt>
<pdfrwt beam="1">  1        1 0.12316779E+00 0.40603459E+03</pdfrwt>
<pdfrwt beam="2">  1       -2 0.51491506E-01 0.40603459E+03</pdfrwt>
<totfact> 0.72622410E+01</totfact>
</mgrwt>
</event>
<event>
12    3  0.2269558E-007  0.9196647E+03  0.7818608E-02  0.9401328E-01
         -2   -1    0    0    0  501 -0.00000000000E+00  0.00000000000E+00  0.14979412662E+04  0.14979412662E+04  0.00000000000E+00 0.  1.
          1   -1    0    0  501    0  0.00000000000E+00 -0.00000000000E+00 -0.77868619415E+03  0.77868619415E+03  0.00000000000E+00 0. -1.
        -24    2    1    2    0    0 -0.22980466657E+03 -0.86435157361E+03 -0.12807920948E+03  0.90621762047E+03  0.70087546515E+02 0.  0.
    5000000    2    1    2    0    0  0.22980466657E+03  0.86435157361E+03  0.84733428157E+03  0.13704098399E+04  0.60011158717E+03 0.  0.
        -24    2    4    4    0    0  0.94200773443E+02  0.41581818568E+02 -0.51515357021E+02  0.14173559109E+03  0.82657803135E+02 0.  0.
         24    2    4    4    0    0  0.13560389313E+03  0.82276975504E+03  0.89884963860E+03  0.12286742488E+04  0.79820118447E+02 0.  0.
         11    1    5    5    0    0  0.23188341440E+02  0.20081322248E+02  0.21639952371E+02  0.37539928351E+02  0.00000000000E+00 0. -1.
        -12    1    5    5    0    0  0.71012432003E+02  0.21500496320E+02 -0.73155309392E+02  0.10419566274E+03  0.00000000000E+00 0.  1.
         11    1    3    3    0    0 -0.21344832153E+03 -0.70210242603E+03 -0.11248659973E+03  0.74240234221E+03  0.00000000000E+00 0. -1.
        -12    1    3    3    0    0 -0.16356345040E+02 -0.16224914758E+03 -0.15592609751E+02  0.16381527826E+03  0.00000000000E+00 0.  1.
          4    1    6    6  502    0 -0.96152353643E+01  0.91679013655E+02  0.10568775540E+03  0.14024049322E+03  0.00000000000E+00 0. -1.
         -1    1    6    6    0  502  0.14521912849E+03  0.73109074138E+03  0.79316188319E+03  0.10884337556E+04  0.00000000000E+00 0.  1.
<mgrwt>
<rscale>  0 0.91966465E+03</rscale>
<asrwt>0</asrwt>
<pdfrwt beam="1">  1        1 0.11979788E+00 0.91966465E+03</pdfrwt>
<pdfrwt beam="2">  1       -2 0.23045250E+00 0.91966465E+03</pdfrwt>
<totfact> 0.17344698E+00</totfact>
</mgrwt>
</event>
<event>
12    3  0.2355741E-007  0.1115147E+04  0.7818608E-02  0.9190553E-01
         -2   -1    0    0    0  501 -0.00000000000E+00  0.00000000000E+00  0.10043954882E+04  0.10043954882E+04  0.00000000000E+00 0.  1.
          1   -1    0    0  501    0  0.00000000000E+00 -0.00000000000E+00 -0.15471163062E+04  0.15471163062E+04  0.00000000000E+00 0. -1.
        -24    2    1    2    0    0 -0.81480726793E+03  0.74763052469E+03  0.14434257087E+03  0.11180017700E+04  0.78936016185E+02 0.  0.
    5000000    2    1    2    0    0  0.81480726793E+03 -0.74763052469E+03 -0.68706338887E+03  0.14335100244E+04  0.60002716974E+03 0.  0.
        -24    2    4    4    0    0  0.52169797088E+03 -0.37562729840E+03 -0.70251752352E+02  0.65175055218E+03  0.81110008275E+02 0.  0.
         24    2    4    4    0    0  0.29310929705E+03 -0.37200322629E+03 -0.61681163652E+03  0.78175947223E+03  0.79948840367E+02 0.  0.
         11    1    5    5    0    0  0.42022157898E+02 -0.36608594233E+02  0.16194622638E+02  0.58037201246E+02  0.00000000000E+00 0. -1.
        -12    1    5    5    0    0  0.47967581298E+03 -0.33901870417E+03 -0.86446374990E+02  0.59371335094E+03  0.00000000000E+00 0.  1.
         13    1    3    3    0    0 -0.45418570873E+03  0.37337004205E+03  0.53379849099E+02  0.59037213231E+03  0.00000000000E+00 0. -1.
        -14    1    3    3    0    0 -0.36062155919E+03  0.37426048264E+03  0.90962721769E+02  0.52762963769E+03  0.00000000000E+00 0.  1.
          2    1    6    6  502    0  0.79059877625E+02 -0.15872796187E+03 -0.20645509722E+03  0.27215572252E+03  0.00000000000E+00 0. -1.
         -1    1    6    6    0  502  0.21404941943E+03 -0.21327526442E+03 -0.41035653930E+03  0.50960374971E+03  0.00000000000E+00 0.  1.
<mgrwt>
<rscale>  0 0.11151469E+04</rscale>
<asrwt>0</asrwt>
<pdfrwt beam="1">  1        1 0.23801789E+00 0.11151469E+04</pdfrwt>
<pdfrwt beam="2">  1       -2 0.15452238E+00 0.11151469E+04</pdfrwt>
<totfact> 0.14508947E+00</totfact>
</mgrwt>
</event>
<event>
12    3  0.2269558E-007  0.4049314E+03  0.7818608E-02  0.1042085E+00
         -2   -1    0    0    0  501 -0.00000000000E+00  0.00000000000E+00  0.12578312970E+04  0.12578312970E+04  0.00000000000E+00 0.  1.
          1   -1    0    0  501    0  0.00000000000E+00 -0.00000000000E+00 -0.18485986717E+03  0.18485986717E+03  0.00000000000E+00 0. -1.
        -24    2    1    2    0    0 -0.27610733006E+03  0.63958679576E+02  0.41322625320E+03  0.50694533990E+03  0.76887391101E+02 0.  0.
    5000000    2    1    2    0    0  0.27610733006E+03 -0.63958679576E+02  0.65974517663E+03  0.93574582426E+03  0.60002548207E+03 0.  0.
        -24    2    4    4    0    0  0.12154160557E+03  0.17799371766E+03  0.20378412289E+02  0.23048775123E+03  0.79089812045E+02 0.  0.
         24    2    4    4    0    0  0.15456572449E+03 -0.24195239724E+03  0.63936676434E+03  0.70525807303E+03  0.78533843157E+02 0.  0.
         11    1    5    5    0    0  0.10958252016E+03  0.17836669804E+03  0.29656719357E+01  0.20936046166E+03  0.00000000000E+00 0. -1.
        -12    1    5    5    0    0  0.11959085410E+02 -0.37298038123E+00  0.17412740353E+02  0.21127289576E+02  0.00000000000E+00 0.  1.
         13    1    3    3    0    0 -0.19032226172E+03  0.79383743247E+02  0.28004676904E+03  0.34777943419E+03  0.00000000000E+00 0. -1.
        -14    1    3    3    0    0 -0.85785068334E+02 -0.15425063672E+02  0.13317948416E+03  0.15916590571E+03  0.00000000000E+00 0.  1.
          4    1    6    6  502    0  0.76787820517E+02 -0.18017757423E+03  0.46540505545E+03  0.50493781129E+03  0.00000000000E+00 0. -1.
         -3    1    6    6    0  502  0.77777903971E+02 -0.61774823002E+02  0.17396170889E+03  0.20032026174E+03  0.00000000000E+00 0.  1.
<mgrwt>
<rscale>  0 0.40493140E+03</rscale>
<asrwt>0</asrwt>
<pdfrwt beam="1">  1        1 0.28439980E-01 0.40493140E+03</pdfrwt>
<pdfrwt beam="2">  1       -2 0.19351250E+00 0.40493140E+03</pdfrwt>
<totfact> 0.22264954E+01</totfact>
</mgrwt>
</event>
<event>
12    3  0.2269558E-007  0.6817544E+03  0.7818608E-02  0.9748954E-01
         -2   -1    0    0    0  501 -0.00000000000E+00  0.00000000000E+00  0.78742142754E+03  0.78742142754E+03  0.00000000000E+00 0.  1.
          1   -1    0    0  501    0  0.00000000000E+00 -0.00000000000E+00 -0.79913541832E+03  0.79913541832E+03  0.00000000000E+00 0. -1.
        -24    2    1    2    0    0 -0.56513460040E+03  0.35940863986E+03 -0.10531165646E+03  0.68250651315E+03  0.78567859462E+02 0.  0.
    5000000    2    1    2    0    0  0.56513460040E+03 -0.35940863986E+03  0.93597665679E+02  0.90405033270E+03  0.59999566171E+03 0.  0.
        -24    2    4    4    0    0  0.41866729203E+03 -0.20697288540E+03 -0.21796636704E+03  0.52150247434E+03  0.79595331973E+02 0.  0.
         24    2    4    4    0    0  0.14646730837E+03 -0.15243575446E+03  0.31156403272E+03  0.38254785836E+03  0.67685934974E+02 0.  0.
         11    1    3    3    0    0 -0.18068620772E+03  0.15294506377E+03 -0.56735076091E+02  0.24343082600E+03  0.00000000000E+00 0. -1.
        -12    1    3    3    0    0 -0.38444839268E+03  0.20646357609E+03 -0.48576580370E+02  0.43907568715E+03  0.00000000000E+00 0.  1.
         11    1    5    5    0    0  0.33291601430E+03 -0.19832462749E+03 -0.17485884634E+03  0.42513685631E+03  0.00000000000E+00 0. -1.
        -12    1    5    5    0    0  0.85751277728E+02 -0.86482579060E+01 -0.43107520705E+02  0.96365618030E+02  0.00000000000E+00 0.  1.
          2    1    6    6  502    0  0.14681192880E+03 -0.13556615570E+03  0.25768252171E+03  0.32608619566E+03  0.00000000000E+00 0. -1.
         -1    1    6    6    0  502 -0.34462042983E+00 -0.16869598761E+02  0.53881511015E+02  0.56461662700E+02  0.00000000000E+00 0.  1.
<mgrwt>
<rscale>  0 0.68175437E+03</rscale>
<asrwt>0</asrwt>
<pdfrwt beam="1">  1        1 0.12294391E+00 0.68175437E+03</pdfrwt>
<pdfrwt beam="2">  1       -2 0.12114176E+00 0.68175437E+03</pdfrwt>
<totfact> 0.10364702E+01</totfact>
</mgrwt>
</event>
<event>
12    3  0.2269558E-007  0.1797357E+04  0.7818608E-02  0.8707706E-01
          1   -1    0    0  501    0  0.00000000000E+00  0.00000000000E+00  0.20217866031E+04  0.20217866031E+04  0.00000000000E+00 0. -1.
         -2   -1    0    0    0  501 -0.00000000000E+00 -0.00000000000E+00 -0.16347041179E+04  0.16347041179E+04  0.00000000000E+00 0.  1.
        -24    2    1    2    0    0 -0.17439985356E+04 -0.26990770339E+03  0.88145207803E+02  0.17687165770E+04  0.78788905069E+02 0.  0.
    5000000    2    1    2    0    0  0.17439985356E+04  0.26990770339E+03  0.29893727738E+03  0.18877741440E+04  0.59995555043E+03 0.  0.
        -24    2    4    4    0    0  0.13498665561E+04  0.39645403893E+03  0.77008762179E+02  0.14113508338E+04  0.81641302410E+02 0.  0.
         24    2    4    4    0    0  0.39413197949E+03 -0.12654633554E+03  0.22192851521E+03  0.47642331024E+03  0.79830522897E+02 0.  0.
         11    1    5    5    0    0  0.29868400387E+03  0.91147656074E+02  0.51007843896E+02  0.31642033676E+03  0.00000000000E+00 0. -1.
        -12    1    5    5    0    0  0.10511825523E+04  0.30530638285E+03  0.26000918283E+02  0.10949304970E+04  0.00000000000E+00 0.  1.
         13    1    3    3    0    0 -0.20063207370E+03 -0.55342094118E+02  0.21636623761E+01  0.20813615210E+03  0.00000000000E+00 0. -1.
        -14    1    3    3    0    0 -0.15433664619E+04 -0.21456560927E+03  0.85981545427E+02  0.15605804249E+04  0.00000000000E+00 0.  1.
          2    1    6    6  502    0  0.14645066330E+03 -0.87879783525E+02  0.95065641265E+02  0.19546899826E+03  0.00000000000E+00 0. -1.
         -1    1    6    6    0  502  0.24768131619E+03 -0.38666552010E+02  0.12686287394E+03  0.28095431198E+03  0.00000000000E+00 0.  1.
<mgrwt>
<rscale>  0 0.17973571E+04</rscale>
<asrwt>0</asrwt>
<pdfrwt beam="1">  1        1 0.31104409E+00 0.17973571E+04</pdfrwt>
<pdfrwt beam="2">  1       -2 0.25149294E+00 0.17973571E+04</pdfrwt>
<totfact> 0.14473563E-01</totfact>
</mgrwt>
</event>
<event>
12    3  0.3505549E-007  0.7117764E+03  0.7818608E-02  0.9697302E-01
         -2   -1    0    0    0  501 -0.00000000000E+00  0.00000000000E+00  0.81928884920E+03  0.81928884920E+03  0.00000000000E+00 0.  1.
          1   -1    0    0  501    0  0.00000000000E+00 -0.00000000000E+00 -0.21683067122E+04  0.21683067122E+04  0.00000000000E+00 0. -1.
        -24    2    1    2    0    0  0.60541124878E+03  0.20427203360E+03  0.58128975432E+03  0.86761047200E+03  0.81242284471E+02 0.  0.
    5000000    2    1    2    0    0 -0.60541124878E+03 -0.20427203360E+03 -0.19303076173E+04  0.21199850894E+04  0.59999953157E+03 0.  0.
        -24    2    4    4    0    0 -0.40059988832E+03  0.10045005797E+03 -0.56767109157E+03  0.70660645700E+03  0.80447077016E+02 0.  0.
         24    2    4    4    0    0 -0.20481136046E+03 -0.30472209157E+03 -0.13626365257E+04  0.14133786324E+04  0.77830654154E+02 0.  0.
         11    1    5    5    0    0 -0.23948712058E+03  0.54858891883E+02 -0.26983475087E+03  0.36493063960E+03  0.00000000000E+00 0. -1.
        -12    1    5    5    0    0 -0.16111276774E+03  0.45591166091E+02 -0.29783634070E+03  0.34167581740E+03  0.00000000000E+00 0.  1.
         13    1    3    3    0    0  0.20433663233E+03  0.10271845852E+03  0.23713290595E+03  0.32944886723E+03  0.00000000000E+00 0. -1.
        -14    1    3    3    0    0  0.40107461645E+03  0.10155357508E+03  0.34415684837E+03  0.53816160478E+03  0.00000000000E+00 0.  1.
          2    1    6    6  502    0 -0.13587010801E+03 -0.22232541096E+03 -0.82701529912E+03  0.86708914166E+03  0.00000000000E+00 0. -1.
         -1    1    6    6    0  502 -0.68941252454E+02 -0.82396680611E+02 -0.53562122659E+03  0.54628949070E+03  0.00000000000E+00 0.  1.
<mgrwt>
<rscale>  0 0.71177636E+03</rscale>
<asrwt>0</asrwt>
<pdfrwt beam="1">  1        1 0.33358564E+00 0.71177636E+03</pdfrwt>
<pdfrwt beam="2">  1       -2 0.12604444E+00 0.71177636E+03</pdfrwt>
<totfact> 0.99809123E-01</totfact>
</mgrwt>
</event>
<event>
12    3  0.2269558E-007  0.5013718E+03  0.7818608E-02  0.1013421E+00
         -2   -1    0    0    0  501 -0.00000000000E+00  0.00000000000E+00  0.13984587476E+03  0.13984587476E+03  0.00000000000E+00 0.  1.
          1   -1    0    0  501    0  0.00000000000E+00 -0.00000000000E+00 -0.24412276146E+04  0.24412276146E+04  0.00000000000E+00 0. -1.
        -24    2    1    2    0    0 -0.94644853730E+02 -0.32953548984E+03 -0.14090528379E+04  0.14524217023E+04  0.80917328315E+02 0.  0.
    5000000    2    1    2    0    0  0.94644853730E+02  0.32953548984E+03 -0.89232890202E+03  0.11286517871E+04  0.60004391484E+03 0.  0.
        -24    2    4    4    0    0  0.30901927732E+03  0.29605543294E+03 -0.71625775597E+03  0.83802480709E+03  0.78221935460E+02 0.  0.
         24    2    4    4    0    0 -0.21437442359E+03  0.33480056896E+02 -0.17607114605E+03  0.29062698001E+03  0.79910483271E+02 0.  0.
         11    1    5    5    0    0  0.63961519028E+02  0.10137738329E+03 -0.23766181103E+03  0.26617961263E+03  0.00000000000E+00 0. -1.
        -12    1    5    5    0    0  0.24505775829E+03  0.19467804965E+03 -0.47859594494E+03  0.57184519446E+03  0.00000000000E+00 0.  1.
         13    1    3    3    0    0 -0.55189225804E+02 -0.67358515145E+02 -0.36072784085E+03  0.37108974032E+03  0.00000000000E+00 0. -1.
        -14    1    3    3    0    0 -0.39455627925E+02 -0.26217697469E+03 -0.10483249970E+04  0.10813319620E+04  0.00000000000E+00 0.  1.
          4    1    6    6  502    0 -0.14261661313E+03  0.30677393145E+02 -0.16098268935E+03  0.21724646617E+03  0.00000000000E+00 0. -1.
         -3    1    6    6    0  502 -0.71757810454E+02  0.28026637508E+01 -0.15088456700E+02  0.73380513836E+02  0.00000000000E+00 0.  1.
<mgrwt>
<rscale>  0 0.50137184E+03</rscale>
<asrwt>0</asrwt>
<pdfrwt beam="1">  1        1 0.37557349E+00 0.50137184E+03</pdfrwt>
<pdfrwt beam="2">  1       -2 0.21514749E-01 0.50137184E+03</pdfrwt>
<totfact> 0.26685498E+01</totfact>
</mgrwt>
</event>
<event>
12    3  0.2269558E-007  0.6018078E+03  0.7818608E-02  0.9901663E-01
          1   -1    0    0  501    0  0.00000000000E+00  0.00000000000E+00  0.35124871710E+03  0.35124871710E+03  0.00000000000E+00 0. -1.
         -2   -1    0    0    0  501 -0.00000000000E+00 -0.00000000000E+00 -0.16053549881E+04  0.16053549881E+04  0.00000000000E+00 0.  1.
        -24    2    1    2    0    0  0.38807308040E+03 -0.35837559560E+03 -0.85840486618E+02  0.54107979654E+03  0.79780786091E+02 0.  0.
    5000000    2    1    2    0    0 -0.38807308040E+03  0.35837559560E+03 -0.11682657843E+04  0.14155239086E+04  0.59985765791E+03 0.  0.
        -24    2    4    4    0    0 -0.14526140766E+03 -0.66479511798E+02 -0.40448825781E+02  0.18347739707E+03  0.80668740441E+02 0.  0.
         24    2    4    4    0    0 -0.24281167274E+03  0.42485510740E+03 -0.11278169586E+04  0.12320465116E+04  0.80673067927E+02 0.  0.
         11    1    3    3    0    0  0.21506846963E+03 -0.22424021916E+03 -0.15300148534E+02  0.31108233165E+03  0.00000000000E+00 0. -1.
        -12    1    3    3    0    0  0.17300461078E+03 -0.13413537644E+03 -0.70540338084E+02  0.22999746490E+03  0.00000000000E+00 0.  1.
         13    1    5    5    0    0 -0.79456810799E+02  0.72425135933E+01 -0.12310053855E+02  0.80730268248E+02  0.00000000000E+00 0. -1.
        -14    1    5    5    0    0 -0.65804596865E+02 -0.73722025391E+02 -0.28138771926E+02  0.10274712883E+03  0.00000000000E+00 0.  1.
          2    1    6    6  502    0 -0.23216278300E+03  0.35138910374E+03 -0.93701795062E+03  0.10273151901E+04  0.00000000000E+00 0. -1.
         -1    1    6    6    0  502 -0.10648889735E+02  0.73466003666E+02 -0.19079900795E+03  0.20473132145E+03  0.00000000000E+00 0.  1.
<mgrwt>
<rscale>  0 0.60180775E+03</rscale>
<asrwt>0</asrwt>
<pdfrwt beam="1">  1        1 0.54038264E-01 0.60180775E+03</pdfrwt>
<pdfrwt beam="2">  1       -2 0.24697769E+00 0.60180775E+03</pdfrwt>
<totfact> 0.44048136E+00</totfact>
</mgrwt>
</event>
<event>
12    3  0.2706167E-007  0.1021484E+04  0.7818608E-02  0.9285290E-01
          1   -1    0    0  501    0  0.00000000000E+00  0.00000000000E+00  0.12186766383E+04  0.12186766383E+04  0.00000000000E+00 0. -1.
         -2   -1    0    0    0  501 -0.00000000000E+00 -0.00000000000E+00 -0.13563287946E+04  0.13563287946E+04  0.00000000000E+00 0.  1.
        -24    2    1    2    0    0  0.94654319766E+03  0.14724469978E+03 -0.81243841193E+03  0.12585802221E+04  0.79642799722E+02 0.  0.
    5000000    2    1    2    0    0 -0.94654319766E+03 -0.14724469978E+03  0.67478625570E+03  0.13164252109E+04  0.60001151508E+03 0.  0.
        -24    2    4    4    0    0 -0.92931920441E+03 -0.19279386865E+01  0.44793145436E+03  0.10355249096E+04  0.89617799888E+02 0.  0.
         24    2    4    4    0    0 -0.17223993251E+02 -0.14531676110E+03  0.22685480134E+03  0.28090030121E+03  0.77641814290E+02 0.  0.
         13    1    3    3    0    0  0.50354383279E+03  0.96391907699E+02 -0.38789270012E+03  0.64289076694E+03  0.00000000000E+00 0. -1.
        -14    1    3    3    0    0  0.44299936487E+03  0.50852792084E+02 -0.42454571181E+03  0.61568945513E+03  0.00000000000E+00 0.  1.
         13    1    5    5    0    0 -0.20257505372E+03  0.18180284512E+02  0.63211288018E+02  0.21298554427E+03  0.00000000000E+00 0. -1.
        -14    1    5    5    0    0 -0.72674415069E+03 -0.20108223199E+02  0.38472016634E+03  0.82253936537E+03  0.00000000000E+00 0.  1.
          2    1    6    6  502    0  0.14110268039E+02 -0.18139767027E+02  0.53951788173E+01  0.23606328948E+02  0.00000000000E+00 0. -1.
         -1    1    6    6    0  502 -0.31334261290E+02 -0.12717699407E+03  0.22145962253E+03  0.25729397226E+03  0.00000000000E+00 0.  1.
<mgrwt>
<rscale>  0 0.10214843E+04</rscale>
<asrwt>0</asrwt>
<pdfrwt beam="1">  1        1 0.18748871E+00 0.10214843E+04</pdfrwt>
<pdfrwt beam="2">  1       -2 0.20866597E+00 0.10214843E+04</pdfrwt>
<totfact> 0.10555256E+00</totfact>
</mgrwt>
</event>
<event>
12    3  0.2269558E-007  0.4550319E+03  0.7818608E-02  0.1026232E+00
          1   -1    0    0  501    0  0.00000000000E+00  0.00000000000E+00  0.96577179338E+03  0.96577179338E+03  0.00000000000E+00 0. -1.
         -2   -1    0    0    0  501 -0.00000000000E+00 -0.00000000000E+00 -0.44441124375E+03  0.44441124375E+03  0.00000000000E+00 0.  1.
        -24    2    1    2    0    0  0.30082971230E+03  0.29799384407E+03  0.51999952912E+03  0.67619772975E+03  0.86862031540E+02 0.  0.
    5000000    2    1    2    0    0 -0.30082971230E+03 -0.29799384407E+03  0.13610205036E+01  0.73398530738E+03  0.59952792443E+03 0.  0.
        -24    2    4    4    0    0 -0.27602848486E+03 -0.16765247604E+03 -0.26538750059E+03  0.42545200845E+03  0.79245244958E+02 0.  0.
         24    2    4    4    0    0 -0.24801227445E+02 -0.13034136803E+03  0.26674852109E+03  0.30853329893E+03  0.80212529843E+02 0.  0.
         11    1    5    5    0    0 -0.18261304017E+03 -0.10095258842E+03 -0.12174003533E+03  0.24157728318E+03  0.00000000000E+00 0. -1.
        -12    1    5    5    0    0 -0.93415444688E+02 -0.66699887616E+02 -0.14364746526E+03  0.18387472526E+03  0.00000000000E+00 0.  1.
         13    1    3    3    0    0  0.28028617662E+01  0.32473284074E+02  0.48477176099E+02  0.58415809633E+02  0.00000000000E+00 0. -1.
        -14    1    3    3    0    0  0.29802685054E+03  0.26552055999E+03  0.47152235302E+03  0.61778192011E+03  0.00000000000E+00 0.  1.
          4    1    6    6  502    0 -0.47728117550E+02 -0.41899393840E+02  0.10240501885E+03  0.12050029168E+03  0.00000000000E+00 0. -1.
         -3    1    6    6    0  502  0.22926890104E+02 -0.88441974189E+02  0.16434350224E+03  0.18803300725E+03  0.00000000000E+00 0.  1.
<mgrwt>
<rscale>  0 0.45503185E+03</rscale>
<asrwt>0</asrwt>
<pdfrwt beam="1">  1        1 0.14858028E+00 0.45503185E+03</pdfrwt>
<pdfrwt beam="2">  1       -2 0.68370961E-01 0.45503185E+03</pdfrwt>
<totfact> 0.29295608E+01</totfact>
</mgrwt>
</event>
<event>
12    3  0.2269558E-007  0.6903910E+03  0.7818608E-02  0.9733807E-01
         -4   -1    0    0    0  501 -0.00000000000E+00  0.00000000000E+00  0.13661862168E+04  0.13661862168E+04  0.00000000000E+00 0.  1.
          3   -1    0    0  501    0  0.00000000000E+00 -0.00000000000E+00 -0.83315077432E+03  0.83315077432E+03  0.00000000000E+00 0. -1.
        -24    2    1    2    0    0  0.41108718001E+03  0.52641530690E+03 -0.49410130083E+03  0.83500090000E+03  0.83574293859E+02 0.  0.
    5000000    2    1    2    0    0 -0.41108718001E+03 -0.52641530690E+03  0.10271367433E+04  0.13643360912E+04  0.60024772816E+03 0.  0.
        -24    2    4    4    0    0 -0.37853660118E+03 -0.31977065778E+03  0.10234631959E+04  0.11399976260E+04  0.81082931761E+02 0.  0.
         24    2    4    4    0    0 -0.32550578837E+02 -0.20664464912E+03  0.36735474443E+01  0.22433846519E+03  0.80948754274E+02 0.  0.
         11    1    3    3    0    0  0.64873710818E+02  0.11678653055E+03 -0.67426516164E+02  0.14964634026E+03  0.00000000000E+00 0. -1.
        -12    1    3    3    0    0  0.34621346920E+03  0.40962877636E+03 -0.42667478467E+03  0.68535455973E+03  0.00000000000E+00 0.  1.
         11    1    5    5    0    0 -0.35414422955E+03 -0.26716892019E+03  0.88786423892E+03  0.99252217808E+03  0.00000000000E+00 0. -1.
        -12    1    5    5    0    0 -0.24392371624E+02 -0.52601737595E+02  0.13559895699E+03  0.14747544788E+03  0.00000000000E+00 0.  1.
          2    1    6    6  502    0 -0.15493533981E+02 -0.83301916822E+02 -0.38235781350E+02  0.92958237488E+02  0.00000000000E+00 0. -1.
         -1    1    6    6    0  502 -0.17057044856E+02 -0.12334273230E+03  0.41909328794E+02  0.13138022770E+03  0.00000000000E+00 0.  1.
<mgrwt>
<rscale>  0 0.69039097E+03</rscale>
<asrwt>0</asrwt>
<pdfrwt beam="1">  1        3 0.12817704E+00 0.69039097E+03</pdfrwt>
<pdfrwt beam="2">  1       -4 0.21018249E+00 0.69039097E+03</pdfrwt>
<totfact> 0.12332557E-01</totfact>
</mgrwt>
</event>
<event>
12    3  0.2269558E-007  0.4887562E+03  0.7818608E-02  0.1016756E+00
          1   -1    0    0  501    0  0.00000000000E+00  0.00000000000E+00  0.15036865890E+04  0.15036865890E+04  0.00000000000E+00 0. -1.
         -2   -1    0    0    0  501 -0.00000000000E+00 -0.00000000000E+00 -0.21700249326E+03  0.21700249326E+03  0.00000000000E+00 0.  1.
        -24    2    1    2    0    0  0.89412480624E+02 -0.36622608139E+03  0.23121297876E+03  0.44943138929E+03  0.80081194712E+02 0.  0.
    5000000    2    1    2    0    0 -0.89412480624E+02  0.36622608139E+03  0.10554711170E+04  0.12712576930E+04  0.59996725640E+03 0.  0.
        -24    2    4    4    0    0 -0.26410646379E+03  0.30306494830E+03  0.96780765807E+03  0.10510031863E+04  0.79721060397E+02 0.  0.
         24    2    4    4    0    0  0.17469398317E+03  0.63161133095E+02  0.87663458924E+02  0.22025450668E+03  0.79497479170E+02 0.  0.
         11    1    3    3    0    0  0.86188787177E+02 -0.19914301929E+03  0.11232749224E+03  0.24434384519E+03  0.00000000000E+00 0. -1.
        -12    1    3    3    0    0  0.32236934470E+01 -0.16708306211E+03  0.11888548652E+03  0.20508754410E+03  0.00000000000E+00 0.  1.
         13    1    5    5    0    0 -0.23796724039E+03  0.25778529322E+03  0.76575710727E+03  0.84229781682E+03  0.00000000000E+00 0. -1.
        -14    1    5    5    0    0 -0.26139223405E+02  0.45279655079E+02  0.20205055080E+03  0.20870536946E+03  0.00000000000E+00 0.  1.
          2    1    6    6  502    0  0.87647419526E+02  0.53559721748E+02  0.99976193935E+01  0.10320206556E+03  0.00000000000E+00 0. -1.
         -1    1    6    6    0  502  0.87046563643E+02  0.96014113479E+01  0.77665839530E+02  0.11705244112E+03  0.00000000000E+00 0.  1.
<mgrwt>
<rscale>  0 0.48875617E+03</rscale>
<asrwt>0</asrwt>
<pdfrwt beam="1">  1        1 0.23133639E+00 0.48875617E+03</pdfrwt>
<pdfrwt beam="2">  1       -2 0.33385000E-01 0.48875617E+03</pdfrwt>
<totfact> 0.50744965E+01</totfact>
</mgrwt>
</event>
<event>
12    3  0.2269558E-007  0.4746654E+03  0.7818608E-02  0.1020612E+00
         -2   -1    0    0    0  501 -0.00000000000E+00  0.00000000000E+00  0.37072015014E+03  0.37072015014E+03  0.00000000000E+00 0.  1.
          1   -1    0    0  501    0  0.00000000000E+00 -0.00000000000E+00 -0.64738398842E+03  0.64738398842E+03  0.00000000000E+00 0. -1.
        -24    2    1    2    0    0  0.28670423392E+03  0.18876257840E+02 -0.17336827196E+03  0.34498627425E+03  0.80020877549E+02 0.  0.
    5000000    2    1    2    0    0 -0.28670423392E+03 -0.18876257840E+02 -0.10329556632E+03  0.67311786430E+03  0.59988503429E+03 0.  0.
        -24    2    4    4    0    0 -0.43805238527E+03  0.88423049190E+02 -0.20482399995E+02  0.45420425839E+03  0.78571316385E+02 0.  0.
         24    2    4    4    0    0  0.15134815135E+03 -0.10729930703E+03 -0.82813166322E+02  0.21891360591E+03  0.81521421299E+02 0.  0.
         11    1    5    5    0    0 -0.37138050877E+03  0.48470476518E+02 -0.30808642264E+02  0.37579521262E+03  0.00000000000E+00 0. -1.
        -12    1    5    5    0    0 -0.66671876504E+02  0.39952572672E+02  0.10326242269E+02  0.78409045774E+02  0.00000000000E+00 0.  1.
         13    1    3    3    0    0  0.22907891513E+03 -0.14194977992E+02 -0.15161871408E+03  0.27507613713E+03  0.00000000000E+00 0. -1.
        -14    1    3    3    0    0  0.57625318792E+02  0.33071235831E+02 -0.21749557876E+02  0.69910137127E+02  0.00000000000E+00 0.  1.
          2    1    6    6  502    0  0.56232882619E+02 -0.87421130895E+02 -0.56197891745E+02  0.11816426808E+03  0.00000000000E+00 0. -1.
         -1    1    6    6    0  502  0.95115268733E+02 -0.19878176134E+02 -0.26615274577E+02  0.10074933783E+03  0.00000000000E+00 0.  1.
<mgrwt>
<rscale>  0 0.47466540E+03</rscale>
<asrwt>0</asrwt>
<pdfrwt beam="1">  1        1 0.99597536E-01 0.47466540E+03</pdfrwt>
<pdfrwt beam="2">  1       -2 0.57033870E-01 0.47466540E+03</pdfrwt>
<totfact> 0.80425970E+01</totfact>
</mgrwt>
</event>
<event>
12    3  0.2524767E-007  0.1144320E+04  0.7818608E-02  0.9163039E-01
          1   -1    0    0  501    0  0.00000000000E+00  0.00000000000E+00  0.16918691286E+04  0.16918691286E+04  0.00000000000E+00 0. -1.
         -2   -1    0    0    0  501 -0.00000000000E+00 -0.00000000000E+00 -0.79785164002E+03  0.79785164002E+03  0.00000000000E+00 0.  1.
        -24    2    1    2    0    0 -0.13702760479E+03  0.10675427647E+04  0.54460920277E+03  0.12088647365E+04  0.79565372854E+02 0.  0.
    5000000    2    1    2    0    0  0.13702760479E+03 -0.10675427647E+04  0.34940828577E+03  0.12808560321E+04  0.60006825095E+03 0.  0.
        -24    2    4    4    0    0  0.25235973417E+01 -0.10730312068E+04  0.31274536145E+03  0.11207015877E+04  0.82219512086E+02 0.  0.
         24    2    4    4    0    0  0.13450400745E+03  0.54884421219E+01  0.36662924316E+02  0.16015444439E+03  0.78637300447E+02 0.  0.
         11    1    3    3    0    0 -0.78293012389E+02  0.53723432976E+03  0.23132408635E+03  0.59013672466E+03  0.00000000000E+00 0. -1.
        -12    1    3    3    0    0 -0.58734592406E+02  0.53030843492E+03  0.31328511642E+03  0.61872801187E+03  0.00000000000E+00 0.  1.
         13    1    5    5    0    0  0.53426615123E+01 -0.25004577447E+03  0.37468932913E+02  0.25289395860E+03  0.00000000000E+00 0. -1.
        -14    1    5    5    0    0 -0.28190641706E+01 -0.82298543234E+03  0.27527642854E+03  0.86780762907E+03  0.00000000000E+00 0.  1.
          2    1    6    6  502    0  0.56955447568E+02 -0.14960719159E+02 -0.19739155855E+02  0.62107812708E+02  0.00000000000E+00 0. -1.
         -1    1    6    6    0  502  0.77548559885E+02  0.20449161281E+02  0.56402080170E+02  0.98046631685E+02  0.00000000000E+00 0.  1.
<mgrwt>
<rscale>  0 0.11443203E+04</rscale>
<asrwt>0</asrwt>
<pdfrwt beam="1">  1        1 0.26028756E+00 0.11443203E+04</pdfrwt>
<pdfrwt beam="2">  1       -2 0.12274641E+00 0.11443203E+04</pdfrwt>
<totfact> 0.20923466E+00</totfact>
</mgrwt>
</event>
<event>
12    3  0.2269558E-007  0.9794170E+03  0.7818608E-02  0.9331412E-01
          1   -1    0    0  501    0  0.00000000000E+00  0.00000000000E+00  0.55804987457E+03  0.55804987457E+03  0.00000000000E+00 0. -1.
         -2   -1    0    0    0  501 -0.00000000000E+00 -0.00000000000E+00 -0.18305556345E+04  0.18305556345E+04  0.00000000000E+00 0.  1.
        -24    2    1    2    0    0 -0.35332295238E+03 -0.81986097790E+03 -0.84211978400E+03  0.12299058090E+04  0.80581862662E+02 0.  0.
    5000000    2    1    2    0    0  0.35332295238E+03  0.81986097790E+03 -0.43038597590E+03  0.11586997001E+04  0.60028641072E+03 0.  0.
        -24    2    4    4    0    0  0.26706283707E+03  0.44654379257E+02 -0.18356064811E+03  0.33665505877E+03  0.79533291972E+02 0.  0.
         24    2    4    4    0    0  0.86260115317E+02  0.77520659864E+03 -0.24682532779E+03  0.82204464128E+03  0.80302999654E+02 0.  0.
         11    1    5    5    0    0  0.89358890129E+02  0.52972568280E+02 -0.58775200580E+02  0.11935505200E+03  0.00000000000E+00 0. -1.
        -12    1    5    5    0    0  0.17770394694E+03 -0.83181890235E+01 -0.12478544753E+03  0.21730000677E+03  0.00000000000E+00 0.  1.
         13    1    3    3    0    0 -0.21685109552E+03 -0.54525827202E+03 -0.50494632823E+03  0.77414583589E+03  0.00000000000E+00 0. -1.
        -14    1    3    3    0    0 -0.13647185686E+03 -0.27460270588E+03 -0.33717345577E+03  0.45575997308E+03  0.00000000000E+00 0.  1.
          4    1    6    6  502    0  0.41760927989E+02  0.12311876363E+03 -0.51991747350E+02  0.14001909462E+03  0.00000000000E+00 0. -1.
         -3    1    6    6    0  502  0.44499187328E+02  0.65208783501E+03 -0.19483358044E+03  0.68202554667E+03  0.00000000000E+00 0.  1.
<mgrwt>
<rscale>  0 0.97941699E+03</rscale>
<asrwt>0</asrwt>
<pdfrwt beam="1">  1        1 0.85853825E-01 0.97941699E+03</pdfrwt>
<pdfrwt beam="2">  1       -2 0.28162395E+00 0.97941699E+03</pdfrwt>
<totfact> 0.13829018E+00</totfact>
</mgrwt>
</event>
<event>
12    3  0.2269558E-007  0.4613395E+03  0.7818608E-02  0.1024393E+00
          1   -1    0    0  501    0  0.00000000000E+00  0.00000000000E+00  0.11885537123E+04  0.11885537123E+04  0.00000000000E+00 0. -1.
         -2   -1    0    0    0  501 -0.00000000000E+00 -0.00000000000E+00 -0.37124590455E+03  0.37124590455E+03  0.00000000000E+00 0.  1.
        -24    2    1    2    0    0  0.33252135743E+03  0.29478958667E+03  0.65406240593E+03  0.79551219215E+03  0.87009559573E+02 0.  0.
    5000000    2    1    2    0    0 -0.33252135743E+03 -0.29478958667E+03  0.16324540183E+03  0.76428742472E+03  0.60001237721E+03 0.  0.
        -24    2    4    4    0    0 -0.23984209662E+03 -0.15150853040E+03 -0.19944318037E+03  0.35587546043E+03  0.79941822888E+02 0.  0.
         24    2    4    4    0    0 -0.92679260811E+02 -0.14328105627E+03  0.36268858220E+03  0.40841196428E+03  0.78348059572E+02 0.  0.
         11    1    3    3    0    0  0.24874748311E+03  0.26538638917E+03  0.51409784301E+03  0.62976331911E+03  0.00000000000E+00 0. -1.
        -12    1    3    3    0    0  0.83773874318E+02  0.29403197505E+02  0.13996456292E+03  0.16574887304E+03  0.00000000000E+00 0.  1.
         13    1    5    5    0    0 -0.11673599161E+02  0.88585862272E+01 -0.35925073310E+01  0.15088193273E+02  0.00000000000E+00 0. -1.
        -14    1    5    5    0    0 -0.22816849746E+03 -0.16036711663E+03 -0.19585067304E+03  0.34078726716E+03  0.00000000000E+00 0.  1.
          2    1    6    6  502    0  0.51813319561E+01 -0.10030209583E+02  0.81066603852E+02  0.81848919145E+02  0.00000000000E+00 0. -1.
         -1    1    6    6    0  502 -0.97860592767E+02 -0.13325084669E+03  0.28162197835E+03  0.32656304514E+03  0.00000000000E+00 0.  1.
<mgrwt>
<rscale>  0 0.46133948E+03</rscale>
<asrwt>0</asrwt>
<pdfrwt beam="1">  1        1 0.18285442E+00 0.46133948E+03</pdfrwt>
<pdfrwt beam="2">  1       -2 0.57114755E-01 0.46133948E+03</pdfrwt>
<totfact> 0.29250344E+01</totfact>
</mgrwt>
</event>
<event>
12    3  0.2269558E-007  0.1271740E+04  0.7818608E-02  0.9052281E-01
          1   -1    0    0  501    0  0.00000000000E+00  0.00000000000E+00  0.38252770247E+04  0.38252770247E+04  0.00000000000E+00 0. -1.
         -2   -1    0    0    0  501 -0.00000000000E+00 -0.00000000000E+00 -0.58534608517E+03  0.58534608517E+03  0.00000000000E+00 0.  1.
        -24    2    1    2    0    0  0.12559441098E+04  0.13557376383E+03  0.55255524868E+03  0.13810788384E+04  0.79281792182E+02 0.  0.
    5000000    2    1    2    0    0 -0.12559441098E+04 -0.13557376383E+03  0.26873756909E+04  0.30295442716E+04  0.60031203295E+03 0.  0.
        -24    2    4    4    0    0 -0.27835953655E+03  0.85682952277E+01  0.12531627345E+04  0.12860099828E+04  0.76468225759E+02 0.  0.
         24    2    4    4    0    0 -0.97758457325E+03 -0.14414205905E+03  0.14342129564E+04  0.17435342887E+04  0.80600748158E+02 0.  0.
         11    1    5    5    0    0 -0.70587414503E+02 -0.31321572579E+02  0.33094073571E+03  0.33983142078E+03  0.00000000000E+00 0. -1.
        -12    1    5    5    0    0 -0.20777212205E+03  0.39889867807E+02  0.92222199875E+03  0.94617856203E+03  0.00000000000E+00 0.  1.
         11    1    3    3    0    0  0.76864991815E+03  0.90624717553E+02  0.29696402880E+03  0.82898924632E+03  0.00000000000E+00 0. -1.
        -12    1    3    3    0    0  0.48729419164E+03  0.44949046274E+02  0.25559121988E+03  0.55208959205E+03  0.00000000000E+00 0.  1.
          4    1    6    6  502    0 -0.64887014269E+03 -0.57509729291E+02  0.95311179483E+03  0.11544530846E+04  0.00000000000E+00 0. -1.
         -3    1    6    6    0  502 -0.32871443056E+03 -0.86632329764E+02  0.48110116161E+03  0.58908120418E+03  0.00000000000E+00 0.  1.
<mgrwt>
<rscale>  0 0.12717402E+04</rscale>
<asrwt>0</asrwt>
<pdfrwt beam="1">  1        1 0.58850414E+00 0.12717402E+04</pdfrwt>
<pdfrwt beam="2">  1       -2 0.90053246E-01 0.12717402E+04</pdfrwt>
<totfact> 0.12540250E-01</totfact>
</mgrwt>
</event>
<event>
12    3  0.2269558E-007  0.7746261E+03  0.7818608E-02  0.9597489E-01
          1   -1    0    0  501    0  0.00000000000E+00  0.00000000000E+00  0.72684586883E+03  0.72684586883E+03  0.00000000000E+00 0. -1.
         -2   -1    0    0    0  501 -0.00000000000E+00 -0.00000000000E+00 -0.95557058507E+03  0.95557058507E+03  0.00000000000E+00 0.  1.
        -24    2    1    2    0    0 -0.67670472328E+03  0.20091466579E+03  0.58301418654E+02  0.71252676048E+03  0.77455429373E+02 0.  0.
    5000000    2    1    2    0    0  0.67670472328E+03 -0.20091466579E+03 -0.28702613489E+03  0.96988969342E+03  0.60000502485E+03 0.  0.
        -24    2    4    4    0    0 -0.45785674983E+02 -0.27097328281E+02 -0.19378923138E+03  0.21669756340E+03  0.81073883301E+02 0.  0.
         24    2    4    4    0    0  0.72249039827E+03 -0.17381733750E+03 -0.93236903517E+02  0.75319213001E+03  0.80002638300E+02 0.  0.
         13    1    5    5    0    0  0.12198357375E+02 -0.33101235880E+02 -0.10233153725E+03  0.10824155975E+03  0.00000000000E+00 0. -1.
        -14    1    5    5    0    0 -0.57984032358E+02  0.60039075988E+01 -0.91457694122E+02  0.10845600366E+03  0.00000000000E+00 0.  1.
         13    1    3    3    0    0 -0.17732964714E+03  0.17843281222E+02  0.17823408055E+02  0.17911409860E+03  0.00000000000E+00 0. -1.
        -14    1    3    3    0    0 -0.49937507614E+03  0.18307138456E+03  0.40478010599E+02  0.53341266188E+03  0.00000000000E+00 0.  1.
          2    1    6    6  502    0  0.41283731290E+03 -0.13013383191E+03 -0.80002906319E+02  0.44019305554E+03  0.00000000000E+00 0. -1.
         -1    1    6    6    0  502  0.30965308537E+03 -0.43683505598E+02 -0.13233997198E+02  0.31299907448E+03  0.00000000000E+00 0.  1.
<mgrwt>
<rscale>  0 0.77462611E+03</rscale>
<asrwt>0</asrwt>
<pdfrwt beam="1">  1        1 0.11182244E+00 0.77462611E+03</pdfrwt>
<pdfrwt beam="2">  1       -2 0.14701086E+00 0.77462611E+03</pdfrwt>
<totfact> 0.72545442E+00</totfact>
</mgrwt>
</event>
<event>
12    3  0.2269558E-007  0.9746928E+03  0.7818608E-02  0.9336745E-01
          1   -1    0    0  501    0  0.00000000000E+00  0.00000000000E+00  0.24978377878E+04  0.24978377878E+04  0.00000000000E+00 0. -1.
         -2   -1    0    0    0  501 -0.00000000000E+00 -0.00000000000E+00 -0.42204186378E+03  0.42204186378E+03  0.00000000000E+00 0.  1.
        -24    2    1    2    0    0 -0.22309417473E+03  0.88124923528E+03  0.62695056743E+03  0.11072878580E+04  0.81536255254E+02 0.  0.
    5000000    2    1    2    0    0  0.22309417473E+03 -0.88124923528E+03  0.14488453566E+04  0.18125917936E+04  0.59997076387E+03 0.  0.
        -24    2    4    4    0    0  0.36958511810E+03 -0.57122567563E+03  0.11946073877E+04  0.13771596484E+04  0.81178533645E+02 0.  0.
         24    2    4    4    0    0 -0.14649094337E+03 -0.31002355964E+03  0.25423796891E+03  0.43543214526E+03  0.85965134040E+02 0.  0.
         13    1    3    3    0    0 -0.16904305733E+03  0.51399539421E+03  0.35549744092E+03  0.64741428081E+03  0.00000000000E+00 0. -1.
        -14    1    3    3    0    0 -0.54051117408E+02  0.36725384107E+03  0.27145312651E+03  0.45987357715E+03  0.00000000000E+00 0.  1.
         13    1    5    5    0    0  0.77410576129E+02 -0.18215639023E+03  0.37426150103E+03  0.42337338007E+03  0.00000000000E+00 0. -1.
        -14    1    5    5    0    0  0.29217454197E+03 -0.38906928540E+03  0.82034588667E+03  0.95378626830E+03  0.00000000000E+00 0.  1.
          2    1    6    6  502    0 -0.89189624969E+02 -0.26540210385E+03  0.21399747961E+03  0.35240316005E+03  0.00000000000E+00 0. -1.
         -1    1    6    6    0  502 -0.57301318398E+02 -0.44621455795E+02  0.40240489295E+02  0.83028985216E+02  0.00000000000E+00 0.  1.
<mgrwt>
<rscale>  0 0.97469284E+03</rscale>
<asrwt>0</asrwt>
<pdfrwt beam="1">  1        1 0.38428273E+00 0.97469284E+03</pdfrwt>
<pdfrwt beam="2">  1       -2 0.64929519E-01 0.97469284E+03</pdfrwt>
<totfact> 0.26625331E+00</totfact>
</mgrwt>
</event>
<event>
12    3  0.2269558E-007  0.1336136E+04  0.7818608E-02  0.9001390E-01
         -2   -1    0    0    0  501 -0.00000000000E+00  0.00000000000E+00  0.78372496831E+03  0.78372496831E+03  0.00000000000E+00 0.  1.
          1   -1    0    0  501    0  0.00000000000E+00 -0.00000000000E+00 -0.24220643782E+04  0.24220643782E+04  0.00000000000E+00 0. -1.
        -24    2    1    2    0    0  0.63402083696E+03 -0.11051040493E+04 -0.11414611532E+04  0.17124505992E+04  0.79473951602E+02 0.  0.
    5000000    2    1    2    0    0 -0.63402083696E+03  0.11051040493E+04 -0.49687825672E+03  0.14933387473E+04  0.59994602311E+03 0.  0.
        -24    2    4    4    0    0 -0.52728600644E+03  0.35825894846E+03 -0.15346825027E+03  0.66044012995E+03  0.79048432455E+02 0.  0.
         24    2    4    4    0    0 -0.10673483052E+03  0.74684510088E+03 -0.34341000645E+03  0.83289861736E+03  0.81361818491E+02 0.  0.
         13    1    3    3    0    0  0.39648121363E+03 -0.75422732277E+03 -0.78940098208E+03  0.11615550429E+04  0.00000000000E+00 0. -1.
        -14    1    3    3    0    0  0.23753962333E+03 -0.35087672656E+03 -0.35206017113E+03  0.55089555634E+03  0.00000000000E+00 0.  1.
         13    1    5    5    0    0 -0.45747741915E+03  0.33933554179E+03 -0.14385285827E+03  0.58747582400E+03  0.00000000000E+00 0. -1.
        -14    1    5    5    0    0 -0.69808587288E+02  0.18923406662E+02 -0.96153919960E+01  0.72964305945E+02  0.00000000000E+00 0.  1.
          4    1    6    6  502    0 -0.48909093134E+02  0.38756909243E+03 -0.13365622235E+03  0.41287514647E+03  0.00000000000E+00 0. -1.
         -3    1    6    6    0  502 -0.57825737390E+02  0.35927600845E+03 -0.20975378410E+03  0.42002347089E+03  0.00000000000E+00 0.  1.
<mgrwt>
<rscale>  0 0.13361362E+04</rscale>
<asrwt>0</asrwt>
<pdfrwt beam="1">  1        1 0.37262529E+00 0.13361362E+04</pdfrwt>
<pdfrwt beam="2">  1       -2 0.12057307E+00 0.13361362E+04</pdfrwt>
<totfact> 0.68347939E-01</totfact>
</mgrwt>
</event>
<event>
12    3  0.2269558E-007  0.6725205E+03  0.7818608E-02  0.9765415E-01
         -2   -1    0    0    0  501 -0.00000000000E+00  0.00000000000E+00  0.15882446070E+04  0.15882446070E+04  0.00000000000E+00 0.  1.
          1   -1    0    0  501    0  0.00000000000E+00 -0.00000000000E+00 -0.51396238951E+03  0.51396238951E+03  0.00000000000E+00 0. -1.
        -24    2    1    2    0    0  0.18487793128E+03  0.57103175006E+03 -0.14066632407E+03  0.62019269228E+03  0.67785335949E+02 0.  0.
    5000000    2    1    2    0    0 -0.18487793128E+03 -0.57103175006E+03  0.12149485415E+04  0.14820143042E+04  0.60000777517E+03 0.  0.
        -24    2    4    4    0    0 -0.22905275007E+03 -0.77454522024E+02  0.77043482095E+03  0.81137974391E+03  0.79390869772E+02 0.  0.
         24    2    4    4    0    0  0.44174818783E+02 -0.49357722804E+03  0.44451372058E+03  0.67063456030E+03  0.81168781126E+02 0.  0.
         11    1    5    5    0    0 -0.17039436205E+03 -0.49609173519E+02  0.43663355511E+03  0.47132172681E+03  0.00000000000E+00 0. -1.
        -12    1    5    5    0    0 -0.58658388013E+02 -0.27845348504E+02  0.33380126584E+03  0.34005801710E+03  0.00000000000E+00 0.  1.
         13    1    3    3    0    0  0.89683305395E+02  0.33093490129E+03 -0.11007391226E+03  0.36010730389E+03  0.00000000000E+00 0. -1.
        -14    1    3    3    0    0  0.95194625888E+02  0.24009684878E+03 -0.30592411807E+02  0.26008538838E+03  0.00000000000E+00 0.  1.
          4    1    6    6  502    0  0.35250613551E+02 -0.75587274711E+02  0.87186422887E+02  0.12065452412E+03  0.00000000000E+00 0. -1.
         -3    1    6    6    0  502  0.89242052320E+01 -0.41798995333E+03  0.35732729770E+03  0.54998003618E+03  0.00000000000E+00 0.  1.
<mgrwt>
<rscale>  0 0.67252047E+03</rscale>
<asrwt>0</asrwt>
<pdfrwt beam="1">  1        1 0.79071137E-01 0.67252047E+03</pdfrwt>
<pdfrwt beam="2">  1       -2 0.24434532E+00 0.67252047E+03</pdfrwt>
<totfact> 0.27192092E+00</totfact>
</mgrwt>
</event>
<event>
12    3  0.2269558E-007  0.4266929E+03  0.7818608E-02  0.1034910E+00
          1   -1    0    0  501    0  0.00000000000E+00  0.00000000000E+00  0.83893414797E+03  0.83893414797E+03  0.00000000000E+00 0. -1.
         -2   -1    0    0    0  501 -0.00000000000E+00 -0.00000000000E+00 -0.28282312551E+03  0.28282312551E+03  0.00000000000E+00 0.  1.
        -24    2    1    2    0    0 -0.21273283565E+03  0.20429444700E+03  0.14127452672E+03  0.33499035217E+03  0.72584872456E+02 0.  0.
    5000000    2    1    2    0    0  0.21273283565E+03 -0.20429444700E+03  0.41483649575E+03  0.78676692130E+03  0.59993448793E+03 0.  0.
        -24    2    4    4    0    0 -0.79024009707E+02  0.84832205752E+02 -0.60836418956E+02  0.15314194266E+03  0.79436059105E+02 0.  0.
         24    2    4    4    0    0  0.29175684536E+03 -0.28912665275E+03  0.47567291470E+03  0.63362497865E+03  0.80620181323E+02 0.  0.
         13    1    3    3    0    0 -0.70848143702E+02  0.84405857490E+02  0.90023915329E+02  0.14229586633E+03  0.00000000000E+00 0. -1.
        -14    1    3    3    0    0 -0.14188469195E+03  0.11988858951E+03  0.51250611388E+02  0.19269448584E+03  0.00000000000E+00 0.  1.
         13    1    5    5    0    0 -0.53000024379E+02  0.97566210584E+02 -0.53529847773E+02  0.12326237315E+03  0.00000000000E+00 0. -1.
        -14    1    5    5    0    0 -0.26023985328E+02 -0.12734004832E+02 -0.73065711832E+01  0.29879569507E+02  0.00000000000E+00 0.  1.
          4    1    6    6  502    0  0.23961468872E+03 -0.19145055381E+03  0.32805875739E+03  0.44910028046E+03  0.00000000000E+00 0. -1.
         -3    1    6    6    0  502  0.52142156642E+02 -0.97676098940E+02  0.14761415731E+03  0.18452469819E+03  0.00000000000E+00 0.  1.
<mgrwt>
<rscale>  0 0.42669292E+03</rscale>
<asrwt>0</asrwt>
<pdfrwt beam="1">  1        1 0.12906679E+00 0.42669292E+03</pdfrwt>
<pdfrwt beam="2">  1       -2 0.43511250E-01 0.42669292E+03</pdfrwt>
<totfact> 0.94118250E+01</totfact>
</mgrwt>
</event>
<event>
12    3  0.2269558E-007  0.5670607E+03  0.7818608E-02  0.9976204E-01
          1   -1    0    0  501    0  0.00000000000E+00  0.00000000000E+00  0.13036028293E+04  0.13036028293E+04  0.00000000000E+00 0. -1.
         -2   -1    0    0    0  501 -0.00000000000E+00 -0.00000000000E+00 -0.97400365289E+03  0.97400365289E+03  0.00000000000E+00 0.  1.
        -24    2    1    2    0    0  0.41781885969E+03  0.32272375413E+03  0.10649350845E+04  0.11914716701E+04  0.82430489022E+02 0.  0.
    5000000    2    1    2    0    0 -0.41781885969E+03 -0.32272375413E+03 -0.73533590813E+03  0.10861348120E+04  0.60020555737E+03 0.  0.
        -24    2    4    4    0    0 -0.44296700855E+03 -0.25437129050E+03 -0.80491202247E+03  0.95660507614E+03  0.79280411756E+02 0.  0.
         24    2    4    4    0    0  0.25148148862E+02 -0.68352463629E+02  0.69576114338E+02  0.12952973588E+03  0.81440948638E+02 0.  0.
         11    1    5    5    0    0 -0.23035010267E+03 -0.16326962930E+03 -0.49536367705E+03  0.57017831789E+03  0.00000000000E+00 0. -1.
        -12    1    5    5    0    0 -0.21261690589E+03 -0.91101661200E+02 -0.30954834542E+03  0.38642675825E+03  0.00000000000E+00 0.  1.
         13    1    3    3    0    0  0.14775706269E+03  0.14058992572E+03  0.48847755325E+03  0.52934676425E+03  0.00000000000E+00 0. -1.
        -14    1    3    3    0    0  0.27006179701E+03  0.18213382841E+03  0.57645753125E+03  0.66212490588E+03  0.00000000000E+00 0.  1.
          2    1    6    6  502    0 -0.69962099741E+01 -0.55840102500E+02  0.52273877468E+01  0.56518931199E+02  0.00000000000E+00 0. -1.
         -1    1    6    6    0  502  0.32144358836E+02 -0.12512361128E+02  0.64348726591E+02  0.73010804679E+02  0.00000000000E+00 0.  1.
<mgrwt>
<rscale>  0 0.56706066E+03</rscale>
<asrwt>0</asrwt>
<pdfrwt beam="1">  1        1 0.20055428E+00 0.56706066E+03</pdfrwt>
<pdfrwt beam="2">  1       -2 0.14984672E+00 0.56706066E+03</pdfrwt>
<totfact> 0.25270211E+00</totfact>
</mgrwt>
</event>
<event>
12    3  0.2269558E-007  0.6111028E+03  0.7818608E-02  0.9882635E-01
          1   -1    0    0  501    0  0.00000000000E+00  0.00000000000E+00  0.89008904550E+03  0.89008904550E+03  0.00000000000E+00 0. -1.
         -2   -1    0    0    0  501 -0.00000000000E+00 -0.00000000000E+00 -0.56928806088E+03  0.56928806088E+03  0.00000000000E+00 0.  1.
        -24    2    1    2    0    0  0.47459903585E+03 -0.30766188592E+03  0.27366388496E+03  0.63341586469E+03  0.80147706336E+02 0.  0.
    5000000    2    1    2    0    0 -0.47459903585E+03  0.30766188592E+03  0.47137099661E+02  0.82596124169E+03  0.60007498343E+03 0.  0.
        -24    2    4    4    0    0 -0.42447789605E+03  0.37332921867E+03 -0.15591251638E+03  0.59185588025E+03  0.80177805330E+02 0.  0.
         24    2    4    4    0    0 -0.50121139794E+02 -0.65667332752E+02  0.20304961604E+03  0.23410536145E+03  0.82169619933E+02 0.  0.
         11    1    5    5    0    0 -0.31280559053E+03  0.28540714724E+03 -0.15126202490E+03  0.44964961619E+03  0.00000000000E+00 0. -1.
        -12    1    5    5    0    0 -0.11167230553E+03  0.87922071434E+02 -0.46504914735E+01  0.14220626406E+03  0.00000000000E+00 0.  1.
         13    1    3    3    0    0  0.32711240520E+03 -0.22912781255E+03  0.15466187510E+03  0.42827838578E+03  0.00000000000E+00 0. -1.
        -14    1    3    3    0    0  0.14748663065E+03 -0.78534073366E+02  0.11900200986E+03  0.20513747890E+03  0.00000000000E+00 0.  1.
          2    1    6    6  502    0 -0.13974199702E+02 -0.47876377216E+02  0.34096532073E+02  0.60415223678E+02  0.00000000000E+00 0. -1.
         -1    1    6    6    0  502 -0.36146940093E+02 -0.17790955536E+02  0.16895308396E+03  0.17369013777E+03  0.00000000000E+00 0.  1.
<mgrwt>
<rscale>  0 0.61110280E+03</rscale>
<asrwt>0</asrwt>
<pdfrwt beam="1">  1        1 0.13693678E+00 0.61110280E+03</pdfrwt>
<pdfrwt beam="2">  1       -2 0.87582779E-01 0.61110280E+03</pdfrwt>
<totfact> 0.18986265E+01</totfact>
</mgrwt>
</event>
<event>
12    3  0.2269558E-007  0.1275895E+04  0.7818608E-02  0.9048902E-01
         -2   -1    0    0    0  501 -0.00000000000E+00  0.00000000000E+00  0.71523823380E+03  0.71523823380E+03  0.00000000000E+00 0.  1.
          1   -1    0    0  501    0  0.00000000000E+00 -0.00000000000E+00 -0.23906284566E+04  0.23906284566E+04  0.00000000000E+00 0. -1.
        -24    2    1    2    0    0  0.39340374363E+03 -0.11732154559E+04 -0.78469609504E+03  0.14674509993E+04  0.80395662485E+02 0.  0.
    5000000    2    1    2    0    0 -0.39340374363E+03  0.11732154559E+04 -0.89069412771E+03  0.16384156910E+04  0.59989077008E+03 0.  0.
        -24    2    4    4    0    0 -0.15073880456E+03  0.67636319328E+02  0.19034204947E+02  0.18401229509E+03  0.78748745365E+02 0.  0.
         24    2    4    4    0    0 -0.24266493907E+03  0.11055791365E+04 -0.90972833266E+03  0.14544033959E+04  0.80573562715E+02 0.  0.
         11    1    5    5    0    0 -0.10919954546E+03  0.81244304174E+02 -0.56416415543E+00  0.13610839787E+03  0.00000000000E+00 0. -1.
        -12    1    5    5    0    0 -0.41539259099E+02 -0.13607984845E+02  0.19598369103E+02  0.47903897227E+02  0.00000000000E+00 0.  1.
         11    1    3    3    0    0  0.36418833641E+03 -0.10110023090E+04 -0.66447923040E+03  0.12634442848E+04  0.00000000000E+00 0. -1.
        -12    1    3    3    0    0  0.29215407213E+02 -0.16221314685E+03 -0.12021686464E+03  0.20400671453E+03  0.00000000000E+00 0.  1.
          2    1    6    6  502    0 -0.13701852567E+03  0.71045272740E+03 -0.53710999268E+03  0.90111281119E+03  0.00000000000E+00 0. -1.
         -3    1    6    6    0  502 -0.10564641340E+03  0.39512640914E+03 -0.37261833998E+03  0.55329058473E+03  0.00000000000E+00 0.  1.
<mgrwt>
<rscale>  0 0.12758949E+04</rscale>
<asrwt>0</asrwt>
<pdfrwt beam="1">  1        1 0.36778900E+00 0.12758949E+04</pdfrwt>
<pdfrwt beam="2">  1       -2 0.11003665E+00 0.12758949E+04</pdfrwt>
<totfact> 0.90623807E-01</totfact>
</mgrwt>
</event>
<event>
12    3  0.2269558E-007  0.1553374E+04  0.7818608E-02  0.8849716E-01
          1   -1    0    0  501    0  0.00000000000E+00  0.00000000000E+00  0.34007521040E+04  0.34007521040E+04  0.00000000000E+00 0. -1.
         -2   -1    0    0    0  501 -0.00000000000E+00 -0.00000000000E+00 -0.73214812560E+03  0.73214812560E+03  0.00000000000E+00 0.  1.
        -24    2    1    2    0    0 -0.14668878538E+04 -0.36298402826E+03  0.14990129624E+04  0.21300476524E+04  0.80905869246E+02 0.  0.
    5000000    2    1    2    0    0  0.14668878538E+04  0.36298402826E+03  0.11695910160E+04  0.20028525772E+04  0.59996493300E+03 0.  0.
        -24    2    4    4    0    0  0.13710179636E+04  0.47021723279E+03  0.11152950193E+04  0.18305886800E+04  0.79858829586E+02 0.  0.
         24    2    4    4    0    0  0.95869890193E+02 -0.10723320453E+03  0.54295996686E+02  0.17226389719E+03  0.77696840485E+02 0.  0.
         11    1    5    5    0    0  0.51081614003E+03  0.20209239176E+03  0.38582537250E+03  0.67129403527E+03  0.00000000000E+00 0. -1.
        -12    1    5    5    0    0  0.86020182357E+03  0.26812484103E+03  0.72946964678E+03  0.11592946447E+04  0.00000000000E+00 0.  1.
         13    1    3    3    0    0 -0.91616510377E+03 -0.23715524222E+03  0.99139739992E+03  0.13705728404E+04  0.00000000000E+00 0. -1.
        -14    1    3    3    0    0 -0.55072275003E+03 -0.12582878604E+03  0.50761556248E+03  0.75947481200E+03  0.00000000000E+00 0.  1.
          2    1    6    6  502    0  0.26332089398E+01 -0.10233945132E+02 -0.16985445695E+02  0.20004319227E+02  0.00000000000E+00 0. -1.
         -1    1    6    6    0  502  0.93236681253E+02 -0.96999259395E+02  0.71281442381E+02  0.15225957797E+03  0.00000000000E+00 0.  1.
<mgrwt>
<rscale>  0 0.15533740E+04</rscale>
<asrwt>0</asrwt>
<pdfrwt beam="1">  1        1 0.52319262E+00 0.15533740E+04</pdfrwt>
<pdfrwt beam="2">  1       -2 0.11263817E+00 0.15533740E+04</pdfrwt>
<totfact> 0.15482064E-01</totfact>
</mgrwt>
</event>
<event>
12    3  0.2269558E-007  0.1120065E+04  0.7818608E-02  0.9185852E-01
         -2   -1    0    0    0  501 -0.00000000000E+00  0.00000000000E+00  0.14333114670E+04  0.14333114670E+04  0.00000000000E+00 0.  1.
          1   -1    0    0  501    0  0.00000000000E+00 -0.00000000000E+00 -0.95829519166E+03  0.95829519166E+03  0.00000000000E+00 0. -1.
        -24    2    1    2    0    0  0.50391696490E+03 -0.93418216446E+03  0.49082772270E+03  0.11722573864E+04  0.81528539184E+02 0.  0.
    5000000    2    1    2    0    0 -0.50391696490E+03  0.93418216446E+03 -0.15811447334E+02  0.12193492723E+04  0.59994501583E+03 0.  0.
        -24    2    4    4    0    0 -0.46506398455E+03  0.34730660265E+03 -0.16240079101E+03  0.60798033059E+03  0.79747598668E+02 0.  0.
         24    2    4    4    0    0 -0.38852980355E+02  0.58687556181E+03  0.14658934367E+03  0.61136894169E+03  0.79693588534E+02 0.  0.
         11    1    3    3    0    0  0.78489678108E+01 -0.15035565245E+02 -0.25001817559E+01  0.17144253461E+02  0.00000000000E+00 0. -1.
        -12    1    3    3    0    0  0.49606799709E+03 -0.91914659922E+03  0.49332790446E+03  0.11551131330E+04  0.00000000000E+00 0.  1.
         13    1    5    5    0    0 -0.16448083161E+03  0.16987487474E+03 -0.76467578818E+02  0.24851299291E+03  0.00000000000E+00 0. -1.
        -14    1    5    5    0    0 -0.30058315294E+03  0.17743172791E+03 -0.85933212188E+02  0.35946733768E+03  0.00000000000E+00 0.  1.
          2    1    6    6  502    0  0.20040007860E+02  0.28058984345E+03  0.79757237904E+02  0.29239267973E+03  0.00000000000E+00 0. -1.
         -1    1    6    6    0  502 -0.58892988215E+02  0.30628571836E+03  0.66832105767E+02  0.31897626196E+03  0.00000000000E+00 0.  1.
<mgrwt>
<rscale>  0 0.11200654E+04</rscale>
<asrwt>0</asrwt>
<pdfrwt beam="1">  1        1 0.14743003E+00 0.11200654E+04</pdfrwt>
<pdfrwt beam="2">  1       -2 0.22050946E+00 0.11200654E+04</pdfrwt>
<totfact> 0.13820150E+00</totfact>
</mgrwt>
</event>
<event>
12    3  0.2269558E-007  0.1108751E+04  0.7818608E-02  0.9196704E-01
         -2   -1    0    0    0  501 -0.00000000000E+00  0.00000000000E+00  0.51902651009E+03  0.51902651009E+03  0.00000000000E+00 0.  1.
          1   -1    0    0  501    0  0.00000000000E+00 -0.00000000000E+00 -0.27034413224E+04  0.27034413224E+04  0.00000000000E+00 0. -1.
        -24    2    1    2    0    0  0.28317586556E+03 -0.98817493443E+03 -0.15825615798E+04  0.18887222239E+04  0.78052631143E+02 0.  0.
    5000000    2    1    2    0    0 -0.28317586556E+03  0.98817493443E+03 -0.60185323247E+03  0.13337456086E+04  0.59997646879E+03 0.  0.
        -24    2    4    4    0    0 -0.43259422416E+03  0.46056301935E+03 -0.31233781374E+03  0.70934707381E+03  0.79764049915E+02 0.  0.
         24    2    4    4    0    0  0.14941835860E+03  0.52761191508E+03 -0.28951541873E+03  0.62439853477E+03  0.73172219601E+02 0.  0.
         11    1    5    5    0    0 -0.14746124139E+03  0.19560198246E+03 -0.15263350771E+03  0.28862075624E+03  0.00000000000E+00 0. -1.
        -12    1    5    5    0    0 -0.28513298277E+03  0.26496103689E+03 -0.15970430603E+03  0.42072631757E+03  0.00000000000E+00 0.  1.
         13    1    3    3    0    0  0.17648488609E+03 -0.49545150928E+03 -0.84564175890E+03  0.99585596221E+03  0.00000000000E+00 0. -1.
        -14    1    3    3    0    0  0.10669097947E+03 -0.49272342515E+03 -0.73691982093E+03  0.89286626169E+03  0.00000000000E+00 0.  1.
          4    1    6    6  502    0 -0.49769693239E+00  0.10155372890E+03 -0.52377320365E+02  0.11426631720E+03  0.00000000000E+00 0. -1.
         -3    1    6    6    0  502  0.14991605553E+03  0.42605818617E+03 -0.23713809837E+03  0.51013221758E+03  0.00000000000E+00 0.  1.
<mgrwt>
<rscale>  0 0.11087514E+04</rscale>
<asrwt>0</asrwt>
<pdfrwt beam="1">  1        1 0.41591405E+00 0.11087514E+04</pdfrwt>
<pdfrwt beam="2">  1       -2 0.79850233E-01 0.11087514E+04</pdfrwt>
<totfact> 0.11928987E+00</totfact>
</mgrwt>
</event>
<event>
12    3  0.2269558E-007  0.1268994E+04  0.7818608E-02  0.9054521E-01
         -2   -1    0    0    0  501 -0.00000000000E+00  0.00000000000E+00  0.67061766215E+03  0.67061766215E+03  0.00000000000E+00 0.  1.
          1   -1    0    0  501    0  0.00000000000E+00 -0.00000000000E+00 -0.24285583326E+04  0.24285583326E+04  0.00000000000E+00 0. -1.
        -24    2    1    2    0    0  0.10460117323E+04  0.59268169258E+03 -0.74670401884E+03  0.14174592155E+04  0.78813723518E+02 0.  0.
    5000000    2    1    2    0    0 -0.10460117323E+04 -0.59268169258E+03 -0.10112366516E+04  0.16817167793E+04  0.60013300813E+03 0.  0.
        -24    2    4    4    0    0 -0.10069267623E+04 -0.67464644964E+03 -0.86033027430E+03  0.14884345224E+04  0.78865771105E+02 0.  0.
         24    2    4    4    0    0 -0.39084969964E+02  0.81964757066E+02 -0.15090637730E+03  0.19328225692E+03  0.79620599416E+02 0.  0.
         11    1    3    3    0    0  0.65663943238E+03  0.41448882710E+03 -0.47217578674E+03  0.90880487759E+03  0.00000000000E+00 0. -1.
        -12    1    3    3    0    0  0.38937229987E+03  0.17819286548E+03 -0.27452823210E+03  0.50865433787E+03  0.00000000000E+00 0.  1.
         11    1    5    5    0    0 -0.64093407075E+02 -0.25573621770E+02 -0.63155513334E+02  0.93544608746E+02  0.00000000000E+00 0. -1.
        -12    1    5    5    0    0 -0.94283335521E+03 -0.64907282787E+03 -0.79717476096E+03  0.13948899136E+04  0.00000000000E+00 0.  1.
          2    1    6    6  502    0 -0.26964009315E+02 -0.85450230800E+01 -0.25024557965E+02  0.37766436410E+02  0.00000000000E+00 0. -1.
         -1    1    6    6    0  502 -0.12120960649E+02  0.90509780146E+02 -0.12588181933E+03  0.15551582051E+03  0.00000000000E+00 0.  1.
<mgrwt>
<rscale>  0 0.12689942E+04</rscale>
<asrwt>0</asrwt>
<pdfrwt beam="1">  1        1 0.37362437E+00 0.12689942E+04</pdfrwt>
<pdfrwt beam="2">  1       -2 0.10317195E+00 0.12689942E+04</pdfrwt>
<totfact> 0.99861259E-01</totfact>
</mgrwt>
</event>
<event>
12    3  0.2269558E-007  0.8417344E+03  0.7818608E-02  0.9501498E-01
         -2   -1    0    0    0  501 -0.00000000000E+00  0.00000000000E+00  0.38510342815E+03  0.38510342815E+03  0.00000000000E+00 0.  1.
          1   -1    0    0  501    0  0.00000000000E+00 -0.00000000000E+00 -0.19248051938E+04  0.19248051938E+04  0.00000000000E+00 0. -1.
        -24    2    1    2    0    0  0.13109599761E+03  0.74154802379E+03 -0.73082491421E+03  0.10523903487E+04  0.79628881076E+02 0.  0.
    5000000    2    1    2    0    0 -0.13109599761E+03 -0.74154802379E+03 -0.80887685141E+03  0.12575182732E+04  0.59999234537E+03 0.  0.
        -24    2    4    4    0    0  0.20517882373E+03 -0.35495790700E+03 -0.21625149844E+03  0.47030234406E+03  0.79536902151E+02 0.  0.
         24    2    4    4    0    0 -0.33627482134E+03 -0.38659011679E+03 -0.59262535297E+03  0.78721592913E+03  0.77275068639E+02 0.  0.
         11    1    3    3    0    0  0.93989049085E+02  0.38260319379E+03 -0.42324210321E+03  0.57823267217E+03  0.00000000000E+00 0. -1.
        -12    1    3    3    0    0  0.37106948523E+02  0.35894483000E+03 -0.30758281100E+03  0.47415767655E+03  0.00000000000E+00 0.  1.
         13    1    5    5    0    0  0.10065131992E+03 -0.13870088175E+03 -0.51169958500E+02  0.17884906333E+03  0.00000000000E+00 0. -1.
        -14    1    5    5    0    0  0.10452750381E+03 -0.21625702525E+03 -0.16508153994E+03  0.29145328074E+03  0.00000000000E+00 0.  1.
          4    1    6    6  502    0 -0.28011605544E+03 -0.27711953744E+03 -0.47287575093E+03  0.61552556272E+03  0.00000000000E+00 0. -1.
         -3    1    6    6    0  502 -0.56158765902E+02 -0.10947057935E+03 -0.11974960205E+03  0.17169036642E+03  0.00000000000E+00 0.  1.
<mgrwt>
<rscale>  0 0.84173439E+03</rscale>
<asrwt>0</asrwt>
<pdfrwt beam="1">  1        1 0.29612388E+00 0.84173439E+03</pdfrwt>
<pdfrwt beam="2">  1       -2 0.59246681E-01 0.84173439E+03</pdfrwt>
<totfact> 0.80413918E+00</totfact>
</mgrwt>
</event>
<event>
12    3  0.2269558E-007  0.5577058E+03  0.7818608E-02  0.9997259E-01
          1   -1    0    0  501    0  0.00000000000E+00  0.00000000000E+00  0.90866473629E+03  0.90866473629E+03  0.00000000000E+00 0. -1.
         -2   -1    0    0    0  501 -0.00000000000E+00 -0.00000000000E+00 -0.37176239688E+03  0.37176239688E+03  0.00000000000E+00 0.  1.
        -24    2    1    2    0    0  0.17649397985E+03 -0.37968466423E+03  0.25334978291E+03  0.49600292410E+03  0.80760256566E+02 0.  0.
    5000000    2    1    2    0    0 -0.17649397985E+03  0.37968466423E+03  0.28355255650E+03  0.78442420907E+03  0.59967384328E+03 0.  0.
        -24    2    4    4    0    0 -0.34323275790E+03  0.39693855069E+03  0.13716140910E+03  0.54807943138E+03  0.78796394856E+02 0.  0.
         24    2    4    4    0    0  0.16673877805E+03 -0.17253886462E+02  0.14639114740E+03  0.23634477769E+03  0.79554818840E+02 0.  0.
         11    1    3    3    0    0  0.11495435484E+03 -0.29470630823E+03  0.22213727719E+03  0.38653755538E+03  0.00000000000E+00 0. -1.
        -12    1    3    3    0    0  0.61539625007E+02 -0.84978356000E+02  0.31212505729E+02  0.10946536872E+03  0.00000000000E+00 0.  1.
         13    1    5    5    0    0 -0.13982927830E+03  0.19357763800E+03  0.96646190850E+02  0.25761408193E+03  0.00000000000E+00 0. -1.
        -14    1    5    5    0    0 -0.20340347960E+03  0.20336091269E+03  0.40515218247E+02  0.29046534945E+03  0.00000000000E+00 0.  1.
          4    1    6    6  502    0  0.74190657239E+02 -0.47161291663E+01  0.16142311245E+02  0.76072792168E+02  0.00000000000E+00 0. -1.
         -3    1    6    6    0  502  0.92548120811E+02 -0.12537757296E+02  0.13024883615E+03  0.16027198552E+03  0.00000000000E+00 0.  1.
<mgrwt>
<rscale>  0 0.55770581E+03</rscale>
<asrwt>0</asrwt>
<pdfrwt beam="1">  1        1 0.13979457E+00 0.55770581E+03</pdfrwt>
<pdfrwt beam="2">  1       -2 0.57194215E-01 0.55770581E+03</pdfrwt>
<totfact> 0.46769961E+01</totfact>
</mgrwt>
</event>
<event>
12    3  0.2269558E-007  0.1329323E+04  0.7818608E-02  0.9006630E-01
         -2   -1    0    0    0  501 -0.00000000000E+00  0.00000000000E+00  0.14446277254E+04  0.14446277254E+04  0.00000000000E+00 0.  1.
          1   -1    0    0  501    0  0.00000000000E+00 -0.00000000000E+00 -0.13311413710E+04  0.13311413710E+04  0.00000000000E+00 0. -1.
        -24    2    1    2    0    0  0.11433023816E+04  0.55878199759E+03 -0.29698820658E+03  0.13101970288E+04  0.95061047094E+02 0.  0.
    5000000    2    1    2    0    0 -0.11433023816E+04 -0.55878199759E+03  0.41047456096E+03  0.14655720676E+04  0.60002871891E+03 0.  0.
        -24    2    4    4    0    0 -0.19558851425E+03  0.10922716349E+03  0.27456690318E+02  0.24116463834E+03  0.84976895626E+02 0.  0.
         24    2    4    4    0    0 -0.94771386739E+03 -0.66800916109E+03  0.38301787064E+03  0.12244074293E+04  0.89850152635E+02 0.  0.
         13    1    5    5    0    0 -0.17373888313E+03  0.10332121304E+03 -0.42785386265E+01  0.20218501049E+03  0.00000000000E+00 0. -1.
        -14    1    5    5    0    0 -0.21849631116E+02  0.59059504576E+01  0.31735228944E+02  0.38979627844E+02  0.00000000000E+00 0.  1.
         13    1    3    3    0    0  0.10780312029E+04  0.53088044648E+03 -0.30202570808E+03  0.12390338378E+04  0.00000000000E+00 0. -1.
        -14    1    3    3    0    0  0.65271178691E+02  0.27901551113E+02  0.50375015020E+01  0.71163190932E+02  0.00000000000E+00 0.  1.
          4    1    6    6  502    0 -0.80426930062E+03 -0.59380961245E+03  0.30620427755E+03  0.10455716252E+04  0.00000000000E+00 0. -1.
         -3    1    6    6    0  502 -0.14344456677E+03 -0.74199548638E+02  0.76813593088E+02  0.17883580412E+03  0.00000000000E+00 0.  1.
<mgrwt>
<rscale>  0 0.13293230E+04</rscale>
<asrwt>0</asrwt>
<pdfrwt beam="1">  1        1 0.20479098E+00 0.13293230E+04</pdfrwt>
<pdfrwt beam="2">  1       -2 0.22225042E+00 0.13293230E+04</pdfrwt>
<totfact> 0.69240015E-01</totfact>
</mgrwt>
</event>
<event>
12    3  0.2269558E-007  0.4938542E+03  0.7818608E-02  0.1015396E+00
         -2   -1    0    0    0  501 -0.00000000000E+00  0.00000000000E+00  0.94416194508E+03  0.94416194508E+03  0.00000000000E+00 0.  1.
          1   -1    0    0  501    0  0.00000000000E+00 -0.00000000000E+00 -0.38341939712E+03  0.38341939712E+03  0.00000000000E+00 0. -1.
        -24    2    1    2    0    0  0.37694139795E+03  0.21847058791E+03  0.32659698387E+03  0.54999941771E+03  0.77585786988E+02 0.  0.
    5000000    2    1    2    0    0 -0.37694139795E+03 -0.21847058791E+03  0.23414556409E+03  0.77758192449E+03  0.59999607402E+03 0.  0.
        -24    2    4    4    0    0  0.39762026705E+02 -0.90689876078E+02  0.30371386318E+03  0.32832033678E+03  0.75805411852E+02 0.  0.
         24    2    4    4    0    0 -0.41670342466E+03 -0.12778071184E+03 -0.69568299085E+02  0.44926158771E+03  0.83824647444E+02 0.  0.
         11    1    3    3    0    0  0.24834399645E+03  0.11099173418E+03  0.23220009388E+03  0.35764617882E+03  0.00000000000E+00 0. -1.
        -12    1    3    3    0    0  0.12859740151E+03  0.10747885374E+03  0.94396889990E+02  0.19235323890E+03  0.00000000000E+00 0.  1.
         13    1    5    5    0    0  0.32021037555E+02 -0.18381128108E+02  0.18845116711E+03  0.19203399465E+03  0.00000000000E+00 0. -1.
        -14    1    5    5    0    0  0.77409891491E+01 -0.72308747970E+02  0.11526269607E+03  0.13628634213E+03  0.00000000000E+00 0.  1.
          2    1    6    6  502    0 -0.82438607025E+02 -0.58724467883E+01  0.13881273883E+02  0.83805127076E+02  0.00000000000E+00 0. -1.
         -1    1    6    6    0  502 -0.33426481763E+03 -0.12190826505E+03 -0.83449572969E+02  0.36545646064E+03  0.00000000000E+00 0.  1.
<mgrwt>
<rscale>  0 0.49385420E+03</rscale>
<asrwt>0</asrwt>
<pdfrwt beam="1">  1        1 0.58987600E-01 0.49385420E+03</pdfrwt>
<pdfrwt beam="2">  1       -2 0.14525568E+00 0.49385420E+03</pdfrwt>
<totfact> 0.18906813E+01</totfact>
</mgrwt>
</event>
<event>
12    3  0.2269558E-007  0.4214903E+03  0.7818608E-02  0.1036582E+00
         -2   -1    0    0    0  501 -0.00000000000E+00  0.00000000000E+00  0.36690744656E+03  0.36690744656E+03  0.00000000000E+00 0.  1.
          1   -1    0    0  501    0  0.00000000000E+00 -0.00000000000E+00 -0.19760968265E+04  0.19760968265E+04  0.00000000000E+00 0. -1.
        -24    2    1    2    0    0  0.38628431832E+02  0.27592346699E+03 -0.16548619368E+04  0.16802631193E+04  0.84203353223E+02 0.  0.
    5000000    2    1    2    0    0 -0.38628431832E+02 -0.27592346699E+03  0.45672556809E+02  0.66274115386E+03  0.59959481251E+03 0.  0.
        -24    2    4    4    0    0 -0.25617022913E+02  0.12930263487E+03  0.17282527104E+03  0.23040745298E+03  0.76443553225E+02 0.  0.
         24    2    4    4    0    0 -0.13011408919E+02 -0.40522610185E+03 -0.12715271424E+03  0.43233370088E+03  0.79794271679E+02 0.  0.
         13    1    3    3    0    0  0.19069292609E+02  0.37532497926E+02 -0.44476040997E+03  0.44674841757E+03  0.00000000000E+00 0. -1.
        -14    1    3    3    0    0  0.19559139224E+02  0.23839096906E+03 -0.12101015268E+04  0.12335147017E+04  0.00000000000E+00 0.  1.
         13    1    5    5    0    0 -0.47539019123E+02  0.46876564846E+02  0.68487587708E+02  0.95644761179E+02  0.00000000000E+00 0. -1.
        -14    1    5    5    0    0  0.21921996209E+02  0.82426070020E+02  0.10433768334E+03  0.13476269180E+03  0.00000000000E+00 0.  1.
          2    1    6    6  502    0  0.30876907197E-01 -0.38813818121E+03 -0.10640772713E+03  0.40245975334E+03  0.00000000000E+00 0. -1.
         -1    1    6    6    0  502 -0.13042285826E+02 -0.17087920649E+02 -0.20744987110E+02  0.29873947545E+02  0.00000000000E+00 0.  1.
<mgrwt>
<rscale>  0 0.42149033E+03</rscale>
<asrwt>0</asrwt>
<pdfrwt beam="1">  1        1 0.30401490E+00 0.42149033E+03</pdfrwt>
<pdfrwt beam="2">  1       -2 0.56447298E-01 0.42149033E+03</pdfrwt>
<totfact> 0.88984555E+00</totfact>
</mgrwt>
</event>
<event>
12    3  0.2269558E-007  0.8824465E+03  0.7818608E-02  0.9447794E-01
         -2   -1    0    0    0  501 -0.00000000000E+00  0.00000000000E+00  0.19454864684E+04  0.19454864684E+04  0.00000000000E+00 0.  1.
          1   -1    0    0  501    0  0.00000000000E+00 -0.00000000000E+00 -0.66399148654E+03  0.66399148654E+03  0.00000000000E+00 0. -1.
        -24    2    1    2    0    0  0.53712172497E+03  0.68696137068E+03 -0.83588177257E+02  0.88210282551E+03  0.10345404368E+03 0.  0.
    5000000    2    1    2    0    0 -0.53712172497E+03 -0.68696137068E+03  0.13650831591E+04  0.17273751294E+04  0.59996427742E+03 0.  0.
        -24    2    4    4    0    0 -0.36015977861E+03 -0.46278201003E+03  0.39168541357E+03  0.70964136968E+03  0.79316804194E+02 0.  0.
         24    2    4    4    0    0 -0.17696194637E+03 -0.22417936065E+03  0.97339774551E+03  0.10177337597E+04  0.81895778124E+02 0.  0.
         11    1    3    3    0    0  0.44319056890E+03  0.50624240755E+03 -0.86800633578E+02  0.67840519275E+03  0.00000000000E+00 0. -1.
        -12    1    3    3    0    0  0.93931156072E+02  0.18071896313E+03  0.32124563215E+01  0.20369763276E+03  0.00000000000E+00 0.  1.
         13    1    5    5    0    0 -0.20476458927E+01 -0.29635084326E+02  0.21346393353E+02  0.36580043547E+02  0.00000000000E+00 0. -1.
        -14    1    5    5    0    0 -0.35811213271E+03 -0.43314692571E+03  0.37033902021E+03  0.67306132614E+03  0.00000000000E+00 0.  1.
          2    1    6    6  502    0  0.77367288817E+01 -0.19489460161E+02  0.84413508109E+02  0.86978942178E+02  0.00000000000E+00 0. -1.
         -1    1    6    6    0  502 -0.18469867525E+03 -0.20468990049E+03  0.88898423740E+03  0.93075481753E+03  0.00000000000E+00 0.  1.
<mgrwt>
<rscale>  0 0.88244646E+03</rscale>
<asrwt>0</asrwt>
<pdfrwt beam="1">  1        1 0.10215254E+00 0.88244646E+03</pdfrwt>
<pdfrwt beam="2">  1       -2 0.29930561E+00 0.88244646E+03</pdfrwt>
<totfact> 0.85126664E-01</totfact>
</mgrwt>
</event>
<event>
12    3  0.2269558E-007  0.1102106E+04  0.7818608E-02  0.9203141E-01
         -2   -1    0    0    0  501 -0.00000000000E+00  0.00000000000E+00  0.15829590525E+04  0.15829590525E+04  0.00000000000E+00 0.  1.
          1   -1    0    0  501    0  0.00000000000E+00 -0.00000000000E+00 -0.88401922788E+03  0.88401922788E+03  0.00000000000E+00 0. -1.
        -24    2    1    2    0    0 -0.78422389407E+02 -0.10278362086E+04  0.74340901860E+03  0.12734396253E+04  0.79963539316E+02 0.  0.
    5000000    2    1    2    0    0  0.78422389407E+02  0.10278362086E+04 -0.44469193950E+02  0.11935386551E+04  0.59996638997E+03 0.  0.
        -24    2    4    4    0    0 -0.21577791782E+03  0.63007480813E+03  0.84094318424E+02  0.67605400258E+03  0.80142288221E+02 0.  0.
         24    2    4    4    0    0  0.29420030722E+03  0.39776140045E+03 -0.12856351237E+03  0.51748465248E+03  0.80584343259E+02 0.  0.
         11    1    5    5    0    0 -0.79293178718E+02  0.34497437505E+03  0.28491790228E+02  0.35511478390E+03  0.00000000000E+00 0. -1.
        -12    1    5    5    0    0 -0.13648473910E+03  0.28510043308E+03  0.55602528196E+02  0.32093921869E+03  0.00000000000E+00 0.  1.
         13    1    3    3    0    0  0.77594784045E+01 -0.32229491582E+03  0.25459648157E+03  0.41079628856E+03  0.00000000000E+00 0. -1.
        -14    1    3    3    0    0 -0.86181867811E+02 -0.70554129276E+03  0.48881253703E+03  0.86264333678E+03  0.00000000000E+00 0.  1.
          4    1    6    6  502    0  0.55088930525E+02  0.13448529457E+03 -0.45131246641E+02  0.15217724582E+03  0.00000000000E+00 0. -1.
         -3    1    6    6    0  502  0.23911137670E+03  0.26327610588E+03 -0.83432265734E+02  0.36530740666E+03  0.00000000000E+00 0.  1.
<mgrwt>
<rscale>  0 0.11021064E+04</rscale>
<asrwt>0</asrwt>
<pdfrwt beam="1">  1        1 0.13600296E+00 0.11021064E+04</pdfrwt>
<pdfrwt beam="2">  1       -2 0.24353216E+00 0.11021064E+04</pdfrwt>
<totfact> 0.11446979E+00</totfact>
</mgrwt>
</event>
<event>
12    3  0.2269558E-007  0.6269272E+03  0.7818608E-02  0.9851064E-01
          1   -1    0    0  501    0  0.00000000000E+00  0.00000000000E+00  0.18801852658E+03  0.18801852658E+03  0.00000000000E+00 0. -1.
         -2   -1    0    0    0  501 -0.00000000000E+00 -0.00000000000E+00 -0.28189403077E+04  0.28189403077E+04  0.00000000000E+00 0.  1.
        -24    2    1    2    0    0 -0.12894220146E+03  0.52716279882E+03 -0.56161482124E+03  0.78510937179E+03  0.80366724819E+02 0.  0.
    5000000    2    1    2    0    0  0.12894220146E+03 -0.52716279882E+03 -0.20693069598E+04  0.22218494625E+04  0.60004752478E+03 0.  0.
        -24    2    4    4    0    0 -0.38259879280E+02  0.59540882217E+02 -0.84269710336E+03  0.84968099529E+03  0.82525454991E+02 0.  0.
         24    2    4    4    0    0  0.16720208074E+03 -0.58670368104E+03 -0.12266098565E+04  0.13721684672E+04  0.78082117870E+02 0.  0.
         13    1    3    3    0    0 -0.10412826729E+02  0.20091219105E+03 -0.19313691834E+03  0.27888349664E+03  0.00000000000E+00 0. -1.
        -14    1    3    3    0    0 -0.11852937473E+03  0.32625060778E+03 -0.36847790290E+03  0.50622587515E+03  0.00000000000E+00 0.  1.
         13    1    5    5    0    0 -0.35877427736E+02  0.52576165548E+01 -0.59455177017E+03  0.59565647799E+03  0.00000000000E+00 0. -1.
        -14    1    5    5    0    0 -0.23824515444E+01  0.54283265662E+02 -0.24814533319E+03  0.25402451730E+03  0.00000000000E+00 0.  1.
          2    1    6    6  502    0  0.16163821823E+03 -0.45008187416E+03 -0.96291834581E+03  0.10751336418E+04  0.00000000000E+00 0. -1.
         -1    1    6    6    0  502  0.55638625123E+01 -0.13662180688E+03 -0.26369151066E+03  0.29703482536E+03  0.00000000000E+00 0.  1.
<mgrwt>
<rscale>  0 0.62692717E+03</rscale>
<asrwt>0</asrwt>
<pdfrwt beam="1">  1        1 0.28925927E-01 0.62692717E+03</pdfrwt>
<pdfrwt beam="2">  1       -2 0.43368313E+00 0.62692717E+03</pdfrwt>
<totfact> 0.68401833E-01</totfact>
</mgrwt>
</event>
<event>
12    3  0.2269558E-007  0.3022794E+03  0.7818608E-02  0.1084107E+00
         -2   -1    0    0    0  501 -0.00000000000E+00  0.00000000000E+00  0.11949153928E+03  0.11949153928E+03  0.00000000000E+00 0.  1.
          1   -1    0    0  501    0  0.00000000000E+00 -0.00000000000E+00 -0.17834562792E+04  0.17834562792E+04  0.00000000000E+00 0. -1.
        -24    2    1    2    0    0  0.24974830819E+03  0.47600407805E+02 -0.39169526401E+03  0.47364912689E+03  0.79235719802E+02 0.  0.
    5000000    2    1    2    0    0 -0.24974830819E+03 -0.47600407805E+02 -0.12722694759E+04  0.14292986916E+04  0.59965416213E+03 0.  0.
        -24    2    4    4    0    0 -0.12248451127E+03 -0.13370691323E+03 -0.12381682279E+04  0.12530710354E+04  0.65164906574E+02 0.  0.
         24    2    4    4    0    0 -0.12726379692E+03  0.86106505429E+02 -0.34101248080E+02  0.17622765624E+03  0.79264666900E+02 0.  0.
         11    1    5    5    0    0 -0.34752298902E+02 -0.47410499264E+02 -0.22887862212E+03  0.23630679504E+03  0.00000000000E+00 0. -1.
        -12    1    5    5    0    0 -0.87732212368E+02 -0.86296413970E+02 -0.10092896057E+04  0.10167642403E+04  0.00000000000E+00 0.  1.
         13    1    3    3    0    0  0.66986071331E+02  0.45815295654E+02 -0.15097755125E+03  0.17140710619E+03  0.00000000000E+00 0. -1.
        -14    1    3    3    0    0  0.18276223686E+03  0.17851121511E+01 -0.24071771275E+03  0.30224202071E+03  0.00000000000E+00 0.  1.
          2    1    6    6  502    0 -0.68678172301E+02  0.22400080809E+02 -0.50497658209E+02  0.88138915670E+02  0.00000000000E+00 0. -1.
         -1    1    6    6    0  502 -0.58585624624E+02  0.63706424620E+02  0.16396410129E+02  0.88088740572E+02  0.00000000000E+00 0.  1.
<mgrwt>
<rscale>  0 0.30227936E+03</rscale>
<asrwt>0</asrwt>
<pdfrwt beam="1">  1        1 0.27437790E+00 0.30227936E+03</pdfrwt>
<pdfrwt beam="2">  1       -2 0.18383313E-01 0.30227936E+03</pdfrwt>
<totfact> 0.99457684E+01</totfact>
</mgrwt>
</event>
<event>
12    3  0.2269558E-007  0.6104723E+03  0.7818608E-02  0.9883914E-01
         -2   -1    0    0    0  501 -0.00000000000E+00  0.00000000000E+00  0.11415739187E+04  0.11415739187E+04  0.00000000000E+00 0.  1.
          3   -1    0    0  501    0  0.00000000000E+00 -0.00000000000E+00 -0.36548645201E+03  0.36548645201E+03  0.00000000000E+00 0. -1.
        -24    2    1    2    0    0  0.46362362155E+03  0.16636656561E+03  0.40636263747E+03  0.64726171252E+03  0.10579430403E+03 0.  0.
    5000000    2    1    2    0    0 -0.46362362155E+03 -0.16636656561E+03  0.36972482918E+03  0.85979865814E+03  0.59994381956E+03 0.  0.
        -24    2    4    4    0    0  0.12039313235E+03 -0.24030168118E+02  0.16301976384E+03  0.21912146108E+03  0.79792330517E+02 0.  0.
         24    2    4    4    0    0 -0.58401675389E+03 -0.14233639749E+03  0.20670506534E+03  0.64067719706E+03  0.80031668225E+02 0.  0.
         11    1    3    3    0    0  0.16360277458E+03  0.77810660994E+02  0.89739816993E+02  0.20217220770E+03  0.00000000000E+00 0. -1.
        -12    1    3    3    0    0  0.30002084697E+03  0.88555904612E+02  0.31662282047E+03  0.44508950482E+03  0.00000000000E+00 0.  1.
         13    1    5    5    0    0  0.82034106100E+02 -0.10155132435E+02  0.44710289314E+02  0.93977291134E+02  0.00000000000E+00 0. -1.
        -14    1    5    5    0    0  0.38359026246E+02 -0.13875035683E+02  0.11830947453E+03  0.12514416995E+03  0.00000000000E+00 0.  1.
          4    1    6    6  502    0 -0.51744554115E+03 -0.10795666662E+03  0.15952225983E+03  0.55213393421E+03  0.00000000000E+00 0. -1.
         -3    1    6    6    0  502 -0.66571212738E+02 -0.34379730864E+02  0.47182805510E+02  0.88543262847E+02  0.00000000000E+00 0.  1.
<mgrwt>
<rscale>  0 0.61047234E+03</rscale>
<asrwt>0</asrwt>
<pdfrwt beam="1">  1        3 0.56228685E-01 0.61047234E+03</pdfrwt>
<pdfrwt beam="2">  1       -2 0.17562675E+00 0.61047234E+03</pdfrwt>
<totfact> 0.25759597E+00</totfact>
</mgrwt>
</event>
<event>
12    3  0.2269558E-007  0.6555406E+03  0.7818608E-02  0.9796438E-01
         -2   -1    0    0    0  501 -0.00000000000E+00  0.00000000000E+00  0.75072147704E+03  0.75072147704E+03  0.00000000000E+00 0.  1.
          1   -1    0    0  501    0  0.00000000000E+00 -0.00000000000E+00 -0.90772866108E+03  0.90772866108E+03  0.00000000000E+00 0. -1.
        -24    2    1    2    0    0 -0.54325314540E+03 -0.35313938363E+03 -0.36979364466E+03  0.75022760495E+03  0.79137319504E+02 0.  0.
    5000000    2    1    2    0    0  0.54325314540E+03  0.35313938363E+03  0.21278646062E+03  0.90822253316E+03  0.59979887268E+03 0.  0.
        -24    2    4    4    0    0  0.18443580784E+03  0.11761933899E+03  0.37523517497E+03  0.44196831232E+03  0.81753754906E+02 0.  0.
         24    2    4    4    0    0  0.35881733756E+03  0.23552004465E+03 -0.16244871435E+03  0.46625422085E+03  0.82364072892E+02 0.  0.
         13    1    3    3    0    0 -0.20439897749E+03 -0.17528940219E+03 -0.17108349981E+03  0.31902175541E+03  0.00000000000E+00 0. -1.
        -14    1    3    3    0    0 -0.33885416791E+03 -0.17784998144E+03 -0.19871014485E+03  0.43120584953E+03  0.00000000000E+00 0.  1.
         13    1    5    5    0    0  0.12524038589E+03  0.10508429836E+03  0.21088796980E+03  0.26683627906E+03  0.00000000000E+00 0. -1.
        -14    1    5    5    0    0  0.59195421955E+02  0.12535040622E+02  0.16434720517E+03  0.17513203325E+03  0.00000000000E+00 0.  1.
          4    1    6    6  502    0  0.40343910959E+02  0.57603118984E+02 -0.42832579937E+02  0.82343065113E+02  0.00000000000E+00 0. -1.
         -3    1    6    6    0  502  0.31847342660E+03  0.17791692566E+03 -0.11961613441E+03  0.38391115573E+03  0.00000000000E+00 0.  1.
<mgrwt>
<rscale>  0 0.65554062E+03</rscale>
<asrwt>0</asrwt>
<pdfrwt beam="1">  1        1 0.13965056E+00 0.65554062E+03</pdfrwt>
<pdfrwt beam="2">  1       -2 0.11549561E+00 0.65554062E+03</pdfrwt>
<totfact> 0.94939163E+00</totfact>
</mgrwt>
</event>
<event>
12    3  0.2269558E-007  0.1245903E+04  0.7818608E-02  0.9073600E-01
          1   -1    0    0  501    0  0.00000000000E+00  0.00000000000E+00  0.57464069454E+03  0.57464069454E+03  0.00000000000E+00 0. -1.
         -2   -1    0    0    0  501 -0.00000000000E+00 -0.00000000000E+00 -0.31986111991E+04  0.31986111991E+04  0.00000000000E+00 0.  1.
        -24    2    1    2    0    0 -0.65289497271E+03 -0.98318716611E+03 -0.53022984170E+03  0.12958683120E+04  0.72125916991E+02 0.  0.
    5000000    2    1    2    0    0  0.65289497271E+03  0.98318716611E+03 -0.20937406629E+04  0.24773835817E+04  0.60062517304E+03 0.  0.
        -24    2    4    4    0    0  0.73403062532E+03  0.73760316545E+03 -0.15233001387E+04  0.18465350888E+04  0.79932052004E+02 0.  0.
         24    2    4    4    0    0 -0.81135652614E+02  0.24558400066E+03 -0.57044052414E+03  0.63084849289E+03  0.75318881383E+02 0.  0.
         13    1    3    3    0    0 -0.42037890285E+03 -0.65438897898E+03 -0.31389776156E+03  0.83873426214E+03  0.00000000000E+00 0. -1.
        -14    1    3    3    0    0 -0.23251606985E+03 -0.32879818714E+03 -0.21633208014E+03  0.45713404982E+03  0.00000000000E+00 0.  1.
         13    1    5    5    0    0  0.19914717960E+03  0.23870088166E+03 -0.41192157941E+03  0.51605919974E+03  0.00000000000E+00 0. -1.
        -14    1    5    5    0    0  0.53488344572E+03  0.49890228379E+03 -0.11113785593E+04  0.13304758891E+04  0.00000000000E+00 0.  1.
          4    1    6    6  502    0 -0.36415206961E+02  0.20629876283E+03 -0.45751317017E+03  0.50319335024E+03  0.00000000000E+00 0. -1.
         -3    1    6    6    0  502 -0.44720445653E+02  0.39285237834E+02 -0.11292735396E+03  0.12765514265E+03  0.00000000000E+00 0.  1.
<mgrwt>
<rscale>  0 0.12459029E+04</rscale>
<asrwt>0</asrwt>
<pdfrwt beam="1">  1        1 0.88406260E-01 0.12459029E+04</pdfrwt>
<pdfrwt beam="2">  1       -2 0.49209403E+00 0.12459029E+04</pdfrwt>
<totfact> 0.57926593E-02</totfact>
</mgrwt>
</event>
<event>
12    3  0.2269558E-007  0.3854250E+03  0.7818608E-02  0.1048947E+00
          1   -1    0    0  501    0  0.00000000000E+00  0.00000000000E+00  0.31162635891E+03  0.31162635891E+03  0.00000000000E+00 0. -1.
         -2   -1    0    0    0  501 -0.00000000000E+00 -0.00000000000E+00 -0.86232639391E+03  0.86232639391E+03  0.00000000000E+00 0.  1.
        -24    2    1    2    0    0 -0.11794226172E+03 -0.26801179429E+03  0.70262285917E+01  0.30417621738E+03  0.82055495577E+02 0.  0.
    5000000    2    1    2    0    0  0.11794226172E+03  0.26801179429E+03 -0.55772626360E+03  0.86977653544E+03  0.59975989989E+03 0.  0.
        -24    2    4    4    0    0  0.16446731605E+03  0.32562978939E+03 -0.83243525817E+02  0.38304463849E+03  0.81911248902E+02 0.  0.
         24    2    4    4    0    0 -0.46525054334E+02 -0.57617995096E+02 -0.47448273778E+03  0.48673189695E+03  0.79307357913E+02 0.  0.
         11    1    5    5    0    0  0.10330050653E+03  0.16921809335E+03 -0.64178871554E+01  0.19836064893E+03  0.00000000000E+00 0. -1.
        -12    1    5    5    0    0  0.61166809519E+02  0.15641169604E+03 -0.76825638661E+02  0.18468398956E+03  0.00000000000E+00 0.  1.
         11    1    3    3    0    0 -0.35775313158E+02 -0.18063827613E+03  0.53651871444E+01  0.18422498491E+03  0.00000000000E+00 0. -1.
        -12    1    3    3    0    0 -0.82166948559E+02 -0.87373518168E+02  0.16610414474E+01  0.11995123247E+03  0.00000000000E+00 0.  1.
          4    1    6    6  502    0 -0.52560020146E+02 -0.11185473423E+02 -0.16000893179E+03  0.16879137652E+03  0.00000000000E+00 0. -1.
         -3    1    6    6    0  502  0.60349658125E+01 -0.46432521673E+02 -0.31447380599E+03  0.31794052043E+03  0.00000000000E+00 0.  1.
<mgrwt>
<rscale>  0 0.38542495E+03</rscale>
<asrwt>0</asrwt>
<pdfrwt beam="1">  1        1 0.47942518E-01 0.38542495E+03</pdfrwt>
<pdfrwt beam="2">  1       -2 0.13266560E+00 0.38542495E+03</pdfrwt>
<totfact> 0.31590704E+01</totfact>
</mgrwt>
</event>
<event>
12    3  0.2269558E-007  0.2968988E+03  0.7818608E-02  0.1086801E+00
          1   -1    0    0  501    0  0.00000000000E+00  0.00000000000E+00  0.59681183912E+03  0.59681183912E+03  0.00000000000E+00 0. -1.
         -2   -1    0    0    0  501 -0.00000000000E+00 -0.00000000000E+00 -0.66526282826E+03  0.66526282826E+03  0.00000000000E+00 0.  1.
        -24    2    1    2    0    0 -0.26182609030E+03 -0.57084993905E+02 -0.42914082636E+03  0.51251526889E+03  0.81844082928E+02 0.  0.
    5000000    2    1    2    0    0  0.26182609030E+03  0.57084993905E+02  0.36068983722E+03  0.74955939849E+03  0.59994210979E+03 0.  0.
        -24    2    4    4    0    0  0.10810429893E+03  0.96051952425E+02 -0.14109195193E+03  0.21729260554E+03  0.79978875415E+02 0.  0.
         24    2    4    4    0    0  0.15372179138E+03 -0.38966958520E+02  0.50178178914E+03  0.53226679295E+03  0.79838348939E+02 0.  0.
         13    1    5    5    0    0  0.77272061484E+02  0.10454139569E+03 -0.12888989666E+03  0.18306414274E+03  0.00000000000E+00 0. -1.
        -14    1    5    5    0    0  0.30832237442E+02 -0.84894432609E+01 -0.12202055268E+02  0.34228462795E+02  0.00000000000E+00 0.  1.
         13    1    3    3    0    0 -0.21328537696E+03 -0.50696887120E+02 -0.28042713920E+03  0.35594972508E+03  0.00000000000E+00 0. -1.
        -14    1    3    3    0    0 -0.48540713345E+02 -0.63881067853E+01 -0.14871368716E+03  0.15656554381E+03  0.00000000000E+00 0.  1.
          4    1    6    6  502    0  0.55494882342E+02  0.55809862563E+01  0.28180215220E+03  0.28726865885E+03  0.00000000000E+00 0. -1.
         -3    1    6    6    0  502  0.98226909034E+02 -0.44547944776E+02  0.21997963695E+03  0.24499813410E+03  0.00000000000E+00 0.  1.
<mgrwt>
<rscale>  0 0.29689881E+03</rscale>
<asrwt>0</asrwt>
<pdfrwt beam="1">  1        1 0.91817207E-01 0.29689881E+03</pdfrwt>
<pdfrwt beam="2">  1       -2 0.10234813E+00 0.29689881E+03</pdfrwt>
<totfact> 0.25531687E+01</totfact>
</mgrwt>
</event>
<event>
12    3  0.2269558E-007  0.1665454E+04  0.7818608E-02  0.8781316E-01
         -2   -1    0    0    0  501 -0.00000000000E+00  0.00000000000E+00  0.37016877248E+04  0.37016877248E+04  0.00000000000E+00 0.  1.
          1   -1    0    0  501    0  0.00000000000E+00 -0.00000000000E+00 -0.12891175804E+04  0.12891175804E+04  0.00000000000E+00 0. -1.
        -24    2    1    2    0    0  0.12284351730E+04 -0.10945564728E+04 -0.38386878173E+03  0.16912457606E+04  0.76486174014E+02 0.  0.
    5000000    2    1    2    0    0 -0.12284351730E+04  0.10945564728E+04  0.27964389261E+04  0.32995595446E+04  0.59992972441E+03 0.  0.
        -24    2    4    4    0    0 -0.12052897013E+04  0.10079472975E+04  0.22861035217E+04  0.27750758135E+04  0.78073299699E+02 0.  0.
         24    2    4    4    0    0 -0.23145471656E+02  0.86609175334E+02  0.51033540440E+03  0.52448373105E+03  0.81265595694E+02 0.  0.
         11    1    3    3    0    0  0.87876529902E+03 -0.82826561573E+03 -0.28022928881E+03  0.12396696476E+04  0.00000000000E+00 0. -1.
        -12    1    3    3    0    0  0.34966987395E+03 -0.26629085711E+03 -0.10363949292E+03  0.45157611298E+03  0.00000000000E+00 0.  1.
         13    1    5    5    0    0 -0.81999961819E+03  0.63786094548E+03  0.15023105738E+04  0.18265275852E+04  0.00000000000E+00 0. -1.
        -14    1    5    5    0    0 -0.38529008312E+03  0.37008635202E+03  0.78379294797E+03  0.94854822829E+03  0.00000000000E+00 0.  1.
          2    1    6    6  502    0  0.22128809105E+02  0.18196529681E+02  0.24725146999E+03  0.24890577996E+03  0.00000000000E+00 0. -1.
         -1    1    6    6    0  502 -0.45274280761E+02  0.68412645653E+02  0.26308393440E+03  0.27557795109E+03  0.00000000000E+00 0.  1.
<mgrwt>
<rscale>  0 0.16654536E+04</rscale>
<asrwt>0</asrwt>
<pdfrwt beam="1">  1        1 0.19832578E+00 0.16654536E+04</pdfrwt>
<pdfrwt beam="2">  1       -2 0.56949042E+00 0.16654536E+04</pdfrwt>
<totfact> 0.49935399E-03</totfact>
</mgrwt>
</event>
<event>
12    3  0.2269558E-007  0.6443617E+03  0.7818608E-02  0.9817417E-01
          1   -1    0    0  501    0  0.00000000000E+00  0.00000000000E+00  0.35402465208E+04  0.35402465208E+04  0.00000000000E+00 0. -1.
         -2   -1    0    0    0  501 -0.00000000000E+00 -0.00000000000E+00 -0.12094189033E+03  0.12094189033E+03  0.00000000000E+00 0.  1.
        -24    2    1    2    0    0 -0.12378418737E+03 -0.49714712777E+03  0.12737258450E+04  0.13751472230E+04  0.78578399443E+02 0.  0.
    5000000    2    1    2    0    0  0.12378418737E+03  0.49714712777E+03  0.21455787855E+04  0.22860411882E+04  0.59999849808E+03 0.  0.
        -24    2    4    4    0    0 -0.22926724731E+03  0.16233940086E+03  0.91817824980E+03  0.96316425314E+03  0.75607726795E+02 0.  0.
         24    2    4    4    0    0  0.35305143468E+03  0.33480772691E+03  0.12274005357E+04  0.13228769350E+04  0.82157049454E+02 0.  0.
         11    1    3    3    0    0 -0.12632098431E+03 -0.41151771582E+03  0.11057843311E+04  0.11866182235E+04  0.00000000000E+00 0. -1.
        -12    1    3    3    0    0  0.25367969409E+01 -0.85629411955E+02  0.16794151397E+03  0.18852899948E+03  0.00000000000E+00 0.  1.
         13    1    5    5    0    0 -0.17514973666E+03  0.13630077039E+03  0.80507503908E+03  0.83510547167E+03  0.00000000000E+00 0. -1.
        -14    1    5    5    0    0 -0.54117510651E+02  0.26038630468E+02  0.11310321073E+03  0.12805878147E+03  0.00000000000E+00 0.  1.
          2    1    6    6  502    0  0.13154970352E+03  0.16763879484E+03  0.46364197648E+03  0.51026656993E+03  0.00000000000E+00 0. -1.
         -1    1    6    6    0  502  0.22150173116E+03  0.16716893208E+03  0.76375855917E+03  0.81261036510E+03  0.00000000000E+00 0.  1.
<mgrwt>
<rscale>  0 0.64436169E+03</rscale>
<asrwt>0</asrwt>
<pdfrwt beam="1">  1        1 0.54465323E+00 0.64436169E+03</pdfrwt>
<pdfrwt beam="2">  1       -2 0.18606447E-01 0.64436169E+03</pdfrwt>
<totfact> 0.54436732E+00</totfact>
</mgrwt>
</event>
<event>
12    3  0.2269558E-007  0.8799570E+03  0.7818608E-02  0.9450989E-01
          1   -1    0    0  501    0  0.00000000000E+00  0.00000000000E+00  0.95484314528E+03  0.95484314528E+03  0.00000000000E+00 0. -1.
         -2   -1    0    0    0  501 -0.00000000000E+00 -0.00000000000E+00 -0.18785627243E+04  0.18785627243E+04  0.00000000000E+00 0.  1.
        -24    2    1    2    0    0  0.39020144749E+03 -0.76847517613E+03  0.54876831847E+03  0.10247854737E+04  0.78913457271E+02 0.  0.
    5000000    2    1    2    0    0 -0.39020144749E+03  0.76847517613E+03 -0.14724878975E+04  0.18086203959E+04  0.60006321524E+03 0.  0.
        -24    2    4    4    0    0 -0.34034229960E+03  0.45682867497E+03 -0.43809612940E+03  0.72425443502E+03  0.89949701966E+02 0.  0.
         24    2    4    4    0    0 -0.49859147894E+02  0.31164650116E+03 -0.10343917681E+04  0.10843659609E+04  0.79206886809E+02 0.  0.
         11    1    3    3    0    0  0.16507550376E+03 -0.30653262251E+03  0.26681332370E+03  0.43863597699E+03  0.00000000000E+00 0. -1.
        -12    1    3    3    0    0  0.22512594373E+03 -0.46194255362E+03  0.28195499477E+03  0.58614949668E+03  0.00000000000E+00 0.  1.
         13    1    5    5    0    0 -0.27808113174E+03  0.41636438289E+03 -0.39968284490E+03  0.64065184904E+03  0.00000000000E+00 0. -1.
        -14    1    5    5    0    0 -0.62261167862E+02  0.40464292077E+02 -0.38413284492E+02  0.83602585979E+02  0.00000000000E+00 0.  1.
          2    1    6    6  502    0 -0.38307282930E+02  0.61051660891E+02 -0.17956271883E+03  0.19348778570E+03  0.00000000000E+00 0. -1.
         -1    1    6    6    0  502 -0.11551864964E+02  0.25059484027E+03 -0.85482904926E+03  0.89087817518E+03  0.00000000000E+00 0.  1.
<mgrwt>
<rscale>  0 0.87995696E+03</rscale>
<asrwt>0</asrwt>
<pdfrwt beam="1">  1        1 0.14689895E+00 0.87995696E+03</pdfrwt>
<pdfrwt beam="2">  1       -2 0.28900965E+00 0.87995696E+03</pdfrwt>
<totfact> 0.54817486E-01</totfact>
</mgrwt>
</event>
<event>
12    3  0.2269558E-007  0.2960334E+03  0.7818608E-02  0.1087240E+00
         -2   -1    0    0    0  501 -0.00000000000E+00  0.00000000000E+00  0.31173248903E+03  0.31173248903E+03  0.00000000000E+00 0.  1.
          1   -1    0    0  501    0  0.00000000000E+00 -0.00000000000E+00 -0.64668046049E+03  0.64668046049E+03  0.00000000000E+00 0. -1.
        -24    2    1    2    0    0  0.13533125154E+03  0.13505276912E+03 -0.24806588897E+03  0.32275965186E+03  0.77995573655E+02 0.  0.
    5000000    2    1    2    0    0 -0.13533125154E+03 -0.13505276912E+03 -0.86882082490E+02  0.63565329766E+03  0.59996068244E+03 0.  0.
        -24    2    4    4    0    0 -0.23536367909E+03 -0.47834178393E+02  0.19150319542E+03  0.31723626275E+03  0.79254037689E+02 0.  0.
         24    2    4    4    0    0  0.10003242755E+03 -0.87218590732E+02 -0.27838527791E+03  0.31841703491E+03  0.79230524615E+02 0.  0.
         11    1    5    5    0    0 -0.20880806698E+03 -0.37807709149E+02  0.12835702573E+03  0.24800354385E+03  0.00000000000E+00 0. -1.
        -12    1    5    5    0    0 -0.26555612111E+02 -0.10026469244E+02  0.63146169692E+02  0.69232718905E+02  0.00000000000E+00 0.  1.
         11    1    3    3    0    0 -0.18489537604E+01  0.38398576154E+02 -0.40429101123E+02  0.55788721963E+02  0.00000000000E+00 0. -1.
        -12    1    3    3    0    0  0.13718020530E+03  0.96654192970E+02 -0.20763678784E+03  0.26697092990E+03  0.00000000000E+00 0.  1.
          4    1    6    6  502    0  0.33285273221E+00 -0.30536701418E+02 -0.11372246576E+03  0.11775143372E+03  0.00000000000E+00 0. -1.
         -3    1    6    6    0  502  0.99699574816E+02 -0.56681889314E+02 -0.16466281216E+03  0.20066560119E+03  0.00000000000E+00 0.  1.
<mgrwt>
<rscale>  0 0.29603341E+03</rscale>
<asrwt>0</asrwt>
<pdfrwt beam="1">  1        1 0.99489301E-01 0.29603341E+03</pdfrwt>
<pdfrwt beam="2">  1       -2 0.47958845E-01 0.29603341E+03</pdfrwt>
<totfact> 0.11697905E+02</totfact>
</mgrwt>
</event>
<event>
12    3  0.2269558E-007  0.6671945E+03  0.7818608E-02  0.9775039E-01
         -2   -1    0    0    0  501 -0.00000000000E+00  0.00000000000E+00  0.35271652541E+03  0.35271652541E+03  0.00000000000E+00 0.  1.
          1   -1    0    0  501    0  0.00000000000E+00 -0.00000000000E+00 -0.14517935151E+04  0.14517935151E+04  0.00000000000E+00 0. -1.
        -24    2    1    2    0    0 -0.54156387146E+03 -0.39168330434E+02 -0.73486458902E+03  0.91714057626E+03  0.79342847600E+02 0.  0.
    5000000    2    1    2    0    0  0.54156387146E+03  0.39168330434E+02 -0.36421240071E+03  0.88736946428E+03  0.59995692207E+03 0.  0.
        -24    2    4    4    0    0  0.38146059659E+03  0.29247723057E+03 -0.29492277916E+03  0.56968575886E+03  0.80667843852E+02 0.  0.
         24    2    4    4    0    0  0.16010327487E+03 -0.25330890013E+03 -0.69289621553E+02  0.31768370542E+03  0.79519981936E+02 0.  0.
         11    1    3    3    0    0 -0.17331293521E+03  0.19451202282E+02 -0.20375415820E+03  0.26820044699E+03  0.00000000000E+00 0. -1.
        -12    1    3    3    0    0 -0.36825093624E+03 -0.58619532716E+02 -0.53111043082E+03  0.64894012928E+03  0.00000000000E+00 0.  1.
         13    1    5    5    0    0  0.49888731711E+02  0.50189204892E+02 -0.77758118889E+02  0.10513879823E+03  0.00000000000E+00 0. -1.
        -14    1    5    5    0    0  0.33157186488E+03  0.24228802568E+03 -0.21716466027E+03  0.46454696063E+03  0.00000000000E+00 0.  1.
          2    1    6    6  502    0 -0.24085768692E+00 -0.33988624223E+02 -0.25506382183E+02  0.42495412941E+02  0.00000000000E+00 0. -1.
         -1    1    6    6    0  502  0.16034413255E+03 -0.21932027591E+03 -0.43783239370E+02  0.27518829248E+03  0.00000000000E+00 0.  1.
<mgrwt>
<rscale>  0 0.66719455E+03</rscale>
<asrwt>0</asrwt>
<pdfrwt beam="1">  1        1 0.22335285E+00 0.66719455E+03</pdfrwt>
<pdfrwt beam="2">  1       -2 0.54264081E-01 0.66719455E+03</pdfrwt>
<totfact> 0.20632333E+01</totfact>
</mgrwt>
</event>
<event>
12    3  0.2269558E-007  0.3397800E+03  0.7818608E-02  0.1066890E+00
          1   -1    0    0  501    0  0.00000000000E+00  0.00000000000E+00  0.11346087694E+04  0.11346087694E+04  0.00000000000E+00 0. -1.
         -2   -1    0    0    0  501 -0.00000000000E+00 -0.00000000000E+00 -0.13672180322E+03  0.13672180322E+03  0.00000000000E+00 0.  1.
        -24    2    1    2    0    0  0.37552302666E+02 -0.14494147160E+03  0.22531792016E+03  0.28211990280E+03  0.80032923143E+02 0.  0.
    5000000    2    1    2    0    0 -0.37552302666E+02  0.14494147160E+03  0.77256904600E+03  0.98921066980E+03  0.59938019052E+03 0.  0.
        -24    2    4    4    0    0  0.40714112506E+02 -0.17209161052E+03  0.60939241340E+02  0.20223512957E+03  0.76891450282E+02 0.  0.
         24    2    4    4    0    0 -0.78266415172E+02  0.31703308212E+03  0.71162980466E+03  0.78697554023E+03  0.79233295661E+02 0.  0.
         11    1    3    3    0    0  0.58664281455E+02 -0.67164398326E+02  0.11715325557E+03  0.14723260377E+03  0.00000000000E+00 0. -1.
        -12    1    3    3    0    0 -0.21111978789E+02 -0.77777073272E+02  0.10816466459E+03  0.13488729903E+03  0.00000000000E+00 0.  1.
         13    1    5    5    0    0  0.41273136565E+02 -0.10608933645E+03  0.21657849480E+01  0.11385565306E+03  0.00000000000E+00 0. -1.
        -14    1    5    5    0    0 -0.55902405882E+00 -0.66002274076E+02  0.58773456392E+02  0.88379476505E+02  0.00000000000E+00 0.  1.
          2    1    6    6  502    0 -0.11765653919E+02  0.14556487491E+03  0.24243216567E+03  0.28302105641E+03  0.00000000000E+00 0. -1.
         -1    1    6    6    0  502 -0.66500761253E+02  0.17146820721E+03  0.46919763899E+03  0.50395448382E+03  0.00000000000E+00 0.  1.
<mgrwt>
<rscale>  0 0.33978004E+03</rscale>
<asrwt>0</asrwt>
<pdfrwt beam="1">  1        1 0.17455519E+00 0.33978004E+03</pdfrwt>
<pdfrwt beam="2">  1       -2 0.21034124E-01 0.33978004E+03</pdfrwt>
<totfact> 0.21517657E+02</totfact>
</mgrwt>
</event>
<event>
12    3  0.2269558E-007  0.7398423E+03  0.7818608E-02  0.9651422E-01
          3   -1    0    0  501    0  0.00000000000E+00  0.00000000000E+00  0.34813076364E+03  0.34813076364E+03  0.00000000000E+00 0. -1.
         -4   -1    0    0    0  501 -0.00000000000E+00 -0.00000000000E+00 -0.25422136145E+04  0.25422136145E+04  0.00000000000E+00 0.  1.
        -24    2    1    2    0    0 -0.44634406121E+03 -0.56709918918E+03 -0.31829498667E+03  0.79287093841E+03  0.80672889454E+02 0.  0.
    5000000    2    1    2    0    0  0.44634406121E+03  0.56709918918E+03 -0.18757878642E+04  0.20974734397E+04  0.59999183955E+03 0.  0.
        -24    2    4    4    0    0  0.51737818483E+02  0.21198507062E+03 -0.11969274948E+03  0.26116741262E+03  0.79168119262E+02 0.  0.
         24    2    4    4    0    0  0.39460624273E+03  0.35511411856E+03 -0.17560951147E+04  0.18363060271E+04  0.79559092826E+02 0.  0.
         11    1    3    3    0    0 -0.15601127420E+03 -0.22316392080E+03 -0.81149125966E+02  0.28412468015E+03  0.00000000000E+00 0. -1.
        -12    1    3    3    0    0 -0.29033278701E+03 -0.34393526838E+03 -0.23714586070E+03  0.50874625827E+03  0.00000000000E+00 0.  1.
         11    1    5    5    0    0  0.48701079920E+02  0.76341845375E+02 -0.77191669430E+02  0.11898918594E+03  0.00000000000E+00 0. -1.
        -12    1    5    5    0    0  0.30367385638E+01  0.13564322525E+03 -0.42501080048E+02  0.14217822668E+03  0.00000000000E+00 0.  1.
          2    1    6    6  502    0  0.16470240768E+03  0.13851316689E+03 -0.58378161148E+03  0.62218465941E+03  0.00000000000E+00 0. -1.
         -1    1    6    6    0  502  0.22990383504E+03  0.21660095167E+03 -0.11723135032E+04  0.12141213677E+04  0.00000000000E+00 0.  1.
<mgrwt>
<rscale>  0 0.73984235E+03</rscale>
<asrwt>0</asrwt>
<pdfrwt beam="1">  1        3 0.53558580E-01 0.73984235E+03</pdfrwt>
<pdfrwt beam="2">  1       -4 0.39110978E+00 0.73984235E+03</pdfrwt>
<totfact> 0.64357301E-02</totfact>
</mgrwt>
</event>
<event>
12    3  0.2269558E-007  0.6800740E+03  0.7818608E-02  0.9751928E-01
          1   -1    0    0  501    0  0.00000000000E+00  0.00000000000E+00  0.29126336158E+04  0.29126336158E+04  0.00000000000E+00 0. -1.
         -2   -1    0    0    0  501 -0.00000000000E+00 -0.00000000000E+00 -0.21989597450E+03  0.21989597450E+03  0.00000000000E+00 0.  1.
        -24    2    1    2    0    0  0.30944983145E+03 -0.49435844281E+03  0.45626615709E+03  0.74467284441E+03  0.78799561722E+02 0.  0.
    5000000    2    1    2    0    0 -0.30944983145E+03  0.49435844281E+03  0.22364714842E+04  0.23878567459E+04  0.59992138743E+03 0.  0.
        -24    2    4    4    0    0 -0.53510895859E+02 -0.88534388229E+02  0.13935169331E+03  0.19458404211E+03  0.87990346866E+02 0.  0.
         24    2    4    4    0    0 -0.25593893559E+03  0.58289283104E+03  0.20971197909E+04  0.21932727038E+04  0.85234644148E+02 0.  0.
         11    1    3    3    0    0  0.12904555401E+03 -0.23121878953E+03  0.25397313155E+03  0.36690221475E+03  0.00000000000E+00 0. -1.
        -12    1    3    3    0    0  0.18040427744E+03 -0.26313965328E+03  0.20229302555E+03  0.37777062966E+03  0.00000000000E+00 0.  1.
         13    1    5    5    0    0  0.22001701808E+02 -0.38289135513E+02  0.56741026222E+02  0.71900464793E+02  0.00000000000E+00 0. -1.
        -14    1    5    5    0    0 -0.75512597667E+02 -0.50245252715E+02  0.82610667083E+02  0.12268357732E+03  0.00000000000E+00 0.  1.
          4    1    6    6  502    0 -0.27016530013E+02  0.14328774822E+03  0.52511749184E+03  0.54498591901E+03  0.00000000000E+00 0. -1.
         -3    1    6    6    0  502 -0.22892240558E+03  0.43960508283E+03  0.15720022990E+04  0.16482867848E+04  0.00000000000E+00 0.  1.
<mgrwt>
<rscale>  0 0.68007398E+03</rscale>
<asrwt>0</asrwt>
<pdfrwt beam="1">  1        1 0.44809745E+00 0.68007398E+03</pdfrwt>
<pdfrwt beam="2">  1       -2 0.33830152E-01 0.68007398E+03</pdfrwt>
<totfact> 0.53468253E+00</totfact>
</mgrwt>
</event>
<event>
12    3  0.2269558E-007  0.1422738E+04  0.7818608E-02  0.8937522E-01
         -2   -1    0    0    0  501 -0.00000000000E+00  0.00000000000E+00  0.15180635405E+04  0.15180635405E+04  0.00000000000E+00 0.  1.
          1   -1    0    0  501    0  0.00000000000E+00 -0.00000000000E+00 -0.17900847226E+04  0.17900847226E+04  0.00000000000E+00 0. -1.
        -24    2    1    2    0    0 -0.94700741218E+03  0.98428534263E+03 -0.95383325610E+03  0.16678743233E+04  0.79788492150E+02 0.  0.
    5000000    2    1    2    0    0  0.94700741218E+03 -0.98428534263E+03  0.68181207400E+03  0.16402739397E+04  0.59999184875E+03 0.  0.
        -24    2    4    4    0    0  0.99817283214E+03 -0.79853059664E+03  0.61953119879E+03  0.14228142914E+04  0.81126351780E+02 0.  0.
         24    2    4    4    0    0 -0.51165419958E+02 -0.18575474599E+03  0.62280875208E+02  0.21745964830E+03  0.79291016917E+02 0.  0.
         13    1    5    5    0    0  0.46365723281E+03 -0.35163562337E+03  0.32369097325E+03  0.66588398939E+03  0.00000000000E+00 0. -1.
        -14    1    5    5    0    0  0.53451559932E+03 -0.44689497327E+03  0.29584022555E+03  0.75693030201E+03  0.00000000000E+00 0.  1.
         13    1    3    3    0    0 -0.62482406882E+03  0.62580532152E+03 -0.57498939301E+03  0.10548223640E+04  0.00000000000E+00 0. -1.
        -14    1    3    3    0    0 -0.32218334336E+03  0.35848002112E+03 -0.37884386309E+03  0.61305195936E+03  0.00000000000E+00 0.  1.
          4    1    6    6  502    0 -0.25652332392E+02 -0.19237763906E+02 -0.10794517063E+02  0.33832755074E+02  0.00000000000E+00 0. -1.
         -3    1    6    6    0  502 -0.25513087566E+02 -0.16651698208E+03  0.73075392271E+02  0.18362689322E+03  0.00000000000E+00 0.  1.
<mgrwt>
<rscale>  0 0.14227384E+04</rscale>
<asrwt>0</asrwt>
<pdfrwt beam="1">  1        1 0.27539765E+00 0.14227384E+04</pdfrwt>
<pdfrwt beam="2">  1       -2 0.23354824E+00 0.14227384E+04</pdfrwt>
<totfact> 0.27975149E-01</totfact>
</mgrwt>
</event>
<event>
12    3  0.2269558E-007  0.5468254E+03  0.7818608E-02  0.1002231E+00
         -2   -1    0    0    0  501 -0.00000000000E+00  0.00000000000E+00  0.14184677206E+04  0.14184677206E+04  0.00000000000E+00 0.  1.
          1   -1    0    0  501    0  0.00000000000E+00 -0.00000000000E+00 -0.62425606961E+03  0.62425606961E+03  0.00000000000E+00 0. -1.
        -24    2    1    2    0    0  0.76037870854E+02 -0.37540469845E+03  0.11731116287E+04  0.12365628598E+04  0.78653463743E+02 0.  0.
    5000000    2    1    2    0    0 -0.76037870854E+02  0.37540469845E+03 -0.37889997774E+03  0.80616093042E+03  0.59968308895E+03 0.  0.
        -24    2    4    4    0    0 -0.26862657055E+03 -0.32651650133E-01 -0.16009920700E+03  0.32295117911E+03  0.80656509552E+02 0.  0.
         24    2    4    4    0    0  0.19258869970E+03  0.37543735010E+03 -0.21880077074E+03  0.48320975131E+03  0.87030313002E+02 0.  0.
         11    1    3    3    0    0  0.27536354921E+02 -0.11753880871E+03  0.26301052059E+03  0.28939273718E+03  0.00000000000E+00 0. -1.
        -12    1    3    3    0    0  0.48501515933E+02 -0.25786588974E+03  0.91010110813E+03  0.94717012260E+03  0.00000000000E+00 0.  1.
         13    1    5    5    0    0 -0.72406303856E+02 -0.35147592872E+02 -0.56161664358E+02  0.98143561512E+02  0.00000000000E+00 0. -1.
        -14    1    5    5    0    0 -0.19622026669E+03  0.35114941222E+02 -0.10393754264E+03  0.22480761760E+03  0.00000000000E+00 0.  1.
          2    1    6    6  502    0  0.76118742288E+02  0.68411993938E+02 -0.47256462964E+02  0.11272726881E+03  0.00000000000E+00 0. -1.
         -1    1    6    6    0  502  0.11646995741E+03  0.30702535616E+03 -0.17154430777E+03  0.37048248250E+03  0.00000000000E+00 0.  1.
<mgrwt>
<rscale>  0 0.54682543E+03</rscale>
<asrwt>0</asrwt>
<pdfrwt beam="1">  1        1 0.96039395E-01 0.54682543E+03</pdfrwt>
<pdfrwt beam="2">  1       -2 0.21822580E+00 0.54682543E+03</pdfrwt>
<totfact> 0.30573463E+00</totfact>
</mgrwt>
</event>
<event>
12    3  0.2269558E-007  0.8373966E+03  0.7818608E-02  0.9507411E-01
         -2   -1    0    0    0  501 -0.00000000000E+00  0.00000000000E+00  0.23312603415E+03  0.23312603415E+03  0.00000000000E+00 0.  1.
          1   -1    0    0  501    0  0.00000000000E+00 -0.00000000000E+00 -0.34457696458E+04  0.34457696458E+04  0.00000000000E+00 0. -1.
        -24    2    1    2    0    0  0.48240463648E+03 -0.62959239731E+03 -0.14955440209E+04  0.16946174767E+04  0.77302352734E+02 0.  0.
    5000000    2    1    2    0    0 -0.48240463648E+03  0.62959239731E+03 -0.17170995908E+04  0.19842782033E+04  0.59985678577E+03 0.  0.
        -24    2    4    4    0    0 -0.34949280761E+03  0.64655646318E+03 -0.96228969159E+03  0.12134885714E+04  0.79828439013E+02 0.  0.
         24    2    4    4    0    0 -0.13291182888E+03 -0.16964065864E+02 -0.75480989919E+03  0.77078963193E+03  0.80158212305E+02 0.  0.
         13    1    5    5    0    0 -0.15827994583E+03  0.24166121132E+03 -0.32811324339E+03  0.43716242153E+03  0.00000000000E+00 0. -1.
        -14    1    5    5    0    0 -0.19121286177E+03  0.40489525185E+03 -0.63417644819E+03  0.77632614984E+03  0.00000000000E+00 0.  1.
         13    1    3    3    0    0  0.29407806660E+03 -0.34177318100E+03 -0.78718987759E+03  0.90717072257E+03  0.00000000000E+00 0. -1.
        -14    1    3    3    0    0  0.18832656988E+03 -0.28781921631E+03 -0.70835414331E+03  0.78744675410E+03  0.00000000000E+00 0.  1.
          2    1    6    6  502    0 -0.13459353941E+03 -0.87075810653E+01 -0.56815494181E+03  0.58394458703E+03  0.00000000000E+00 0. -1.
         -1    1    6    6    0  502  0.16817105332E+01 -0.82564847987E+01 -0.18665495737E+03  0.18684504490E+03  0.00000000000E+00 0.  1.
<mgrwt>
<rscale>  0 0.83739659E+03</rscale>
<asrwt>0</asrwt>
<pdfrwt beam="1">  1        1 0.53011840E+00 0.83739659E+03</pdfrwt>
<pdfrwt beam="2">  1       -2 0.35865544E-01 0.83739659E+03</pdfrwt>
<totfact> 0.18822895E+00</totfact>
</mgrwt>
</event>
<event>
12    3  0.2269558E-007  0.6532351E+03  0.7818608E-02  0.9800728E-01
          1   -1    0    0  501    0  0.00000000000E+00  0.00000000000E+00  0.43058705696E+03  0.43058705696E+03  0.00000000000E+00 0. -1.
         -2   -1    0    0    0  501 -0.00000000000E+00 -0.00000000000E+00 -0.12947225260E+04  0.12947225260E+04  0.00000000000E+00 0.  1.
        -24    2    1    2    0    0  0.50668249144E+03  0.35451290180E+03 -0.27304696342E+03  0.68042933798E+03  0.77607313319E+02 0.  0.
    5000000    2    1    2    0    0 -0.50668249144E+03 -0.35451290180E+03 -0.59108850562E+03  0.10448802450E+04  0.59998546667E+03 0.  0.
        -24    2    4    4    0    0 -0.45867431920E+03 -0.39258155404E+03 -0.67916837521E+03  0.91222208920E+03  0.79856436674E+02 0.  0.
         24    2    4    4    0    0 -0.48008172240E+02  0.38068652242E+02  0.88079869597E+02  0.13265815578E+03  0.78013562804E+02 0.  0.
         11    1    3    3    0    0  0.19993807202E+03  0.99459338127E+02 -0.79613934429E+02  0.23707756355E+03  0.00000000000E+00 0. -1.
        -12    1    3    3    0    0  0.30674441941E+03  0.25505356367E+03 -0.19343302899E+03  0.44335177443E+03  0.00000000000E+00 0.  1.
         11    1    5    5    0    0 -0.49476914816E+02 -0.79092291522E+02 -0.11323988388E+03  0.14672023371E+03  0.00000000000E+00 0. -1.
        -12    1    5    5    0    0 -0.40919740438E+03 -0.31348926252E+03 -0.56592849133E+03  0.76550185549E+03  0.00000000000E+00 0.  1.
          4    1    6    6  502    0 -0.44940608158E+01  0.31061478023E+02 -0.29462988187E+01  0.31522891307E+02  0.00000000000E+00 0. -1.
         -3    1    6    6    0  502 -0.43514111424E+02  0.70071742184E+01  0.91026168416E+02  0.10113526447E+03  0.00000000000E+00 0.  1.
<mgrwt>
<rscale>  0 0.65323506E+03</rscale>
<asrwt>0</asrwt>
<pdfrwt beam="1">  1        1 0.66244163E-01 0.65323506E+03</pdfrwt>
<pdfrwt beam="2">  1       -2 0.19918808E+00 0.65323506E+03</pdfrwt>
<totfact> 0.66325390E+00</totfact>
</mgrwt>
</event>
<event>
12    3  0.2269558E-007  0.1200545E+04  0.7818608E-02  0.9112380E-01
          1   -1    0    0  501    0  0.00000000000E+00  0.00000000000E+00  0.19002516006E+04  0.19002516006E+04  0.00000000000E+00 0. -1.
         -2   -1    0    0    0  501 -0.00000000000E+00 -0.00000000000E+00 -0.94334725152E+03  0.94334725152E+03  0.00000000000E+00 0.  1.
        -24    2    1    2    0    0  0.23687655096E+03 -0.11064467119E+04 -0.15835728310E+03  0.11452969553E+04  0.79330070617E+02 0.  0.
    5000000    2    1    2    0    0 -0.23687655096E+03  0.11064467119E+04  0.11152616322E+04  0.16983018969E+04  0.60007166072E+03 0.  0.
        -24    2    4    4    0    0 -0.36638840163E+03  0.10458741567E+04  0.90190391424E+03  0.14310143255E+04  0.79234567371E+02 0.  0.
         24    2    4    4    0    0  0.12951185067E+03  0.60572555178E+02  0.21335771800E+03  0.26728757142E+03  0.74018755052E+02 0.  0.
         13    1    5    5    0    0 -0.21837305729E+03  0.72759383398E+03  0.63348679414E+03  0.98913350855E+03  0.00000000000E+00 0. -1.
        -14    1    5    5    0    0 -0.14801534435E+03  0.31828032271E+03  0.26841712010E+03  0.44188081690E+03  0.00000000000E+00 0.  1.
         13    1    3    3    0    0  0.48561940257E+02 -0.39581224327E+03 -0.69362805837E+02  0.40476757874E+03  0.00000000000E+00 0. -1.
        -14    1    3    3    0    0  0.18831461070E+03 -0.71063446859E+03 -0.88994477268E+02  0.74052937655E+03  0.00000000000E+00 0.  1.
          2    1    6    6  502    0  0.81546958789E+01  0.30329117944E+02  0.71953144988E+02  0.78508658974E+02  0.00000000000E+00 0. -1.
         -1    1    6    6    0  502  0.12135715479E+03  0.30243437234E+02  0.14140457301E+03  0.18877891244E+03  0.00000000000E+00 0.  1.
<mgrwt>
<rscale>  0 0.12005447E+04</rscale>
<asrwt>0</asrwt>
<pdfrwt beam="1">  1        1 0.29234640E+00 0.12005447E+04</pdfrwt>
<pdfrwt beam="2">  1       -2 0.14513035E+00 0.12005447E+04</pdfrwt>
<totfact> 0.97605676E-01</totfact>
</mgrwt>
</event>
<event>
12    3  0.2269558E-007  0.6401505E+03  0.7818608E-02  0.9825439E-01
          1   -1    0    0  501    0  0.00000000000E+00  0.00000000000E+00  0.65138163452E+03  0.65138163452E+03  0.00000000000E+00 0. -1.
         -2   -1    0    0    0  501 -0.00000000000E+00 -0.00000000000E+00 -0.92282333969E+03  0.92282333969E+03  0.00000000000E+00 0.  1.
        -24    2    1    2    0    0 -0.46488729143E+03  0.33471524568E+03  0.20959209616E+03  0.61528596478E+03  0.80582146001E+02 0.  0.
    5000000    2    1    2    0    0  0.46488729143E+03 -0.33471524568E+03 -0.48103380133E+03  0.95891900944E+03  0.59998138238E+03 0.  0.
        -24    2    4    4    0    0  0.23550825917E+03  0.51724340052E+02  0.50229169029E+02  0.25882123379E+03  0.79535615589E+02 0.  0.
         24    2    4    4    0    0  0.22937903226E+03 -0.38643958573E+03 -0.53126297036E+03  0.70009777565E+03  0.77111983040E+02 0.  0.
         11    1    3    3    0    0 -0.11715372897E+03  0.65082867331E+02  0.82096949062E+02  0.15716451533E+03  0.00000000000E+00 0. -1.
        -12    1    3    3    0    0 -0.34773356246E+03  0.26963237835E+03  0.12749514710E+03  0.45812144945E+03  0.00000000000E+00 0.  1.
         11    1    5    5    0    0  0.10500718104E+03 -0.12294108011E+02  0.22454064883E+01  0.10574826245E+03  0.00000000000E+00 0. -1.
        -12    1    5    5    0    0  0.13050107813E+03  0.64018448062E+02  0.47983762540E+02  0.15307297133E+03  0.00000000000E+00 0.  1.
          4    1    6    6  502    0  0.19633848777E+03 -0.26805023740E+03 -0.36922002772E+03  0.49671235178E+03  0.00000000000E+00 0. -1.
         -3    1    6    6    0  502  0.33040544493E+02 -0.11838934833E+03 -0.16204294264E+03  0.20338542386E+03  0.00000000000E+00 0.  1.
<mgrwt>
<rscale>  0 0.64015053E+03</rscale>
<asrwt>0</asrwt>
<pdfrwt beam="1">  1        1 0.10021256E+00 0.64015053E+03</pdfrwt>
<pdfrwt beam="2">  1       -2 0.14197282E+00 0.64015053E+03</pdfrwt>
<totfact> 0.95200437E+00</totfact>
</mgrwt>
</event>
<event>
12    3  0.2269558E-007  0.6627021E+03  0.7818608E-02  0.9783232E-01
         -2   -1    0    0    0  501 -0.00000000000E+00  0.00000000000E+00  0.50210822160E+03  0.50210822160E+03  0.00000000000E+00 0.  1.
          1   -1    0    0  501    0  0.00000000000E+00 -0.00000000000E+00 -0.15758538048E+04  0.15758538048E+04  0.00000000000E+00 0. -1.
        -24    2    1    2    0    0 -0.34201630709E+03 -0.49123432309E+03 -0.10719908274E+04  0.12304146467E+04  0.80433539614E+02 0.  0.
    5000000    2    1    2    0    0  0.34201630709E+03  0.49123432309E+03 -0.17547558038E+01  0.84754737969E+03  0.60003930468E+03 0.  0.
        -24    2    4    4    0    0  0.42541194047E+03  0.34476526353E+03  0.18652559181E+03  0.58262027300E+03  0.69398703700E+02 0.  0.
         24    2    4    4    0    0 -0.83395633386E+02  0.14646905956E+03 -0.18828034761E+03  0.26492710670E+03  0.79554167019E+02 0.  0.
         11    1    5    5    0    0  0.19576252775E+03  0.12194197530E+03  0.58208603568E+02  0.23786772404E+03  0.00000000000E+00 0. -1.
        -12    1    5    5    0    0  0.22964941273E+03  0.22282328823E+03  0.12831698824E+03  0.34475254896E+03  0.00000000000E+00 0.  1.
         11    1    3    3    0    0 -0.24793242550E+03 -0.30259461644E+03 -0.64837925732E+03  0.75725137889E+03  0.00000000000E+00 0. -1.
        -12    1    3    3    0    0 -0.94083881592E+02 -0.18863970665E+03 -0.42361157005E+03  0.47316326779E+03  0.00000000000E+00 0.  1.
          2    1    6    6  502    0 -0.56844459600E+02  0.61399884707E+02 -0.14122213744E+03  0.16414911066E+03  0.00000000000E+00 0. -1.
         -1    1    6    6    0  502 -0.26551173786E+02  0.85069174854E+02 -0.47058210172E+02  0.10077799603E+03  0.00000000000E+00 0.  1.
<mgrwt>
<rscale>  0 0.66270207E+03</rscale>
<asrwt>0</asrwt>
<pdfrwt beam="1">  1        1 0.24243904E+00 0.66270207E+03</pdfrwt>
<pdfrwt beam="2">  1       -2 0.77247419E-01 0.66270207E+03</pdfrwt>
<totfact> 0.79703259E+00</totfact>
</mgrwt>
</event>
<event>
12    3  0.2269558E-007  0.6313419E+03  0.7818608E-02  0.9842434E-01
          1   -1    0    0  501    0  0.00000000000E+00  0.00000000000E+00  0.46646312567E+03  0.46646312567E+03  0.00000000000E+00 0. -1.
         -2   -1    0    0    0  501 -0.00000000000E+00 -0.00000000000E+00 -0.10686937726E+04  0.10686937726E+04  0.00000000000E+00 0.  1.
        -24    2    1    2    0    0  0.40187204692E+03 -0.37023165078E+03 -0.44399017789E+03  0.70832522596E+03  0.77619136396E+02 0.  0.
    5000000    2    1    2    0    0 -0.40187204692E+03  0.37023165078E+03 -0.15824046909E+03  0.82683167236E+03  0.60003162501E+03 0.  0.
        -24    2    4    4    0    0 -0.26898957135E+03 -0.43950488021E+02  0.11841066558E+03  0.30792723679E+03  0.80691155298E+02 0.  0.
         24    2    4    4    0    0 -0.13288247557E+03  0.41418213880E+03 -0.27665113467E+03  0.51890443556E+03  0.59341103092E+02 0.  0.
         11    1    3    3    0    0  0.14662146678E+03 -0.18040522872E+03 -0.16335228638E+03  0.28412650446E+03  0.00000000000E+00 0. -1.
        -12    1    3    3    0    0  0.25525058014E+03 -0.18982642207E+03 -0.28063789151E+03  0.42419872151E+03  0.00000000000E+00 0.  1.
         13    1    5    5    0    0 -0.10658234952E+03 -0.34339899874E+02  0.99978036548E+01  0.11242322727E+03  0.00000000000E+00 0. -1.
        -14    1    5    5    0    0 -0.16240722183E+03 -0.96105881466E+01  0.10841286193E+03  0.19550400952E+03  0.00000000000E+00 0.  1.
          2    1    6    6  502    0 -0.16522848966E+02  0.17592405522E+02 -0.26261884359E+02  0.35667686218E+02  0.00000000000E+00 0. -1.
         -1    1    6    6    0  502 -0.11635962661E+03  0.39658973328E+03 -0.25038925031E+03  0.48323674935E+03  0.00000000000E+00 0.  1.
<mgrwt>
<rscale>  0 0.63134192E+03</rscale>
<asrwt>0</asrwt>
<pdfrwt beam="1">  1        1 0.71763558E-01 0.63134192E+03</pdfrwt>
<pdfrwt beam="2">  1       -2 0.16441443E+00 0.63134192E+03</pdfrwt>
<totfact> 0.10308868E+01</totfact>
</mgrwt>
</event>
<event>
12    3  0.2269558E-007  0.1338772E+04  0.7818608E-02  0.8999371E-01
          1   -1    0    0  501    0  0.00000000000E+00  0.00000000000E+00  0.15610207285E+04  0.15610207285E+04  0.00000000000E+00 0. -1.
         -2   -1    0    0    0  501 -0.00000000000E+00 -0.00000000000E+00 -0.12852574843E+04  0.12852574843E+04  0.00000000000E+00 0.  1.
        -24    2    1    2    0    0 -0.49226941268E+03 -0.11821152769E+04 -0.30295323046E+03  0.13183914819E+04  0.81545920536E+02 0.  0.
    5000000    2    1    2    0    0  0.49226941268E+03  0.11821152769E+04  0.57871647469E+03  0.15278867309E+04  0.59983281145E+03 0.  0.
        -24    2    4    4    0    0 -0.95921063481E+02  0.42780768143E+03  0.26163965178E+03  0.51709369047E+03  0.81916510145E+02 0.  0.
         24    2    4    4    0    0  0.58819047616E+03  0.75430759550E+03  0.31707682292E+03  0.10107930404E+04  0.78847156065E+02 0.  0.
         11    1    5    5    0    0 -0.28675924281E+02  0.11133263827E+03  0.11243404643E+03  0.16080634246E+03  0.00000000000E+00 0. -1.
        -12    1    5    5    0    0 -0.67245139200E+02  0.31647504316E+03  0.14920560535E+03  0.35628734802E+03  0.00000000000E+00 0.  1.
         11    1    3    3    0    0 -0.41442011476E+03 -0.10374907507E+04 -0.24133176324E+03  0.11429663640E+04  0.00000000000E+00 0. -1.
        -12    1    3    3    0    0 -0.77849297917E+02 -0.14462452623E+03 -0.61621467226E+02  0.17542511792E+03  0.00000000000E+00 0.  1.
          4    1    6    6  502    0  0.25190961932E+03  0.28711350653E+03  0.15996202061E+03  0.41410200431E+03  0.00000000000E+00 0. -1.
         -3    1    6    6    0  502  0.33628085685E+03  0.46719408898E+03  0.15711480231E+03  0.59669103610E+03  0.00000000000E+00 0.  1.
<mgrwt>
<rscale>  0 0.13387721E+04</rscale>
<asrwt>0</asrwt>
<pdfrwt beam="1">  1        1 0.24015704E+00 0.13387721E+04</pdfrwt>
<pdfrwt beam="2">  1       -2 0.19773192E+00 0.13387721E+04</pdfrwt>
<totfact> 0.68726263E-01</totfact>
</mgrwt>
</event>
<event>
12    3  0.2269558E-007  0.8282778E+03  0.7818608E-02  0.9519965E-01
         -2   -1    0    0    0  501 -0.00000000000E+00  0.00000000000E+00  0.79447154795E+03  0.79447154795E+03  0.00000000000E+00 0.  1.
          1   -1    0    0  501    0  0.00000000000E+00 -0.00000000000E+00 -0.10344715068E+04  0.10344715068E+04  0.00000000000E+00 0. -1.
        -24    2    1    2    0    0 -0.72361223825E+03 -0.58483343306E+02 -0.45829991163E+03  0.86224763896E+03  0.79982555036E+02 0.  0.
    5000000    2    1    2    0    0  0.72361223825E+03  0.58483343306E+02  0.21829995276E+03  0.96669541581E+03  0.59984179980E+03 0.  0.
        -24    2    4    4    0    0 -0.77155461958E+02  0.69726789370E+02  0.69205805792E+02  0.14821904606E+03  0.79778766566E+02 0.  0.
         24    2    4    4    0    0  0.80076770021E+03 -0.11243446064E+02  0.14909414696E+03  0.81847636975E+03  0.79493260111E+02 0.  0.
         11    1    5    5    0    0  0.96534911135E+01 -0.52532909462E+01  0.21183783480E+02  0.23865029624E+02  0.00000000000E+00 0. -1.
        -12    1    5    5    0    0 -0.86808953071E+02  0.74980080316E+02  0.48022022312E+02  0.12435401644E+03  0.00000000000E+00 0.  1.
         13    1    3    3    0    0 -0.44236663092E+03 -0.26078657346E+00 -0.25820347926E+03  0.51220829832E+03  0.00000000000E+00 0. -1.
        -14    1    3    3    0    0 -0.28124560733E+03 -0.58222556733E+02 -0.20009643236E+03  0.35003934064E+03  0.00000000000E+00 0.  1.
          4    1    6    6  502    0  0.20853436881E+03  0.86646164080E+01  0.72655087837E+02  0.22099868855E+03  0.00000000000E+00 0. -1.
         -3    1    6    6    0  502  0.59223333140E+03 -0.19908062472E+02  0.76439059126E+02  0.59747768120E+03  0.00000000000E+00 0.  1.
<mgrwt>
<rscale>  0 0.82827778E+03</rscale>
<asrwt>0</asrwt>
<pdfrwt beam="1">  1        1 0.15914946E+00 0.82827778E+03</pdfrwt>
<pdfrwt beam="2">  1       -2 0.12222639E+00 0.82827778E+03</pdfrwt>
<totfact> 0.64231406E+00</totfact>
</mgrwt>
</event>
<event>
12    3  0.2269558E-007  0.9629129E+03  0.7818608E-02  0.9350183E-01
          1   -1    0    0  501    0  0.00000000000E+00  0.00000000000E+00  0.17650609239E+04  0.17650609239E+04  0.00000000000E+00 0. -1.
         -2   -1    0    0    0  501 -0.00000000000E+00 -0.00000000000E+00 -0.61596596364E+03  0.61596596364E+03  0.00000000000E+00 0.  1.
        -24    2    1    2    0    0 -0.91278030353E+03 -0.25967737002E+03  0.63890398734E+03  0.11476742078E+04  0.91419709369E+02 0.  0.
    5000000    2    1    2    0    0  0.91278030353E+03  0.25967737002E+03  0.51019097291E+03  0.12333526797E+04  0.60021978034E+03 0.  0.
        -24    2    4    4    0    0  0.10872711731E+03  0.88978697375E+02  0.35859129218E+03  0.39366445957E+03  0.81518079439E+02 0.  0.
         24    2    4    4    0    0  0.80405318622E+03  0.17069867265E+03  0.15159968073E+03  0.83968822014E+03  0.80338538308E+02 0.  0.
         11    1    5    5    0    0  0.19161832559E+01 -0.89558661225E+01  0.71385665060E+02  0.71970775126E+02  0.00000000000E+00 0. -1.
        -12    1    5    5    0    0  0.10681093405E+03  0.97934563498E+02  0.28720562712E+03  0.32169368444E+03  0.00000000000E+00 0.  1.
         11    1    3    3    0    0 -0.13622170890E+03 -0.30505113963E+02  0.57955717829E+02  0.15114820933E+03  0.00000000000E+00 0. -1.
        -12    1    3    3    0    0 -0.77655859462E+03 -0.22917225606E+03  0.58094826951E+03  0.99652599850E+03  0.00000000000E+00 0.  1.
          2    1    6    6  502    0  0.19037017422E+03  0.53152103106E+02  0.41861856605E+01  0.19769540573E+03  0.00000000000E+00 0. -1.
         -1    1    6    6    0  502  0.61368301200E+03  0.11754656954E+03  0.14741349507E+03  0.64199281441E+03  0.00000000000E+00 0.  1.
<mgrwt>
<rscale>  0 0.96291294E+03</rscale>
<asrwt>0</asrwt>
<pdfrwt beam="1">  1        1 0.27154783E+00 0.96291294E+03</pdfrwt>
<pdfrwt beam="2">  1       -2 0.94763995E-01 0.96291294E+03</pdfrwt>
<totfact> 0.35693101E+00</totfact>
</mgrwt>
</event>
<event>
12    3  0.2269558E-007  0.4733288E+03  0.7818608E-02  0.1020985E+00
         -2   -1    0    0    0  501 -0.00000000000E+00  0.00000000000E+00  0.84742563591E+03  0.84742563591E+03  0.00000000000E+00 0.  1.
          1   -1    0    0  501    0  0.00000000000E+00 -0.00000000000E+00 -0.44042234781E+03  0.44042234781E+03  0.00000000000E+00 0. -1.
        -24    2    1    2    0    0  0.33252626807E+03  0.74619675485E+02 -0.16996477212E+03  0.38858484631E+03  0.77255058719E+02 0.  0.
    5000000    2    1    2    0    0 -0.33252626807E+03 -0.74619675485E+02  0.57696806022E+03  0.89926313740E+03  0.59970011910E+03 0.  0.
        -24    2    4    4    0    0 -0.44982785024E+03 -0.41729416851E+02  0.21050817560E+03  0.50481590909E+03  0.80243199048E+02 0.  0.
         24    2    4    4    0    0  0.11730158217E+03 -0.32890258635E+02  0.36645988462E+03  0.39444722831E+03  0.80338898383E+02 0.  0.
         13    1    3    3    0    0  0.10884515910E+03 -0.11797386147E+02 -0.47749726583E+02  0.11944238514E+03  0.00000000000E+00 0. -1.
        -14    1    3    3    0    0  0.22368110897E+03  0.86417061632E+02 -0.12221504554E+03  0.26914246117E+03  0.00000000000E+00 0.  1.
         13    1    5    5    0    0 -0.25904189209E+03  0.11977559827E+02  0.13812849535E+03  0.29381226153E+03  0.00000000000E+00 0. -1.
        -14    1    5    5    0    0 -0.19078595815E+03 -0.53706976678E+02  0.72379680253E+02  0.21100364756E+03  0.00000000000E+00 0.  1.
          2    1    6    6  502    0  0.25207099988E+02  0.21304143333E+02  0.14290517909E+03  0.14666681501E+03  0.00000000000E+00 0. -1.
         -3    1    6    6    0  502  0.92094482183E+02 -0.54194401967E+02  0.22355470552E+03  0.24778041330E+03  0.00000000000E+00 0.  1.
<mgrwt>
<rscale>  0 0.47332876E+03</rscale>
<asrwt>0</asrwt>
<pdfrwt beam="1">  1        1 0.67757284E-01 0.47332876E+03</pdfrwt>
<pdfrwt beam="2">  1       -2 0.13037317E+00 0.47332876E+03</pdfrwt>
<totfact> 0.20820618E+01</totfact>
</mgrwt>
</event>
<event>
12    3  0.2269558E-007  0.1003083E+04  0.7818608E-02  0.9305170E-01
          1   -1    0    0  501    0  0.00000000000E+00  0.00000000000E+00  0.32444683992E+04  0.32444683992E+04  0.00000000000E+00 0. -1.
         -2   -1    0    0    0  501 -0.00000000000E+00 -0.00000000000E+00 -0.79094729767E+03  0.79094729767E+03  0.00000000000E+00 0.  1.
        -24    2    1    2    0    0 -0.57597023653E+03  0.71297999838E+03 -0.38163576683E+03  0.99603270689E+03  0.79706356071E+02 0.  0.
    5000000    2    1    2    0    0  0.57597023653E+03 -0.71297999838E+03  0.28351568683E+04  0.30393829899E+04  0.59971018013E+03 0.  0.
        -24    2    4    4    0    0  0.30456261259E+03  0.11270906865E+02  0.72642311777E+03  0.79175378455E+03  0.79360512794E+02 0.  0.
         24    2    4    4    0    0  0.27140762395E+03 -0.72425090525E+03  0.21087337505E+04  0.22476292054E+04  0.82930948252E+02 0.  0.
         13    1    3    3    0    0 -0.31325182157E+03  0.41602545499E+03 -0.17833479450E+03  0.55046088131E+03  0.00000000000E+00 0. -1.
        -14    1    3    3    0    0 -0.26271841496E+03  0.29695454339E+03 -0.20330097233E+03  0.44557182558E+03  0.00000000000E+00 0.  1.
         13    1    5    5    0    0  0.94810832576E+02  0.32607869838E+02  0.17954687305E+03  0.20564398063E+03  0.00000000000E+00 0. -1.
        -14    1    5    5    0    0  0.20975178001E+03 -0.21336962973E+02  0.54687624472E+03  0.58610980392E+03  0.00000000000E+00 0.  1.
          2    1    6    6  502    0  0.23080167245E+03 -0.51068676587E+03  0.15316378034E+04  0.16309459665E+04  0.00000000000E+00 0. -1.
         -1    1    6    6    0  502  0.40605951500E+02 -0.21356413937E+03  0.57709594710E+03  0.61668323885E+03  0.00000000000E+00 0.  1.
<mgrwt>
<rscale>  0 0.10030832E+04</rscale>
<asrwt>0</asrwt>
<pdfrwt beam="1">  1        1 0.49914898E+00 0.10030832E+04</pdfrwt>
<pdfrwt beam="2">  1       -2 0.12168420E+00 0.10030832E+04</pdfrwt>
<totfact> 0.18173022E-01</totfact>
</mgrwt>
</event>
<event>
12    3  0.2269558E-007  0.1199388E+04  0.7818608E-02  0.9113393E-01
         -2   -1    0    0    0  501 -0.00000000000E+00  0.00000000000E+00  0.11860981976E+04  0.11860981976E+04  0.00000000000E+00 0.  1.
          1   -1    0    0  501    0  0.00000000000E+00 -0.00000000000E+00 -0.13794091171E+04  0.13794091171E+04  0.00000000000E+00 0. -1.
        -24    2    1    2    0    0  0.88388839365E+03 -0.77368359840E+03  0.18811652788E+03  0.11923897144E+04  0.80996297185E+02 0.  0.
    5000000    2    1    2    0    0 -0.88388839365E+03  0.77368359840E+03 -0.38142744735E+03  0.13731176002E+04  0.60010002796E+03 0.  0.
        -24    2    4    4    0    0 -0.82030965455E+03  0.54874199652E+03 -0.94710084434E+02  0.99462130339E+03  0.79220129856E+02 0.  0.
         24    2    4    4    0    0 -0.63578739100E+02  0.22494160188E+03 -0.28671736292E+03  0.37849629682E+03  0.80072593227E+02 0.  0.
         13    1    3    3    0    0  0.52018614018E+03 -0.50167370311E+03  0.96868700457E+02  0.72914584958E+03  0.00000000000E+00 0. -1.
        -14    1    3    3    0    0  0.36370225347E+03 -0.27200989528E+03  0.91247827425E+02  0.46324386485E+03  0.00000000000E+00 0.  1.
         13    1    5    5    0    0 -0.57926103884E+03  0.37121180127E+03 -0.99866787954E+02  0.69520854990E+03  0.00000000000E+00 0. -1.
        -14    1    5    5    0    0 -0.24104861571E+03  0.17753019525E+03  0.51567035206E+01  0.29941275349E+03  0.00000000000E+00 0.  1.
          2    1    6    6  502    0 -0.41844698420E+02  0.11239356813E+03 -0.20576726358E+03  0.23816687365E+03  0.00000000000E+00 0. -1.
         -1    1    6    6    0  502 -0.21734040679E+02  0.11254803374E+03 -0.80950099340E+02  0.14032942317E+03  0.00000000000E+00 0.  1.
<mgrwt>
<rscale>  0 0.11993875E+04</rscale>
<asrwt>0</asrwt>
<pdfrwt beam="1">  1        1 0.21221679E+00 0.11993875E+04</pdfrwt>
<pdfrwt beam="2">  1       -2 0.18247665E+00 0.11993875E+04</pdfrwt>
<totfact> 0.11833319E+00</totfact>
</mgrwt>
</event>
<event>
12    3  0.2269558E-007  0.1211457E+04  0.7818608E-02  0.9102887E-01
          1   -1    0    0  501    0  0.00000000000E+00  0.00000000000E+00  0.14778116942E+04  0.14778116942E+04  0.00000000000E+00 0. -1.
         -2   -1    0    0    0  501 -0.00000000000E+00 -0.00000000000E+00 -0.10391394115E+04  0.10391394115E+04  0.00000000000E+00 0.  1.
        -24    2    1    2    0    0  0.67178569544E+03  0.93007084963E+03  0.56525938217E+00  0.11501420791E+04  0.80614369456E+02 0.  0.
    5000000    2    1    2    0    0 -0.67178569544E+03 -0.93007084963E+03  0.43810702338E+03  0.13668090267E+04  0.59991778229E+03 0.  0.
        -24    2    4    4    0    0 -0.12089007268E+03 -0.63348355202E+03  0.12012369249E+03  0.66039615512E+03  0.76010261471E+02 0.  0.
         24    2    4    4    0    0 -0.55089562276E+03 -0.29658729761E+03  0.31798333089E+03  0.70641287154E+03  0.80347582931E+02 0.  0.
         13    1    3    3    0    0  0.18674351781E+03  0.27972233405E+03  0.34715068415E+02  0.33811663903E+03  0.00000000000E+00 0. -1.
        -14    1    3    3    0    0  0.48504217763E+03  0.65034851557E+03 -0.34149809033E+02  0.81202544002E+03  0.00000000000E+00 0.  1.
         13    1    5    5    0    0 -0.72532725790E+02 -0.48709424634E+03  0.11710517475E+03  0.50619702002E+03  0.00000000000E+00 0. -1.
        -14    1    5    5    0    0 -0.48357346894E+02 -0.14638930568E+03  0.30185177494E+01  0.15419913510E+03  0.00000000000E+00 0.  1.
          2    1    6    6  502    0 -0.27381317897E+03 -0.11273497296E+03  0.12072443971E+03  0.31977683070E+03  0.00000000000E+00 0. -1.
         -1    1    6    6    0  502 -0.27708244378E+03 -0.18385232465E+03  0.19725889117E+03  0.38663604084E+03  0.00000000000E+00 0.  1.
<mgrwt>
<rscale>  0 0.12114573E+04</rscale>
<asrwt>0</asrwt>
<pdfrwt beam="1">  1        1 0.22735565E+00 0.12114573E+04</pdfrwt>
<pdfrwt beam="2">  1       -2 0.15986760E+00 0.12114573E+04</pdfrwt>
<totfact> 0.14617777E+00</totfact>
</mgrwt>
</event>
<event>
12    3  0.2269558E-007  0.1172394E+04  0.7818608E-02  0.9137369E-01
         -2   -1    0    0    0  501 -0.00000000000E+00  0.00000000000E+00  0.18587512259E+04  0.18587512259E+04  0.00000000000E+00 0.  1.
          1   -1    0    0  501    0  0.00000000000E+00 -0.00000000000E+00 -0.15130217349E+04  0.15130217349E+04  0.00000000000E+00 0. -1.
        -24    2    1    2    0    0  0.48017638563E+03 -0.99409034358E+03 -0.10275786345E+04  0.15103715584E+04  0.80742936277E+02 0.  0.
    5000000    2    1    2    0    0 -0.48017638563E+03  0.99409034358E+03  0.13733081255E+04  0.18614014023E+04  0.60004583194E+03 0.  0.
        -24    2    4    4    0    0 -0.53397015659E+03  0.48387073658E+03  0.67246172419E+03  0.98872501152E+03  0.78213554174E+02 0.  0.
         24    2    4    4    0    0  0.53793770952E+02  0.51021960700E+03  0.70084640136E+03  0.87267639082E+03  0.84620255525E+02 0.  0.
         11    1    3    3    0    0  0.40760301037E+03 -0.82900832693E+03 -0.81814947569E+03  0.12340030732E+04  0.00000000000E+00 0. -1.
        -12    1    3    3    0    0  0.72573375265E+02 -0.16508201664E+03 -0.20942915885E+03  0.27636848517E+03  0.00000000000E+00 0.  1.
         11    1    5    5    0    0 -0.16179023286E+03  0.18816373455E+03  0.20275307532E+03  0.32045355358E+03  0.00000000000E+00 0. -1.
        -12    1    5    5    0    0 -0.37217992372E+03  0.29570700203E+03  0.46970864887E+03  0.66827145794E+03  0.00000000000E+00 0.  1.
          2    1    6    6  502    0  0.62555887779E+00  0.30983042563E+03  0.37459555965E+03  0.48612459029E+03  0.00000000000E+00 0. -1.
         -1    1    6    6    0  502  0.53168212074E+02  0.20038918137E+03  0.32625084170E+03  0.38655180053E+03  0.00000000000E+00 0.  1.
<mgrwt>
<rscale>  0 0.11723936E+04</rscale>
<asrwt>0</asrwt>
<pdfrwt beam="1">  1        1 0.23277257E+00 0.11723936E+04</pdfrwt>
<pdfrwt beam="2">  1       -2 0.28596173E+00 0.11723936E+04</pdfrwt>
<totfact> 0.21373680E-01</totfact>
</mgrwt>
</event>
<event>
12    3  0.2269558E-007  0.6789849E+03  0.7818608E-02  0.9753861E-01
          1   -1    0    0  501    0  0.00000000000E+00  0.00000000000E+00  0.10783257446E+04  0.10783257446E+04  0.00000000000E+00 0. -1.
         -2   -1    0    0    0  501 -0.00000000000E+00 -0.00000000000E+00 -0.11256987821E+04  0.11256987821E+04  0.00000000000E+00 0.  1.
        -24    2    1    2    0    0 -0.45693679328E+03 -0.34232928237E+03 -0.86541019641E+03  0.10400064696E+04  0.81841787183E+02 0.  0.
    5000000    2    1    2    0    0  0.45693679328E+03  0.34232928237E+03  0.81803715893E+03  0.11640180570E+04  0.59981053097E+03 0.  0.
        -24    2    4    4    0    0  0.54443973134E+03  0.14831665237E+03  0.71677308124E+03  0.91577577628E+03  0.80431163097E+02 0.  0.
         24    2    4    4    0    0 -0.87502938063E+02  0.19401263001E+03  0.10126407769E+03  0.24824228074E+03  0.77924012634E+02 0.  0.
         11    1    3    3    0    0 -0.26850015065E+03 -0.17702091229E+03 -0.42109477767E+03  0.52985804331E+03  0.00000000000E+00 0. -1.
        -12    1    3    3    0    0 -0.18843664264E+03 -0.16530837009E+03 -0.44431541875E+03  0.51014842629E+03  0.00000000000E+00 0.  1.
         13    1    5    5    0    0  0.15400542185E+03  0.50310918219E+01  0.19362311065E+03  0.24745280524E+03  0.00000000000E+00 0. -1.
        -14    1    5    5    0    0  0.39043430950E+03  0.14328556054E+03  0.52314997059E+03  0.66832297104E+03  0.00000000000E+00 0.  1.
          4    1    6    6  502    0 -0.42741344375E+02  0.13525626568E+03  0.28750305029E+02  0.14473306451E+03  0.00000000000E+00 0. -1.
         -3    1    6    6    0  502 -0.44761593689E+02  0.58756364332E+02  0.72513772661E+02  0.10350921623E+03  0.00000000000E+00 0.  1.
<mgrwt>
<rscale>  0 0.67898485E+03</rscale>
<asrwt>0</asrwt>
<pdfrwt beam="1">  1        1 0.16589627E+00 0.67898485E+03</pdfrwt>
<pdfrwt beam="2">  1       -2 0.17318443E+00 0.67898485E+03</pdfrwt>
<totfact> 0.24328012E+00</totfact>
</mgrwt>
</event>
<event>
12    3  0.2269558E-007  0.2615751E+03  0.7818608E-02  0.1106201E+00
         -2   -1    0    0    0  501 -0.00000000000E+00  0.00000000000E+00  0.19682136093E+03  0.19682136093E+03  0.00000000000E+00 0.  1.
          1   -1    0    0  501    0  0.00000000000E+00 -0.00000000000E+00 -0.14718306919E+04  0.14718306919E+04  0.00000000000E+00 0. -1.
        -24    2    1    2    0    0 -0.72089388870E+02  0.51247050955E+02  0.10682968399E+03  0.15963885732E+03  0.79049624718E+02 0.  0.
    5000000    2    1    2    0    0  0.72089388870E+02 -0.51247050955E+02 -0.13818390149E+04  0.15090131955E+04  0.59984883158E+03 0.  0.
        -24    2    4    4    0    0  0.20629849013E+02 -0.21872187890E+03 -0.12583928044E+04  0.12799337051E+04  0.80081135470E+02 0.  0.
         24    2    4    4    0    0  0.51459539856E+02  0.16747482795E+03 -0.12344621052E+03  0.22907949040E+03  0.80885992540E+02 0.  0.
         13    1    3    3    0    0 -0.86997945862E+02  0.29723601258E+02  0.89033618875E+02  0.12798093743E+03  0.00000000000E+00 0. -1.
        -14    1    3    3    0    0  0.14908556993E+02  0.21523449697E+02  0.17796065111E+02  0.31657919893E+02  0.00000000000E+00 0.  1.
         13    1    5    5    0    0  0.23232249303E+02 -0.64811016972E+02 -0.22998680442E+03  0.24007110517E+03  0.00000000000E+00 0. -1.
        -14    1    5    5    0    0 -0.26024002900E+01 -0.15391086193E+03 -0.10284060000E+04  0.10398625999E+04  0.00000000000E+00 0.  1.
          4    1    6    6  502    0  0.46519452321E+02  0.66508856746E+02 -0.18256731681E+02  0.83191319989E+02  0.00000000000E+00 0. -1.
         -1    1    6    6    0  502  0.49400875352E+01  0.10096597120E+03 -0.10518947884E+03  0.14588817041E+03  0.00000000000E+00 0.  1.
<mgrwt>
<rscale>  0 0.26157505E+03</rscale>
<asrwt>0</asrwt>
<pdfrwt beam="1">  1        1 0.22643549E+00 0.26157505E+03</pdfrwt>
<pdfrwt beam="2">  1       -2 0.30280209E-01 0.26157505E+03</pdfrwt>
<totfact> 0.66942361E+01</totfact>
</mgrwt>
</event>
<event>
12    3  0.2269558E-007  0.5496964E+03  0.7818608E-02  0.1001564E+00
         -2   -1    0    0    0  501 -0.00000000000E+00  0.00000000000E+00  0.27387070928E+03  0.27387070928E+03  0.00000000000E+00 0.  1.
          1   -1    0    0  501    0  0.00000000000E+00 -0.00000000000E+00 -0.17775355219E+04  0.17775355219E+04  0.00000000000E+00 0. -1.
        -24    2    1    2    0    0  0.36074106214E+03 -0.35917043882E+03 -0.97614186806E+03  0.11040605626E+04  0.83422187326E+02 0.  0.
    5000000    2    1    2    0    0 -0.36074106214E+03  0.35917043882E+03 -0.52752294459E+03  0.94734566857E+03  0.60003819933E+03 0.  0.
        -24    2    4    4    0    0 -0.11351535148E+03  0.29859188514E+03 -0.58796249820E+03  0.67401227446E+03  0.80930821985E+02 0.  0.
         24    2    4    4    0    0 -0.24722571066E+03  0.60578553676E+02  0.60439553609E+02  0.27333339411E+03  0.79170016531E+02 0.  0.
         13    1    5    5    0    0 -0.92823475629E+02  0.13720109899E+03 -0.32497725021E+03  0.36476095233E+03  0.00000000000E+00 0. -1.
        -14    1    5    5    0    0 -0.20691875848E+02  0.16139078615E+03 -0.26298524798E+03  0.30925132213E+03  0.00000000000E+00 0.  1.
         13    1    3    3    0    0  0.15532280034E+03 -0.21200318116E+03 -0.47766724314E+03  0.54519401711E+03  0.00000000000E+00 0. -1.
        -14    1    3    3    0    0  0.20541826180E+03 -0.14716725766E+03 -0.49847462492E+03  0.55886654552E+03  0.00000000000E+00 0.  1.
          2    1    6    6  502    0 -0.79355913966E+02  0.30296417690E+02  0.57783507443E+02  0.10273347915E+03  0.00000000000E+00 0. -1.
         -1    1    6    6    0  502 -0.16786979669E+03  0.30282135986E+02  0.26560461662E+01  0.17059991496E+03  0.00000000000E+00 0.  1.
<mgrwt>
<rscale>  0 0.54969638E+03</rscale>
<asrwt>0</asrwt>
<pdfrwt beam="1">  1        1 0.27346699E+00 0.54969638E+03</pdfrwt>
<pdfrwt beam="2">  1       -2 0.42133957E-01 0.54969638E+03</pdfrwt>
<totfact> 0.21082184E+01</totfact>
</mgrwt>
</event>
<event>
12    3  0.2269558E-007  0.5147798E+03  0.7818608E-02  0.1009992E+00
         -4   -1    0    0    0  501 -0.00000000000E+00  0.00000000000E+00  0.11547755792E+04  0.11547755792E+04  0.00000000000E+00 0.  1.
          3   -1    0    0  501    0  0.00000000000E+00 -0.00000000000E+00 -0.68069321855E+03  0.68069321855E+03  0.00000000000E+00 0. -1.
        -24    2    1    2    0    0 -0.17545807376E+03  0.31939137341E+03  0.92765928458E+03  0.99976341713E+03  0.78605069284E+02 0.  0.
    5000000    2    1    2    0    0  0.17545807376E+03 -0.31939137341E+03 -0.45357692392E+03  0.83570538062E+03  0.59989588449E+03 0.  0.
        -24    2    4    4    0    0 -0.19367437734E+03 -0.13953758009E+03 -0.55354798599E+02  0.25805248169E+03  0.80910004814E+02 0.  0.
         24    2    4    4    0    0  0.36913245110E+03 -0.17985379332E+03 -0.39822212532E+03  0.57765289893E+03  0.80596880353E+02 0.  0.
         11    1    3    3    0    0 -0.87277035705E+02  0.23238008869E+03  0.58976741104E+03  0.63987763339E+03  0.00000000000E+00 0. -1.
        -12    1    3    3    0    0 -0.88181038055E+02  0.87011284721E+02  0.33789187353E+03  0.35988578374E+03  0.00000000000E+00 0.  1.
         13    1    5    5    0    0 -0.98704091968E+02 -0.63849776917E+02 -0.68245053293E+02  0.13592894866E+03  0.00000000000E+00 0. -1.
        -14    1    5    5    0    0 -0.94970285374E+02 -0.75687803177E+02  0.12890254694E+02  0.12212353303E+03  0.00000000000E+00 0.  1.
          2    1    6    6  502    0  0.24340329700E+03 -0.15969876012E+03 -0.27647255816E+03  0.40147968117E+03  0.00000000000E+00 0. -1.
         -1    1    6    6    0  502  0.12572915410E+03 -0.20155033201E+02 -0.12174956716E+03  0.17617321777E+03  0.00000000000E+00 0.  1.
<mgrwt>
<rscale>  0 0.51477976E+03</rscale>
<asrwt>0</asrwt>
<pdfrwt beam="1">  1        3 0.10472203E+00 0.51477976E+03</pdfrwt>
<pdfrwt beam="2">  1       -4 0.17765778E+00 0.51477976E+03</pdfrwt>
<totfact> 0.33497135E-01</totfact>
</mgrwt>
</event>
<event>
12    3  0.2269558E-007  0.9187427E+03  0.7818608E-02  0.9402451E-01
          1   -1    0    0  501    0  0.00000000000E+00  0.00000000000E+00  0.18692949520E+04  0.18692949520E+04  0.00000000000E+00 0. -1.
         -2   -1    0    0    0  501 -0.00000000000E+00 -0.00000000000E+00 -0.60207518193E+03  0.60207518193E+03  0.00000000000E+00 0.  1.
        -24    2    1    2    0    0 -0.84453697037E+03 -0.78399967199E+02  0.11424060462E+04  0.14250227730E+04  0.78797715364E+02 0.  0.
    5000000    2    1    2    0    0  0.84453697037E+03  0.78399967199E+02  0.12481372388E+03  0.10463473610E+04  0.59989589509E+03 0.  0.
        -24    2    4    4    0    0  0.40091291151E+03  0.28359916359E+03  0.21705651658E+03  0.54262459391E+03  0.78538336632E+02 0.  0.
         24    2    4    4    0    0  0.44362405886E+03 -0.20519919639E+03 -0.92242792697E+02  0.50372276706E+03  0.79491367149E+02 0.  0.
         13    1    3    3    0    0 -0.18566071353E+03  0.84238362597E+01  0.21698073664E+03  0.28569477006E+03  0.00000000000E+00 0. -1.
        -14    1    3    3    0    0 -0.65887625684E+03 -0.86823803459E+02  0.92542530957E+03  0.11393280029E+04  0.00000000000E+00 0.  1.
         13    1    5    5    0    0  0.22096412655E+03  0.13927324295E+03  0.15509845663E+03  0.30377246859E+03  0.00000000000E+00 0. -1.
        -14    1    5    5    0    0  0.17994878496E+03  0.14432592063E+03  0.61958059947E+02  0.23885212531E+03  0.00000000000E+00 0.  1.
          2    1    6    6  502    0  0.11951816641E+03 -0.95623639198E+02 -0.30230572463E+02  0.15602038324E+03  0.00000000000E+00 0. -1.
         -1    1    6    6    0  502  0.32410589244E+03 -0.10957555719E+03 -0.62012220234E+02  0.34770238381E+03  0.00000000000E+00 0.  1.
<mgrwt>
<rscale>  0 0.91874271E+03</rscale>
<asrwt>0</asrwt>
<pdfrwt beam="1">  1        1 0.28758384E+00 0.91874271E+03</pdfrwt>
<pdfrwt beam="2">  1       -2 0.92626952E-01 0.91874271E+03</pdfrwt>
<totfact> 0.32208474E+00</totfact>
</mgrwt>
</event>
<event>
12    3  0.2269558E-007  0.6760388E+03  0.7818608E-02  0.9759110E-01
          1   -1    0    0  501    0  0.00000000000E+00  0.00000000000E+00  0.13872086358E+04  0.13872086358E+04  0.00000000000E+00 0. -1.
         -2   -1    0    0    0  501 -0.00000000000E+00 -0.00000000000E+00 -0.33538396270E+03  0.33538396270E+03  0.00000000000E+00 0.  1.
        -24    2    1    2    0    0  0.47547388381E+03  0.26274065218E+03  0.50374495613E+03  0.74516616607E+03  0.80034803274E+02 0.  0.
    5000000    2    1    2    0    0 -0.47547388381E+03 -0.26274065218E+03  0.54807971700E+03  0.97742643245E+03  0.59988581428E+03 0.  0.
        -24    2    4    4    0    0  0.94524213387E+02 -0.18910152499E+03  0.12098530555E+03  0.25691667808E+03  0.81697745677E+02 0.  0.
         24    2    4    4    0    0 -0.56999809720E+03 -0.73639127194E+02  0.42709441145E+03  0.72050975437E+03  0.80025733272E+02 0.  0.
         13    1    3    3    0    0  0.72125099383E+02  0.96842774237E+01  0.73201985075E+02  0.10321989057E+03  0.00000000000E+00 0. -1.
        -14    1    3    3    0    0  0.40334878443E+03  0.25305637476E+03  0.43054297105E+03  0.64194627550E+03  0.00000000000E+00 0.  1.
         13    1    5    5    0    0  0.43846276419E+02 -0.23621252810E+02  0.47737640983E+02  0.68987983785E+02  0.00000000000E+00 0. -1.
        -14    1    5    5    0    0  0.50677936967E+02 -0.16548027218E+03  0.73247664566E+02  0.18792869430E+03  0.00000000000E+00 0.  1.
          2    1    6    6  502    0 -0.13669671216E+03  0.16525973782E+02  0.10257129150E+03  0.17169731729E+03  0.00000000000E+00 0. -1.
         -1    1    6    6    0  502 -0.43330138504E+03 -0.90165100976E+02  0.32452311995E+03  0.54881243708E+03  0.00000000000E+00 0.  1.
<mgrwt>
<rscale>  0 0.67603876E+03</rscale>
<asrwt>0</asrwt>
<pdfrwt beam="1">  1        1 0.21341671E+00 0.67603876E+03</pdfrwt>
<pdfrwt beam="2">  1       -2 0.51597534E-01 0.67603876E+03</pdfrwt>
<totfact> 0.25327899E+01</totfact>
</mgrwt>
</event>
<event>
12    3  0.2269558E-007  0.4437608E+03  0.7818608E-02  0.1029599E+00
         -2   -1    0    0    0  501 -0.00000000000E+00  0.00000000000E+00  0.27156159113E+03  0.27156159113E+03  0.00000000000E+00 0.  1.
          1   -1    0    0  501    0  0.00000000000E+00 -0.00000000000E+00 -0.78081933405E+03  0.78081933405E+03  0.00000000000E+00 0. -1.
        -24    2    1    2    0    0 -0.40115897157E+02 -0.23971523101E+03 -0.24135756462E+03  0.35164550799E+03  0.79551317466E+02 0.  0.
    5000000    2    1    2    0    0  0.40115897157E+02  0.23971523101E+03 -0.26790017831E+03  0.70073541719E+03  0.60015576493E+03 0.  0.
        -24    2    4    4    0    0  0.69473839570E+02 -0.18350983275E+03 -0.12524545641E+03  0.24630262072E+03  0.80474117090E+02 0.  0.
         24    2    4    4    0    0 -0.29357942412E+02  0.42322506376E+03 -0.14265472189E+03  0.45443279646E+03  0.78596777580E+02 0.  0.
         11    1    5    5    0    0 -0.15957367419E+02 -0.49424307628E+02 -0.20099040022E+02  0.55689955730E+02  0.00000000000E+00 0. -1.
        -12    1    5    5    0    0  0.85431206989E+02 -0.13408552512E+03 -0.10514641639E+03  0.19061266499E+03  0.00000000000E+00 0.  1.
         13    1    3    3    0    0 -0.80904532129E+01 -0.14468694601E+03 -0.19007078508E+03  0.23901186398E+03  0.00000000000E+00 0. -1.
        -14    1    3    3    0    0 -0.32025443944E+02 -0.95028284997E+02 -0.51286779536E+02  0.11263364402E+03  0.00000000000E+00 0.  1.
          4    1    6    6  502    0  0.93786073869E+01  0.33401516309E+03 -0.10738575130E+03  0.35097832844E+03  0.00000000000E+00 0. -1.
         -3    1    6    6    0  502 -0.38736549799E+02  0.89209900672E+02 -0.35268970592E+02  0.10345446803E+03  0.00000000000E+00 0.  1.
<mgrwt>
<rscale>  0 0.44376083E+03</rscale>
<asrwt>0</asrwt>
<pdfrwt beam="1">  1        1 0.12012605E+00 0.44376083E+03</pdfrwt>
<pdfrwt beam="2">  1       -2 0.41778707E-01 0.44376083E+03</pdfrwt>
<totfact> 0.11391071E+02</totfact>
</mgrwt>
</event>
<event>
12    3  0.2269558E-007  0.1000841E+04  0.7818608E-02  0.9307623E-01
         -2   -1    0    0    0  501 -0.00000000000E+00  0.00000000000E+00  0.11253296111E+04  0.11253296111E+04  0.00000000000E+00 0.  1.
          1   -1    0    0  501    0  0.00000000000E+00 -0.00000000000E+00 -0.12950107881E+04  0.12950107881E+04  0.00000000000E+00 0. -1.
        -24    2    1    2    0    0  0.95697897774E+03 -0.19379259637E+03  0.49243359685E+03  0.10966893919E+04  0.82900185283E+02 0.  0.
    5000000    2    1    2    0    0 -0.95697897774E+03  0.19379259637E+03 -0.66211477383E+03  0.13236510073E+04  0.60024301842E+03 0.  0.
        -24    2    4    4    0    0 -0.10011918594E+03 -0.72209434835E+02  0.71071136965E+02  0.16216708931E+03  0.77517768758E+02 0.  0.
         24    2    4    4    0    0 -0.85685979180E+03  0.26600203121E+03 -0.73318591079E+03  0.11614839180E+04  0.80731211772E+02 0.  0.
         11    1    3    3    0    0  0.50525719039E+03 -0.60774928432E+02  0.24725821672E+03  0.56578710315E+03  0.00000000000E+00 0. -1.
        -12    1    3    3    0    0  0.45172178735E+03 -0.13301766794E+03  0.24517538013E+03  0.53090228873E+03  0.00000000000E+00 0.  1.
         11    1    5    5    0    0 -0.16994074570E+02 -0.14935292016E+02  0.55619982716E+02  0.60045349491E+02  0.00000000000E+00 0. -1.
        -12    1    5    5    0    0 -0.83125111372E+02 -0.57274142820E+02  0.15451154249E+02  0.10212173982E+03  0.00000000000E+00 0.  1.
          4    1    6    6  502    0 -0.49637286741E+02  0.26724271174E+02 -0.26592688219E+02  0.62331516679E+02  0.00000000000E+00 0. -1.
         -3    1    6    6    0  502 -0.80722250506E+03  0.23927776003E+03 -0.70659322257E+03  0.10991524013E+04  0.00000000000E+00 0.  1.
<mgrwt>
<rscale>  0 0.10008414E+04</rscale>
<asrwt>0</asrwt>
<pdfrwt beam="1">  1        1 0.19923243E+00 0.10008414E+04</pdfrwt>
<pdfrwt beam="2">  1       -2 0.17312763E+00 0.10008414E+04</pdfrwt>
<totfact> 0.16147286E+00</totfact>
</mgrwt>
</event>
<event>
12    3  0.2269558E-007  0.8175183E+03  0.7818608E-02  0.9535001E-01
         -2   -1    0    0    0  501 -0.00000000000E+00  0.00000000000E+00  0.44105888398E+03  0.44105888398E+03  0.00000000000E+00 0.  1.
          1   -1    0    0  501    0  0.00000000000E+00 -0.00000000000E+00 -0.16134739198E+04  0.16134739198E+04  0.00000000000E+00 0. -1.
        -24    2    1    2    0    0 -0.49200471340E+03 -0.52923106028E+03 -0.35376353930E+03  0.80859300587E+03  0.80745614263E+02 0.  0.
    5000000    2    1    2    0    0  0.49200471340E+03  0.52923106028E+03 -0.81865149648E+03  0.12459397979E+04  0.60001796143E+03 0.  0.
        -24    2    4    4    0    0  0.17128314370E+03 -0.91342872321E+02 -0.33094564534E+03  0.39037905240E+03  0.72037134427E+02 0.  0.
         24    2    4    4    0    0  0.32072156970E+03  0.62057393260E+03 -0.48770585113E+03  0.85556074547E+03  0.78440173739E+02 0.  0.
         13    1    3    3    0    0 -0.33413970078E+03 -0.30238172548E+03 -0.21351145899E+03  0.49866942022E+03  0.00000000000E+00 0. -1.
        -14    1    3    3    0    0 -0.15786501263E+03 -0.22684933480E+03 -0.14025208031E+03  0.30992358565E+03  0.00000000000E+00 0.  1.
         13    1    5    5    0    0  0.61754778191E+02 -0.70266465583E+02 -0.12448593476E+03  0.15571697649E+03  0.00000000000E+00 0. -1.
        -14    1    5    5    0    0  0.10952836551E+03 -0.21076406738E+02 -0.20645971058E+03  0.23466207590E+03  0.00000000000E+00 0.  1.
          2    1    6    6  502    0  0.13362879980E+03  0.34376998593E+03 -0.25832660256E+03  0.45029667215E+03  0.00000000000E+00 0. -1.
         -3    1    6    6    0  502  0.18709276990E+03  0.27680394667E+03 -0.22937924858E+03  0.40526407331E+03  0.00000000000E+00 0.  1.
<mgrwt>
<rscale>  0 0.81751829E+03</rscale>
<asrwt>0</asrwt>
<pdfrwt beam="1">  1        1 0.24822676E+00 0.81751829E+03</pdfrwt>
<pdfrwt beam="2">  1       -2 0.67855213E-01 0.81751829E+03</pdfrwt>
<totfact> 0.97772970E+00</totfact>
</mgrwt>
</event>
<event>
12    3  0.2269558E-007  0.8388418E+03  0.7818608E-02  0.9505437E-01
          1   -1    0    0  501    0  0.00000000000E+00  0.00000000000E+00  0.21433801294E+04  0.21433801294E+04  0.00000000000E+00 0. -1.
         -2   -1    0    0    0  501 -0.00000000000E+00 -0.00000000000E+00 -0.33576491367E+03  0.33576491367E+03  0.00000000000E+00 0.  1.
        -24    2    1    2    0    0 -0.12337095159E+03 -0.72416704645E+03  0.91961188018E+03  0.11795485639E+04  0.77527424125E+02 0.  0.
    5000000    2    1    2    0    0  0.12337095159E+03  0.72416704645E+03  0.88800333559E+03  0.12995964792E+04  0.60063531527E+03 0.  0.
        -24    2    4    4    0    0 -0.45471538496E+02  0.75397715255E+03  0.70515328968E+03  0.10365886513E+04  0.82010137206E+02 0.  0.
         24    2    4    4    0    0  0.16884249008E+03 -0.29810106092E+02  0.18285004592E+03  0.26300782797E+03  0.79640124317E+02 0.  0.
         11    1    3    3    0    0 -0.47156047334E+02 -0.21329617234E+03  0.32920205199E+03  0.39508599186E+03  0.00000000000E+00 0. -1.
        -12    1    3    3    0    0 -0.76214904253E+02 -0.51087087412E+03  0.59040982820E+03  0.78446257201E+03  0.00000000000E+00 0.  1.
         11    1    5    5    0    0 -0.67519660403E+02  0.62719490935E+03  0.57490413074E+03  0.85349113551E+03  0.00000000000E+00 0. -1.
        -12    1    5    5    0    0  0.22048121908E+02  0.12678224320E+03  0.13024915893E+03  0.18309751575E+03  0.00000000000E+00 0.  1.
          4    1    6    6  502    0  0.55274014761E+02  0.20555891339E+02  0.30400469491E+02  0.66347192268E+02  0.00000000000E+00 0. -1.
         -3    1    6    6    0  502  0.11356847532E+03 -0.50365997431E+02  0.15244957642E+03  0.19666063571E+03  0.00000000000E+00 0.  1.
<mgrwt>
<rscale>  0 0.83884181E+03</rscale>
<asrwt>0</asrwt>
<pdfrwt beam="1">  1        1 0.32975078E+00 0.83884181E+03</pdfrwt>
<pdfrwt beam="2">  1       -2 0.51656142E-01 0.83884181E+03</pdfrwt>
<totfact> 0.76348346E+00</totfact>
</mgrwt>
</event>
<event>
12    3  0.2269558E-007  0.4220389E+03  0.7818608E-02  0.1036405E+00
         -2   -1    0    0    0  501 -0.00000000000E+00  0.00000000000E+00  0.54121519690E+03  0.54121519690E+03  0.00000000000E+00 0.  1.
          1   -1    0    0  501    0  0.00000000000E+00 -0.00000000000E+00 -0.11801231945E+04  0.11801231945E+04  0.00000000000E+00 0. -1.
        -24    2    1    2    0    0  0.34829604918E+03  0.18655055320E+03 -0.87643697455E+03  0.96457742515E+03  0.78463953370E+02 0.  0.
    5000000    2    1    2    0    0 -0.34829604918E+03 -0.18655055320E+03  0.23752897692E+03  0.75676096628E+03  0.60012990130E+03 0.  0.
        -24    2    4    4    0    0 -0.16187837358E+02  0.83137259044E+01  0.33988097869E+03  0.34959261657E+03  0.79779406918E+02 0.  0.
         24    2    4    4    0    0 -0.33210821183E+03 -0.19486427910E+03 -0.10235200177E+03  0.40716834972E+03  0.83917704404E+02 0.  0.
         11    1    3    3    0    0  0.13237585605E+03  0.92436557745E+02 -0.43914997878E+03  0.46788950441E+03  0.00000000000E+00 0. -1.
        -12    1    3    3    0    0  0.21592019313E+03  0.94113995453E+02 -0.43728699576E+03  0.49668792074E+03  0.00000000000E+00 0.  1.
         13    1    5    5    0    0  0.18846474016E+01  0.29938902103E+02  0.49737683523E+02  0.58083792207E+02  0.00000000000E+00 0. -1.
        -14    1    5    5    0    0 -0.18072484759E+02 -0.21625176198E+02  0.29014329516E+03  0.29150882436E+03  0.00000000000E+00 0.  1.
          4    1    6    6  502    0 -0.32030362699E+03 -0.17295906681E+03 -0.11141321575E+03  0.38068642857E+03  0.00000000000E+00 0. -1.
         -3    1    6    6    0  502 -0.11804584840E+02 -0.21905212292E+02  0.90612139835E+01  0.26481921148E+02  0.00000000000E+00 0.  1.
<mgrwt>
<rscale>  0 0.42203888E+03</rscale>
<asrwt>0</asrwt>
<pdfrwt beam="1">  1        1 0.18155741E+00 0.42203888E+03</pdfrwt>
<pdfrwt beam="2">  1       -2 0.83263878E-01 0.42203888E+03</pdfrwt>
<totfact> 0.13239312E+01</totfact>
</mgrwt>
</event>
<event>
12    3  0.2269558E-007  0.9341342E+03  0.7818608E-02  0.9383890E-01
          1   -1    0    0  501    0  0.00000000000E+00  0.00000000000E+00  0.12945710327E+04  0.12945710327E+04  0.00000000000E+00 0. -1.
         -2   -1    0    0    0  501 -0.00000000000E+00 -0.00000000000E+00 -0.10192926604E+04  0.10192926604E+04  0.00000000000E+00 0.  1.
        -24    2    1    2    0    0  0.93521807401E+02 -0.84760180451E+03 -0.52036483969E+03  0.10022095033E+04  0.80431179632E+02 0.  0.
    5000000    2    1    2    0    0 -0.93521807401E+02  0.84760180451E+03  0.79564321203E+03  0.13116541898E+04  0.60017784476E+03 0.  0.
        -24    2    4    4    0    0  0.15861904881E+03  0.39186585832E+02  0.74957996504E+02  0.19569412273E+03  0.77342726074E+02 0.  0.
         24    2    4    4    0    0 -0.25214085621E+03  0.80841521868E+03  0.72068521553E+03  0.11159600671E+04  0.94178098792E+02 0.  0.
         11    1    3    3    0    0  0.66552226145E+02 -0.69884537282E+03 -0.39298551192E+03  0.80451952524E+03  0.00000000000E+00 0. -1.
        -12    1    3    3    0    0  0.26969581257E+02 -0.14875643169E+03 -0.12737932777E+03  0.19768997806E+03  0.00000000000E+00 0.  1.
         13    1    5    5    0    0  0.83602704180E+02  0.25943863139E+02 -0.17976788949E+01  0.87554142279E+02  0.00000000000E+00 0. -1.
        -14    1    5    5    0    0  0.75016344628E+02  0.13242722693E+02  0.76755675399E+02  0.10813998045E+03  0.00000000000E+00 0.  1.
          4    1    6    6  502    0 -0.10370480207E+03  0.47833338983E+03  0.39224938399E+03  0.62722970038E+03  0.00000000000E+00 0. -1.
         -3    1    6    6    0  502 -0.14843605413E+03  0.33008182885E+03  0.32843583154E+03  0.48873036671E+03  0.00000000000E+00 0.  1.
<mgrwt>
<rscale>  0 0.93413417E+03</rscale>
<asrwt>0</asrwt>
<pdfrwt beam="1">  1        1 0.19916478E+00 0.93413417E+03</pdfrwt>
<pdfrwt beam="2">  1       -2 0.15681425E+00 0.93413417E+03</pdfrwt>
<totfact> 0.21400088E+00</totfact>
</mgrwt>
</event>
<event>
12    3  0.2269558E-007  0.5902577E+03  0.7818608E-02  0.9925827E-01
         -2   -1    0    0    0  501 -0.00000000000E+00  0.00000000000E+00  0.33436619192E+03  0.33436619192E+03  0.00000000000E+00 0.  1.
          1   -1    0    0  501    0  0.00000000000E+00 -0.00000000000E+00 -0.12417860560E+04  0.12417860560E+04  0.00000000000E+00 0. -1.
        -24    2    1    2    0    0 -0.39699532846E+03  0.25285522175E+03 -0.14839458666E+03  0.50023690586E+03  0.81700395652E+02 0.  0.
    5000000    2    1    2    0    0  0.39699532846E+03 -0.25285522175E+03 -0.75902527739E+03  0.10759153420E+04  0.59994449536E+03 0.  0.
        -24    2    4    4    0    0  0.41716458963E+03  0.23020453111E+02 -0.63220422539E+03  0.76184028586E+03  0.78499697173E+02 0.  0.
         24    2    4    4    0    0 -0.20169261171E+02 -0.27587567486E+03 -0.12682105200E+03  0.31407505617E+03  0.77752007053E+02 0.  0.
         11    1    3    3    0    0 -0.48158510935E+02  0.39350965107E+02 -0.49439177301E+02  0.79447925602E+02  0.00000000000E+00 0. -1.
        -12    1    3    3    0    0 -0.34883681752E+03  0.21350425664E+03 -0.98955409364E+02  0.42078898026E+03  0.00000000000E+00 0.  1.
         13    1    5    5    0    0  0.15665203167E+03  0.38173178185E+02 -0.19913021777E+03  0.25622235302E+03  0.00000000000E+00 0. -1.
        -14    1    5    5    0    0  0.26051255796E+03 -0.15152725074E+02 -0.43307400762E+03  0.50561793284E+03  0.00000000000E+00 0.  1.
          2    1    6    6  502    0  0.26791576580E+02 -0.15811049617E+03 -0.65230730871E+02  0.17312355652E+03  0.00000000000E+00 0. -1.
         -1    1    6    6    0  502 -0.46960837752E+02 -0.11776517870E+03 -0.61590321125E+02  0.14095149964E+03  0.00000000000E+00 0.  1.
<mgrwt>
<rscale>  0 0.59025774E+03</rscale>
<asrwt>0</asrwt>
<pdfrwt beam="1">  1        1 0.19104401E+00 0.59025774E+03</pdfrwt>
<pdfrwt beam="2">  1       -2 0.51440953E-01 0.59025774E+03</pdfrwt>
<totfact> 0.32597703E+01</totfact>
</mgrwt>
</event>
<event>
12    3  0.2269558E-007  0.4311628E+03  0.7818608E-02  0.1033493E+00
          1   -1    0    0  501    0  0.00000000000E+00  0.00000000000E+00  0.20908245142E+04  0.20908245142E+04  0.00000000000E+00 0. -1.
         -2   -1    0    0    0  501 -0.00000000000E+00 -0.00000000000E+00 -0.12126202086E+03  0.12126202086E+03  0.00000000000E+00 0.  1.
        -24    2    1    2    0    0  0.66785350672E+02  0.22644271907E+03  0.18313133383E+03  0.31284910817E+03  0.92740988642E+02 0.  0.
    5000000    2    1    2    0    0 -0.66785350672E+02 -0.22644271907E+03  0.17864311595E+04  0.18992374269E+04  0.60002493943E+03 0.  0.
        -24    2    4    4    0    0 -0.22172589242E+03 -0.34646775177E+03  0.98226982199E+03  0.10678656376E+04  0.79251134894E+02 0.  0.
         24    2    4    4    0    0  0.15494054175E+03  0.12002503270E+03  0.80416133748E+03  0.83137178925E+03  0.78044957005E+02 0.  0.
         11    1    3    3    0    0  0.18412710867E+02  0.10436010068E+03  0.13799776043E+03  0.17399264473E+03  0.00000000000E+00 0. -1.
        -12    1    3    3    0    0  0.48372639805E+02  0.12208261838E+03  0.45133573394E+02  0.13885646344E+03  0.00000000000E+00 0.  1.
         13    1    5    5    0    0 -0.53805270318E+02 -0.41642953942E+02  0.21138807295E+03  0.22206769263E+03  0.00000000000E+00 0. -1.
        -14    1    5    5    0    0 -0.16792062210E+03 -0.30482479783E+03  0.77088174904E+03  0.84579794497E+03  0.00000000000E+00 0.  1.
          2    1    6    6  502    0  0.91284352955E+02  0.25069319270E+02  0.42148867815E+03  0.43198843697E+03  0.00000000000E+00 0. -1.
         -1    1    6    6    0  502  0.63656188795E+02  0.94955713431E+02  0.38267265933E+03  0.39938335229E+03  0.00000000000E+00 0.  1.
<mgrwt>
<rscale>  0 0.43116278E+03</rscale>
<asrwt>0</asrwt>
<pdfrwt beam="1">  1        1 0.32166528E+00 0.43116278E+03</pdfrwt>
<pdfrwt beam="2">  1       -2 0.18655697E-01 0.43116278E+03</pdfrwt>
<totfact> 0.59316248E+01</totfact>
</mgrwt>
</event>
<event>
12    3  0.2269558E-007  0.4248231E+03  0.7818608E-02  0.1035508E+00
         -2   -1    0    0    0  501 -0.00000000000E+00  0.00000000000E+00  0.45452057469E+03  0.45452057469E+03  0.00000000000E+00 0.  1.
          1   -1    0    0  501    0  0.00000000000E+00 -0.00000000000E+00 -0.63065976245E+03  0.63065976245E+03  0.00000000000E+00 0. -1.
        -24    2    1    2    0    0 -0.12531432288E+03 -0.33212803065E+03 -0.12973899364E+03  0.38643862835E+03  0.80559907795E+02 0.  0.
    5000000    2    1    2    0    0  0.12531432288E+03  0.33212803065E+03 -0.46400194124E+02  0.69874170879E+03  0.60006190458E+03 0.  0.
        -24    2    4    4    0    0 -0.89110117256E+02 -0.32102925879E+01  0.19315376800E+03  0.22741394112E+03  0.80360460106E+02 0.  0.
         24    2    4    4    0    0  0.21442444014E+03  0.33533832324E+03 -0.23955396212E+03  0.47132776767E+03  0.79587261840E+02 0.  0.
         11    1    5    5    0    0 -0.41535356798E+02  0.41588178143E+01  0.17466344664E+02  0.45249915203E+02  0.00000000000E+00 0. -1.
        -12    1    5    5    0    0 -0.47574760458E+02 -0.73691104022E+01  0.17568742334E+03  0.18216402592E+03  0.00000000000E+00 0.  1.
         11    1    3    3    0    0 -0.96530380638E+02 -0.24842895850E+03 -0.13300529894E+03  0.29786821138E+03  0.00000000000E+00 0. -1.
        -12    1    3    3    0    0 -0.28783942243E+02 -0.83699072156E+02  0.32663053036E+01  0.88570416964E+02  0.00000000000E+00 0.  1.
          2    1    6    6  502    0  0.12313155409E+03  0.25477598576E+03 -0.15070151493E+03  0.32059808037E+03  0.00000000000E+00 0. -1.
         -1    1    6    6    0  502  0.91292886044E+02  0.80562337481E+02 -0.88852447189E+02  0.15072968730E+03  0.00000000000E+00 0.  1.
<mgrwt>
<rscale>  0 0.42482314E+03</rscale>
<asrwt>0</asrwt>
<pdfrwt beam="1">  1        1 0.97024579E-01 0.42482314E+03</pdfrwt>
<pdfrwt beam="2">  1       -2 0.69926242E-01 0.42482314E+03</pdfrwt>
<totfact> 0.54538070E+01</totfact>
</mgrwt>
</event>
<event>
12    3  0.2269558E-007  0.3949548E+03  0.7818608E-02  0.1045541E+00
         -2   -1    0    0    0  501 -0.00000000000E+00  0.00000000000E+00  0.51720049246E+02  0.51720049246E+02  0.00000000000E+00 0.  1.
          1   -1    0    0  501    0  0.00000000000E+00 -0.00000000000E+00 -0.35205925216E+04  0.35205925216E+04  0.00000000000E+00 0. -1.
        -24    2    1    2    0    0 -0.81540191373E+02  0.18471254658E+03 -0.10501347229E+04  0.10721854656E+04  0.77660857253E+02 0.  0.
    5000000    2    1    2    0    0  0.81540191373E+02 -0.18471254658E+03 -0.24187377494E+04  0.25001271052E+04  0.59964632413E+03 0.  0.
        -24    2    4    4    0    0  0.93824860488E+02 -0.37158901840E+03 -0.19588162332E+04  0.19975295282E+04  0.79257034590E+02 0.  0.
         24    2    4    4    0    0 -0.12284669114E+02  0.18687647182E+03 -0.45992151621E+03  0.50259757700E+03  0.77477703333E+02 0.  0.
         11    1    3    3    0    0 -0.78080000989E+02  0.18255286998E+03 -0.10494284222E+04  0.10680459027E+04  0.00000000000E+00 0. -1.
        -12    1    3    3    0    0 -0.34601903843E+01  0.21596766001E+01 -0.70630068222E+00  0.41395629197E+01  0.00000000000E+00 0.  1.
         13    1    5    5    0    0  0.81028201303E+02 -0.24551171633E+03 -0.14695045878E+04  0.14920741623E+04  0.00000000000E+00 0. -1.
        -14    1    5    5    0    0  0.12796659185E+02 -0.12607730207E+03 -0.48931164546E+03  0.50545536594E+03  0.00000000000E+00 0.  1.
          4    1    6    6  502    0  0.18811392787E+02  0.15944883298E+03 -0.34831377981E+03  0.38353655373E+03  0.00000000000E+00 0. -1.
         -3    1    6    6    0  502 -0.31096061901E+02  0.27427638841E+02 -0.11160773640E+03  0.11906102327E+03  0.00000000000E+00 0.  1.
<mgrwt>
<rscale>  0 0.39495476E+03</rscale>
<asrwt>0</asrwt>
<pdfrwt beam="1">  1        1 0.54162971E+00 0.39495476E+03</pdfrwt>
<pdfrwt beam="2">  1       -2 0.79569293E-02 0.39495476E+03</pdfrwt>
<totfact> 0.24317129E+01</totfact>
</mgrwt>
</event>
<event>
12    3  0.2269558E-007  0.5139709E+03  0.7818608E-02  0.1010195E+00
         -2   -1    0    0    0  501 -0.00000000000E+00  0.00000000000E+00  0.16203565868E+04  0.16203565868E+04  0.00000000000E+00 0.  1.
          1   -1    0    0  501    0  0.00000000000E+00 -0.00000000000E+00 -0.23126284863E+03  0.23126284863E+03  0.00000000000E+00 0. -1.
        -24    2    1    2    0    0 -0.40196592293E+03  0.20374347208E+03  0.67539013357E+03  0.81598300342E+03  0.81169105856E+02 0.  0.
    5000000    2    1    2    0    0  0.40196592293E+03 -0.20374347208E+03  0.71370360464E+03  0.10356364321E+04  0.60006831153E+03 0.  0.
        -24    2    4    4    0    0  0.40635745036E+03 -0.25509726910E+03  0.22242253394E+03  0.53495018609E+03  0.80615903034E+02 0.  0.
         24    2    4    4    0    0 -0.43915274345E+01  0.51353797027E+02  0.49128107070E+03  0.50068624596E+03  0.81689218903E+02 0.  0.
         11    1    5    5    0    0  0.57286490807E+01 -0.13867411812E+01 -0.61603188149E+01  0.85258430255E+01  0.00000000000E+00 0. -1.
        -12    1    5    5    0    0  0.40062880128E+03 -0.25371052792E+03  0.22858285276E+03  0.52642434306E+03  0.00000000000E+00 0.  1.
         13    1    3    3    0    0 -0.25290010256E+03  0.84313528917E+02  0.40824052535E+03  0.48757313253E+03  0.00000000000E+00 0. -1.
        -14    1    3    3    0    0 -0.14906582037E+03  0.11942994316E+03  0.26714960822E+03  0.32840987089E+03  0.00000000000E+00 0.  1.
          2    1    6    6  502    0 -0.39170940100E+02  0.30972039992E+02  0.17973580174E+03  0.18654379710E+03  0.00000000000E+00 0. -1.
         -1    1    6    6    0  502  0.34779412665E+02  0.20381757036E+02  0.31154526896E+03  0.31414244886E+03  0.00000000000E+00 0.  1.
<mgrwt>
<rscale>  0 0.51397086E+03</rscale>
<asrwt>0</asrwt>
<pdfrwt beam="1">  1        1 0.35578901E-01 0.51397086E+03</pdfrwt>
<pdfrwt beam="2">  1       -2 0.24928562E+00 0.51397086E+03</pdfrwt>
<totfact> 0.74135287E+00</totfact>
</mgrwt>
</event>
<event>
12    3  0.2269558E-007  0.6417905E+03  0.7818608E-02  0.9822307E-01
          1   -1    0    0  501    0  0.00000000000E+00  0.00000000000E+00  0.89827433411E+03  0.89827433411E+03  0.00000000000E+00 0. -1.
         -2   -1    0    0    0  501 -0.00000000000E+00 -0.00000000000E+00 -0.47568674576E+03  0.47568674576E+03  0.00000000000E+00 0.  1.
        -24    2    1    2    0    0  0.31863858133E+03 -0.39315124737E+03  0.25023882207E+03  0.57040733000E+03  0.81526714795E+02 0.  0.
    5000000    2    1    2    0    0 -0.31863858133E+03  0.39315124737E+03  0.17234876627E+03  0.80355374987E+03  0.59991339614E+03 0.  0.
        -24    2    4    4    0    0 -0.39925302233E+03  0.48069104849E+03  0.19581887296E+03  0.65822271425E+03  0.66672712671E+02 0.  0.
         24    2    4    4    0    0  0.80614440994E+02 -0.87539801118E+02 -0.23470106685E+02  0.14533103562E+03  0.80052227512E+02 0.  0.
         11    1    3    3    0    0  0.10259283404E+03 -0.71479749904E+02  0.57369230268E+02  0.13757133722E+03  0.00000000000E+00 0. -1.
        -12    1    3    3    0    0  0.21604574729E+03 -0.32167149747E+03  0.19286959180E+03  0.43283599278E+03  0.00000000000E+00 0.  1.
         13    1    5    5    0    0 -0.25278162972E+03  0.25483763120E+03  0.12170734166E+03  0.37901642130E+03  0.00000000000E+00 0. -1.
        -14    1    5    5    0    0 -0.14647139260E+03  0.22585341729E+03  0.74111531301E+02  0.27920629295E+03  0.00000000000E+00 0.  1.
          2    1    6    6  502    0  0.14147084499E+01 -0.58568719562E+02 -0.15631570771E+02  0.60635322346E+02  0.00000000000E+00 0. -1.
         -1    1    6    6    0  502  0.79199732545E+02 -0.28971081556E+02 -0.78385359133E+01  0.84695713273E+02  0.00000000000E+00 0.  1.
<mgrwt>
<rscale>  0 0.64179051E+03</rscale>
<asrwt>0</asrwt>
<pdfrwt beam="1">  1        1 0.13819605E+00 0.64179051E+03</pdfrwt>
<pdfrwt beam="2">  1       -2 0.73182577E-01 0.64179051E+03</pdfrwt>
<totfact> 0.27871787E+01</totfact>
</mgrwt>
</event>
<event>
12    3  0.2269558E-007  0.1617972E+04  0.7818608E-02  0.8809583E-01
          1   -1    0    0  501    0  0.00000000000E+00  0.00000000000E+00  0.16565587012E+04  0.16565587012E+04  0.00000000000E+00 0. -1.
         -2   -1    0    0    0  501 -0.00000000000E+00 -0.00000000000E+00 -0.19643241831E+04  0.19643241831E+04  0.00000000000E+00 0.  1.
        -24    2    1    2    0    0 -0.12804664902E+04 -0.97358001239E+03  0.54958406121E+03  0.17018669092E+04  0.82800140196E+02 0.  0.
    5000000    2    1    2    0    0  0.12804664902E+04  0.97358001239E+03 -0.85734954317E+03  0.19190159751E+04  0.60010132523E+03 0.  0.
        -24    2    4    4    0    0  0.88225580825E+03  0.54886010561E+03 -0.82716854934E+03  0.13306102591E+04  0.81811527041E+02 0.  0.
         24    2    4    4    0    0  0.39821068194E+03  0.42471990678E+03 -0.30180993835E+02  0.58840571599E+03  0.79697225747E+02 0.  0.
         11    1    5    5    0    0  0.32302540901E+03  0.24539911507E+03 -0.30561584838E+03  0.50790470299E+03  0.00000000000E+00 0. -1.
        -12    1    5    5    0    0  0.55923039924E+03  0.30346099054E+03 -0.52155270096E+03  0.82270555613E+03  0.00000000000E+00 0.  1.
         13    1    3    3    0    0 -0.10216728619E+04 -0.79883824851E+03  0.41338480712E+03  0.13611924856E+04  0.00000000000E+00 0. -1.
        -14    1    3    3    0    0 -0.25879362826E+03 -0.17474176387E+03  0.13619925409E+03  0.34067442359E+03  0.00000000000E+00 0.  1.
          2    1    6    6  502    0  0.29477389404E+03  0.34799654251E+03 -0.47208810326E+02  0.45849963357E+03  0.00000000000E+00 0. -1.
         -1    1    6    6    0  502  0.10343678790E+03  0.76723364269E+02  0.17027816492E+02  0.12990608242E+03  0.00000000000E+00 0.  1.
<mgrwt>
<rscale>  0 0.16179716E+04</rscale>
<asrwt>0</asrwt>
<pdfrwt beam="1">  1        1 0.25485519E+00 0.16179716E+04</pdfrwt>
<pdfrwt beam="2">  1       -2 0.30220372E+00 0.16179716E+04</pdfrwt>
<totfact> 0.12813344E-01</totfact>
</mgrwt>
</event>
<event>
12    3  0.2269558E-007  0.1088871E+04  0.7818608E-02  0.9216107E-01
          1   -1    0    0  501    0  0.00000000000E+00  0.00000000000E+00  0.10944982898E+04  0.10944982898E+04  0.00000000000E+00 0. -1.
         -2   -1    0    0    0  501 -0.00000000000E+00 -0.00000000000E+00 -0.11106469960E+04  0.11106469960E+04  0.00000000000E+00 0.  1.
        -24    2    1    2    0    0 -0.62924834926E+03  0.79194460660E+03 -0.13236308545E+03  0.10233135832E+04  0.80752449863E+02 0.  0.
    5000000    2    1    2    0    0  0.62924834926E+03 -0.79194460660E+03  0.11621437924E+03  0.11818317026E+04  0.60007553384E+03 0.  0.
        -24    2    4    4    0    0  0.63194694783E+03 -0.85437875703E+03  0.62340978240E+02  0.10675830841E+04  0.80791327283E+02 0.  0.
         24    2    4    4    0    0 -0.26985985643E+01  0.62434150427E+02  0.53873400999E+02  0.11424861848E+03  0.79025931916E+02 0.  0.
         11    1    3    3    0    0 -0.34600043671E+03  0.44293884205E+03 -0.33307003338E+02  0.56304571437E+03  0.00000000000E+00 0. -1.
        -12    1    3    3    0    0 -0.28324791255E+03  0.34900576455E+03 -0.99056082117E+02  0.46026786881E+03  0.00000000000E+00 0.  1.
         13    1    5    5    0    0  0.29387741882E+03 -0.46418265611E+03  0.39158651449E+02  0.55078387369E+03  0.00000000000E+00 0. -1.
        -14    1    5    5    0    0  0.33806952901E+03 -0.39019610092E+03  0.23182326791E+02  0.51679921042E+03  0.00000000000E+00 0.  1.
          2    1    6    6  502    0 -0.16555207029E+02 -0.14714047052E+02  0.15047081687E+02  0.26776719883E+02  0.00000000000E+00 0. -1.
         -1    1    6    6    0  502  0.13856608464E+02  0.77148197479E+02  0.38826319312E+02  0.87471898595E+02  0.00000000000E+00 0.  1.
<mgrwt>
<rscale>  0 0.10888714E+04</rscale>
<asrwt>0</asrwt>
<pdfrwt beam="1">  1        1 0.16838435E+00 0.10888714E+04</pdfrwt>
<pdfrwt beam="2">  1       -2 0.17086877E+00 0.10888714E+04</pdfrwt>
<totfact> 0.23262124E+00</totfact>
</mgrwt>
</event>
<event>
12    3  0.2269558E-007  0.6513255E+03  0.7818608E-02  0.9804295E-01
         -2   -1    0    0    0  501 -0.00000000000E+00  0.00000000000E+00  0.19881733357E+04  0.19881733357E+04  0.00000000000E+00 0.  1.
          1   -1    0    0  501    0  0.00000000000E+00 -0.00000000000E+00 -0.28462004679E+03  0.28462004679E+03  0.00000000000E+00 0. -1.
        -24    2    1    2    0    0 -0.41864971118E+03 -0.36640638798E+03  0.11641662910E+04  0.12926585850E+04  0.78497404379E+02 0.  0.
    5000000    2    1    2    0    0  0.41864971118E+03  0.36640638798E+03  0.53938699796E+03  0.98013479752E+03  0.60017053069E+03 0.  0.
        -24    2    4    4    0    0  0.30722713280E+02  0.33830166703E+03  0.54464049227E+02  0.35331242794E+03  0.80445236363E+02 0.  0.
         24    2    4    4    0    0  0.38792699790E+03  0.28104720951E+02  0.48492294873E+03  0.62682236958E+03  0.80490904789E+02 0.  0.
         11    1    3    3    0    0 -0.16075529183E+03 -0.12526515838E+03  0.34596246548E+03  0.40152665077E+03  0.00000000000E+00 0. -1.
        -12    1    3    3    0    0 -0.25789441934E+03 -0.24114122960E+03  0.81820382548E+03  0.89113193421E+03  0.00000000000E+00 0.  1.
         13    1    5    5    0    0  0.54999495556E+02  0.28215757412E+03  0.38009629504E+02  0.28996995203E+03  0.00000000000E+00 0. -1.
        -14    1    5    5    0    0 -0.24276782276E+02  0.56144092913E+02  0.16454419723E+02  0.63342475916E+02  0.00000000000E+00 0.  1.
          4    1    6    6  502    0  0.32160316433E+03  0.53699848748E+02  0.40142548460E+03  0.51716021575E+03  0.00000000000E+00 0. -1.
         -3    1    6    6    0  502  0.66323833563E+02 -0.25595127796E+02  0.83497464130E+02  0.10966215382E+03  0.00000000000E+00 0.  1.
<mgrwt>
<rscale>  0 0.65132554E+03</rscale>
<asrwt>0</asrwt>
<pdfrwt beam="1">  1        1 0.43787701E-01 0.65132554E+03</pdfrwt>
<pdfrwt beam="2">  1       -2 0.30587281E+00 0.65132554E+03</pdfrwt>
<totfact> 0.25476269E+00</totfact>
</mgrwt>
</event>
<event>
12    3  0.2269558E-007  0.1533465E+04  0.7818608E-02  0.8862499E-01
         -2   -1    0    0    0  501 -0.00000000000E+00  0.00000000000E+00  0.10603368554E+04  0.10603368554E+04  0.00000000000E+00 0.  1.
          1   -1    0    0  501    0  0.00000000000E+00 -0.00000000000E+00 -0.25590334087E+04  0.25590334087E+04  0.00000000000E+00 0. -1.
        -24    2    1    2    0    0 -0.89486686402E+03 -0.11771948388E+04 -0.13707108134E+04  0.20184707538E+04  0.93817146764E+02 0.  0.
    5000000    2    1    2    0    0  0.89486686402E+03  0.11771948388E+04 -0.12798573983E+03  0.16008995103E+04  0.59993707981E+03 0.  0.
        -24    2    4    4    0    0  0.19033323841E+03  0.72083462678E+03 -0.10890583618E+03  0.75757284920E+03  0.78910328113E+02 0.  0.
         24    2    4    4    0    0  0.70453362561E+03  0.45636021202E+03 -0.19079903651E+02  0.84332666112E+03  0.78762566662E+02 0.  0.
         11    1    5    5    0    0  0.17661715632E+03  0.56345682107E+03 -0.68023099432E+02  0.59439410425E+03  0.00000000000E+00 0. -1.
        -12    1    5    5    0    0  0.13716082092E+02  0.15737780571E+03 -0.40882736749E+02  0.16317874495E+03  0.00000000000E+00 0.  1.
         11    1    3    3    0    0 -0.31048918131E+03 -0.42867160767E+03 -0.55026183408E+03  0.76351225594E+03  0.00000000000E+00 0. -1.
        -12    1    3    3    0    0 -0.58437768272E+03 -0.74852323113E+03 -0.82044897933E+03  0.12549584978E+04  0.00000000000E+00 0.  1.
          4    1    6    6  502    0  0.63634588744E+03  0.41702252585E+03 -0.40014523797E+02  0.76186943608E+03  0.00000000000E+00 0. -1.
         -3    1    6    6    0  502  0.68187738171E+02  0.39337686170E+02  0.20934620146E+02  0.81457225038E+02  0.00000000000E+00 0.  1.
<mgrwt>
<rscale>  0 0.15334649E+04</rscale>
<asrwt>0</asrwt>
<pdfrwt beam="1">  1        1 0.39369745E+00 0.15334649E+04</pdfrwt>
<pdfrwt beam="2">  1       -2 0.16312875E+00 0.15334649E+04</pdfrwt>
<totfact> 0.24322851E-01</totfact>
</mgrwt>
</event>
<event>
12    3  0.2269558E-007  0.1682347E+04  0.7818608E-02  0.8771497E-01
          1   -1    0    0  501    0  0.00000000000E+00  0.00000000000E+00  0.16638330454E+04  0.16638330454E+04  0.00000000000E+00 0. -1.
         -2   -1    0    0    0  501 -0.00000000000E+00 -0.00000000000E+00 -0.17211685570E+04  0.17211685570E+04  0.00000000000E+00 0.  1.
        -24    2    1    2    0    0 -0.11722474670E+04 -0.11429522440E+04  0.30347200096E+02  0.16391606062E+04  0.73638199974E+02 0.  0.
    5000000    2    1    2    0    0  0.11722474670E+04  0.11429522440E+04 -0.87682711753E+02  0.17458409962E+04  0.59980711084E+03 0.  0.
        -24    2    4    4    0    0 -0.32132613197E+02  0.13577528605E+03  0.47105895259E+02  0.16805330613E+03  0.80966136139E+02 0.  0.
         24    2    4    4    0    0  0.12043800802E+04  0.10071769579E+04 -0.13478860701E+03  0.15777876901E+04  0.79430625324E+02 0.  0.
         11    1    5    5    0    0  0.19949438572E+02  0.19785171320E+02  0.27661910398E+02  0.39428598636E+02  0.00000000000E+00 0. -1.
        -12    1    5    5    0    0 -0.52082051770E+02  0.11599011473E+03  0.19443984861E+02  0.12862470749E+03  0.00000000000E+00 0.  1.
         13    1    3    3    0    0 -0.36474512710E+03 -0.40219707994E+03  0.59812914324E+00  0.54295658814E+03  0.00000000000E+00 0. -1.
        -14    1    3    3    0    0 -0.80750233988E+03 -0.74075516403E+03  0.29749070952E+02  0.10962040180E+04  0.00000000000E+00 0.  1.
          4    1    6    6  502    0  0.48969962609E+03  0.43929454849E+03 -0.24512866332E+02  0.65832082204E+03  0.00000000000E+00 0. -1.
         -3    1    6    6    0  502  0.71468045409E+03  0.56788240944E+03 -0.11027574068E+03  0.91946686802E+03  0.00000000000E+00 0.  1.
<mgrwt>
<rscale>  0 0.16823471E+04</rscale>
<asrwt>0</asrwt>
<pdfrwt beam="1">  1        1 0.25597431E+00 0.16823471E+04</pdfrwt>
<pdfrwt beam="2">  1       -2 0.26479516E+00 0.16823471E+04</pdfrwt>
<totfact> 0.21308426E-01</totfact>
</mgrwt>
</event>
<event>
12    3  0.2269558E-007  0.3859257E+03  0.7818608E-02  0.1048765E+00
          1   -1    0    0  501    0  0.00000000000E+00  0.00000000000E+00  0.62982298230E+03  0.62982298230E+03  0.00000000000E+00 0. -1.
         -2   -1    0    0    0  501 -0.00000000000E+00 -0.00000000000E+00 -0.29728711549E+03  0.29728711549E+03  0.00000000000E+00 0.  1.
        -24    2    1    2    0    0  0.13751775700E+02  0.21356960567E+03  0.83013419963E+02  0.24302527943E+03  0.79805831535E+02 0.  0.
    5000000    2    1    2    0    0 -0.13751775700E+02 -0.21356960567E+03  0.24952244685E+03  0.68408481836E+03  0.59992457812E+03 0.  0.
        -24    2    4    4    0    0 -0.27887202469E+02 -0.36800620615E+03 -0.23947001455E+01  0.37819149932E+03  0.82563985761E+02 0.  0.
         24    2    4    4    0    0  0.14135426769E+02  0.15443660048E+03  0.25191714700E+03  0.30589331904E+03  0.77833153730E+02 0.  0.
         11    1    5    5    0    0 -0.45296328144E+02 -0.19343468113E+03 -0.28916054865E+02  0.20076073181E+03  0.00000000000E+00 0. -1.
        -12    1    5    5    0    0  0.17409125676E+02 -0.17457152502E+03  0.26521354720E+02  0.17743076751E+03  0.00000000000E+00 0.  1.
         11    1    3    3    0    0  0.39780140542E+02  0.16426810449E+03  0.42995708693E+02  0.17439925660E+03  0.00000000000E+00 0. -1.
        -12    1    3    3    0    0 -0.26028364842E+02  0.49301501176E+02  0.40017711270E+02  0.68626022833E+02  0.00000000000E+00 0.  1.
          4    1    6    6  502    0 -0.30769190707E+02  0.83885052858E+02  0.11806998303E+03  0.14806743762E+03  0.00000000000E+00 0. -1.
         -3    1    6    6    0  502  0.44904617475E+02  0.70551547625E+02  0.13384716397E+03  0.15782588142E+03  0.00000000000E+00 0.  1.
<mgrwt>
<rscale>  0 0.38592571E+03</rscale>
<asrwt>0</asrwt>
<pdfrwt beam="1">  1        1 0.96895843E-01 0.38592571E+03</pdfrwt>
<pdfrwt beam="2">  1       -2 0.45736479E-01 0.38592571E+03</pdfrwt>
<totfact> 0.13208129E+02</totfact>
</mgrwt>
</event>
<event>
12    3  0.2269558E-007  0.9264055E+03  0.7818608E-02  0.9393162E-01
         -2   -1    0    0    0  501 -0.00000000000E+00  0.00000000000E+00  0.77005052402E+03  0.77005052402E+03  0.00000000000E+00 0.  1.
          1   -1    0    0  501    0  0.00000000000E+00 -0.00000000000E+00 -0.14095357011E+04  0.14095357011E+04  0.00000000000E+00 0. -1.
        -24    2    1    2    0    0  0.70374163125E+03 -0.55229406379E+03 -0.63931315638E+03  0.11024546106E+04  0.80023996194E+02 0.  0.
    5000000    2    1    2    0    0 -0.70374163125E+03  0.55229406379E+03 -0.17202067234E+00  0.10771316145E+04  0.59994288812E+03 0.  0.
        -24    2    4    4    0    0 -0.59823331626E+01 -0.19313744977E+02  0.13697459612E+03  0.16225307430E+03  0.84588480794E+02 0.  0.
         24    2    4    4    0    0 -0.69775929809E+03  0.57160780876E+03 -0.13714661679E+03  0.91487854024E+03  0.67749714314E+02 0.  0.
         11    1    3    3    0    0  0.53628033614E+03 -0.45285152572E+03 -0.47366226088E+03  0.84677449221E+03  0.00000000000E+00 0. -1.
        -12    1    3    3    0    0  0.16746129510E+03 -0.99442538070E+02 -0.16565089550E+03  0.25568011834E+03  0.00000000000E+00 0.  1.
         11    1    5    5    0    0 -0.26475640014E+02 -0.15789195383E+02  0.83206266991E+01  0.31929469674E+02  0.00000000000E+00 0. -1.
        -12    1    5    5    0    0  0.20493306851E+02 -0.35245495941E+01  0.12865396942E+03  0.13032360463E+03  0.00000000000E+00 0.  1.
          2    1    6    6  502    0 -0.47236636603E+03  0.34525673719E+03 -0.86036843142E+02  0.59138357832E+03  0.00000000000E+00 0. -1.
         -1    1    6    6    0  502 -0.22539293206E+03  0.22635107158E+03 -0.51109773649E+02  0.32349496192E+03  0.00000000000E+00 0.  1.
<mgrwt>
<rscale>  0 0.92640551E+03</rscale>
<asrwt>0</asrwt>
<pdfrwt beam="1">  1        1 0.21685165E+00 0.92640551E+03</pdfrwt>
<pdfrwt beam="2">  1       -2 0.11846931E+00 0.92640551E+03</pdfrwt>
<totfact> 0.36654520E+00</totfact>
</mgrwt>
</event>
<event>
12    3  0.2269558E-007  0.5029701E+03  0.7818608E-02  0.1013007E+00
          1   -1    0    0  501    0  0.00000000000E+00  0.00000000000E+00  0.77714535666E+03  0.77714535666E+03  0.00000000000E+00 0. -1.
         -2   -1    0    0    0  501 -0.00000000000E+00 -0.00000000000E+00 -0.50738403349E+03  0.50738403349E+03  0.00000000000E+00 0.  1.
        -24    2    1    2    0    0  0.33611123737E+03 -0.20008812567E+02 -0.24612424123E+03  0.42456425931E+03  0.79413800431E+02 0.  0.
    5000000    2    1    2    0    0 -0.33611123737E+03  0.20008812567E+02  0.51588556440E+03  0.85996513084E+03  0.60002582797E+03 0.  0.
        -24    2    4    4    0    0  0.16202548305E+03 -0.22634459524E+01  0.15590095800E+03  0.23972548405E+03  0.83101255419E+02 0.  0.
         24    2    4    4    0    0 -0.49813672042E+03  0.22272258519E+02  0.35998460640E+03  0.62023964679E+03  0.80449094884E+02 0.  0.
         11    1    3    3    0    0  0.30639609165E+03 -0.35348168431E+02 -0.23944304949E+03  0.39046258712E+03  0.00000000000E+00 0. -1.
        -12    1    3    3    0    0  0.29715145719E+02  0.15339355865E+02 -0.66811917408E+01  0.34101672195E+02  0.00000000000E+00 0.  1.
         13    1    5    5    0    0  0.81066015784E+02  0.13647295857E+02  0.26713428311E+02  0.86438156224E+02  0.00000000000E+00 0. -1.
        -14    1    5    5    0    0  0.80959467268E+02 -0.15910741810E+02  0.12918752969E+03  0.15328732783E+03  0.00000000000E+00 0.  1.
          2    1    6    6  502    0 -0.23151680060E+03  0.23754479862E+02  0.12159126237E+03  0.26258091963E+03  0.00000000000E+00 0. -1.
         -1    1    6    6    0  502 -0.26661991982E+03 -0.14822213428E+01  0.23839334404E+03  0.35765872715E+03  0.00000000000E+00 0.  1.
<mgrwt>
<rscale>  0 0.50297014E+03</rscale>
<asrwt>0</asrwt>
<pdfrwt beam="1">  1        1 0.11956082E+00 0.50297014E+03</pdfrwt>
<pdfrwt beam="2">  1       -2 0.78059082E-01 0.50297014E+03</pdfrwt>
<totfact> 0.31053853E+01</totfact>
</mgrwt>
</event>
<event>
12    3  0.2269558E-007  0.7237240E+03  0.7818608E-02  0.9677500E-01
         -2   -1    0    0    0  501 -0.00000000000E+00  0.00000000000E+00  0.15235141778E+04  0.15235141778E+04  0.00000000000E+00 0.  1.
          1   -1    0    0  501    0  0.00000000000E+00 -0.00000000000E+00 -0.37594485288E+03  0.37594485288E+03  0.00000000000E+00 0. -1.
        -24    2    1    2    0    0  0.60184189175E+03 -0.56078132048E+02  0.24141609285E+03  0.65586900182E+03  0.80771270318E+02 0.  0.
    5000000    2    1    2    0    0 -0.60184189175E+03  0.56078132048E+02  0.90615323211E+03  0.12435900289E+04  0.60003671583E+03 0.  0.
        -24    2    4    4    0    0 -0.55571559068E+03 -0.18376336404E+03  0.68813908842E+03  0.90677960530E+03  0.78262736267E+02 0.  0.
         24    2    4    4    0    0 -0.46126301071E+02  0.23984149609E+03  0.21801414369E+03  0.33681042360E+03  0.79117101181E+02 0.  0.
         11    1    3    3    0    0  0.11147445195E+03  0.23738280895E+01  0.76504804955E+02  0.13522268182E+03  0.00000000000E+00 0. -1.
        -12    1    3    3    0    0  0.49036743980E+03 -0.58451960137E+02  0.16491128789E+03  0.52064632000E+03  0.00000000000E+00 0.  1.
         11    1    5    5    0    0 -0.15673700926E+03 -0.71998569684E+02  0.25026490235E+03  0.30394539881E+03  0.00000000000E+00 0. -1.
        -12    1    5    5    0    0 -0.39897858142E+03 -0.11176479435E+03  0.43787418607E+03  0.60283420649E+03  0.00000000000E+00 0.  1.
          4    1    6    6  502    0  0.15342475057E+02  0.11622701460E+03  0.11798309622E+03  0.16632534821E+03  0.00000000000E+00 0. -1.
         -3    1    6    6    0  502 -0.61468776127E+02  0.12361448149E+03  0.10003104748E+03  0.17048507539E+03  0.00000000000E+00 0.  1.
<mgrwt>
<rscale>  0 0.72372396E+03</rscale>
<asrwt>0</asrwt>
<pdfrwt beam="1">  1        1 0.57837671E-01 0.72372396E+03</pdfrwt>
<pdfrwt beam="2">  1       -2 0.23438679E+00 0.72372396E+03</pdfrwt>
<totfact> 0.47245225E+00</totfact>
</mgrwt>
</event>
<event>
12    3  0.2269558E-007  0.1296700E+04  0.7818608E-02  0.9032186E-01
          1   -1    0    0  501    0  0.00000000000E+00  0.00000000000E+00  0.23797880096E+04  0.23797880096E+04  0.00000000000E+00 0. -1.
         -2   -1    0    0    0  501 -0.00000000000E+00 -0.00000000000E+00 -0.16118245811E+04  0.16118245811E+04  0.00000000000E+00 0.  1.
        -24    2    1    2    0    0  0.11416184563E+04  0.47943546709E+03 -0.11089605748E+04  0.16644015165E+04  0.85368522203E+02 0.  0.
    5000000    2    1    2    0    0 -0.11416184563E+04 -0.47943546709E+03  0.18769240033E+04  0.23272110742E+04  0.59993049809E+03 0.  0.
        -24    2    4    4    0    0 -0.70799735758E+03 -0.57009796551E+03  0.10998102817E+04  0.14290699718E+04  0.79914828738E+02 0.  0.
         24    2    4    4    0    0 -0.43362109874E+03  0.90662498422E+02  0.77711372163E+03  0.89814110240E+03  0.80652077368E+02 0.  0.
         11    1    3    3    0    0  0.45494474349E+03  0.20322523863E+03 -0.39257180737E+03  0.63434047733E+03  0.00000000000E+00 0. -1.
        -12    1    3    3    0    0  0.68667371283E+03  0.27621022846E+03 -0.71638876746E+03  0.10300610391E+04  0.00000000000E+00 0.  1.
         13    1    5    5    0    0 -0.55481210791E+03 -0.47238395504E+03  0.91783655245E+03  0.11719159582E+04  0.00000000000E+00 0. -1.
        -14    1    5    5    0    0 -0.15318524967E+03 -0.97714010470E+02  0.18197372927E+03  0.25715401358E+03  0.00000000000E+00 0.  1.
          2    1    6    6  502    0 -0.14194518313E+03  0.47964691720E+02  0.33227529169E+03  0.36449405501E+03  0.00000000000E+00 0. -1.
         -1    1    6    6    0  502 -0.29167591561E+03  0.42697806702E+02  0.44483842993E+03  0.53364704739E+03  0.00000000000E+00 0.  1.
<mgrwt>
<rscale>  0 0.12966998E+04</rscale>
<asrwt>0</asrwt>
<pdfrwt beam="1">  1        1 0.36612123E+00 0.12966998E+04</pdfrwt>
<pdfrwt beam="2">  1       -2 0.24797301E+00 0.12966998E+04</pdfrwt>
<totfact> 0.91896018E-02</totfact>
</mgrwt>
</event>
<event>
12    3  0.2269558E-007  0.9034691E+03  0.7818608E-02  0.9421255E-01
          1   -1    0    0  501    0  0.00000000000E+00  0.00000000000E+00  0.10734351828E+04  0.10734351828E+04  0.00000000000E+00 0. -1.
         -2   -1    0    0    0  501 -0.00000000000E+00 -0.00000000000E+00 -0.82243642831E+03  0.82243642831E+03  0.00000000000E+00 0.  1.
        -24    2    1    2    0    0 -0.78314017637E+03 -0.20840769762E+03 -0.11630114353E+03  0.82255618760E+03  0.79563946019E+02 0.  0.
    5000000    2    1    2    0    0  0.78314017637E+03  0.20840769762E+03  0.36729989803E+03  0.10733154235E+04  0.60029532650E+03 0.  0.
        -24    2    4    4    0    0  0.28651723666E+03  0.37430072512E+03  0.15748990395E+03  0.50336076491E+03  0.79848795084E+02 0.  0.
         24    2    4    4    0    0  0.49662293970E+03 -0.16589302750E+03  0.20980999409E+03  0.56995465862E+03  0.81689891934E+02 0.  0.
         11    1    3    3    0    0 -0.47070990327E+03 -0.14396753253E+03 -0.35713948980E+02  0.49352806365E+03  0.00000000000E+00 0. -1.
        -12    1    3    3    0    0 -0.31243027310E+03 -0.64440165092E+02 -0.80587194554E+02  0.32902812395E+03  0.00000000000E+00 0.  1.
         11    1    5    5    0    0  0.78292532290E+02  0.89868406807E+02  0.50188432806E+01  0.11929476075E+03  0.00000000000E+00 0. -1.
        -12    1    5    5    0    0  0.20822470437E+03  0.28443231831E+03  0.15247106066E+03  0.38406600416E+03  0.00000000000E+00 0.  1.
          4    1    6    6  502    0  0.95511716586E+02 -0.40567775356E+02  0.88642108612E+01  0.10414800352E+03  0.00000000000E+00 0. -1.
         -3    1    6    6    0  502  0.40111122312E+03 -0.12532525215E+03  0.20094578323E+03  0.46580665510E+03  0.00000000000E+00 0.  1.
<mgrwt>
<rscale>  0 0.90346915E+03</rscale>
<asrwt>0</asrwt>
<pdfrwt beam="1">  1        1 0.16514387E+00 0.90346915E+03</pdfrwt>
<pdfrwt beam="2">  1       -2 0.12652868E+00 0.90346915E+03</pdfrwt>
<totfact> 0.54531792E+00</totfact>
</mgrwt>
</event>
<event>
12    3  0.2269558E-007  0.8293245E+03  0.7818608E-02  0.9518515E-01
          1   -1    0    0  501    0  0.00000000000E+00  0.00000000000E+00  0.16414374129E+04  0.16414374129E+04  0.00000000000E+00 0. -1.
         -2   -1    0    0    0  501 -0.00000000000E+00 -0.00000000000E+00 -0.48269394499E+03  0.48269394499E+03  0.00000000000E+00 0.  1.
        -24    2    1    2    0    0 -0.70642215619E+03  0.25176527789E+03  0.79840148687E+03  0.10981904747E+04  0.78481632323E+02 0.  0.
    5000000    2    1    2    0    0  0.70642215619E+03 -0.25176527789E+03  0.36034198101E+03  0.10259408832E+04  0.60024189670E+03 0.  0.
        -24    2    4    4    0    0  0.23703275239E+03  0.15412820562E+03 -0.18838521033E+02  0.29436584173E+03  0.79726591757E+02 0.  0.
         24    2    4    4    0    0  0.46938940380E+03 -0.40589348351E+03  0.37918050205E+03  0.73157504143E+03  0.79675942096E+02 0.  0.
         11    1    5    5    0    0  0.95455300999E+02  0.61104880614E+02  0.31513533885E+02  0.11763767994E+03  0.00000000000E+00 0. -1.
        -12    1    5    5    0    0  0.14157745139E+03  0.93023325004E+02 -0.50352054918E+02  0.17672816179E+03  0.00000000000E+00 0.  1.
         11    1    3    3    0    0 -0.53754526773E+03  0.22405019976E+03  0.63410829577E+03  0.86095687327E+03  0.00000000000E+00 0. -1.
        -12    1    3    3    0    0 -0.16887688846E+03  0.27715078132E+02  0.16429319110E+03  0.23723360145E+03  0.00000000000E+00 0.  1.
          2    1    6    6  502    0  0.89206386185E+02 -0.53494281110E+02  0.92510718742E+02  0.13920362973E+03  0.00000000000E+00 0. -1.
         -1    1    6    6    0  502  0.38018301762E+03 -0.35239920240E+03  0.28666978331E+03  0.59237141170E+03  0.00000000000E+00 0.  1.
<mgrwt>
<rscale>  0 0.82932449E+03</rscale>
<asrwt>0</asrwt>
<pdfrwt beam="1">  1        1 0.25252883E+00 0.82932449E+03</pdfrwt>
<pdfrwt beam="2">  1       -2 0.74260608E-01 0.82932449E+03</pdfrwt>
<totfact> 0.76683259E+00</totfact>
</mgrwt>
</event>
<event>
12    3  0.2269558E-007  0.5449020E+03  0.7818608E-02  0.1002681E+00
          1   -1    0    0  501    0  0.00000000000E+00  0.00000000000E+00  0.28192314573E+04  0.28192314573E+04  0.00000000000E+00 0. -1.
         -2   -1    0    0    0  501 -0.00000000000E+00 -0.00000000000E+00 -0.13503748280E+03  0.13503748280E+03  0.00000000000E+00 0.  1.
        -24    2    1    2    0    0  0.33266907493E+03  0.32853975959E+03  0.10130214774E+04  0.11181337455E+04  0.73508314124E+02 0.  0.
    5000000    2    1    2    0    0 -0.33266907493E+03 -0.32853975959E+03  0.16711724971E+04  0.18361351946E+04  0.59997320816E+03 0.  0.
        -24    2    4    4    0    0 -0.27331227063E+03 -0.80856711756E+01  0.26204822697E+03  0.38778959267E+03  0.83345783124E+02 0.  0.
         24    2    4    4    0    0 -0.59356804304E+02 -0.32045408841E+03  0.14091242701E+04  0.14483456019E+04  0.76548813185E+02 0.  0.
         13    1    5    5    0    0 -0.14077440560E+03 -0.40025996975E+02  0.16432693354E+03  0.22005193658E+03  0.00000000000E+00 0. -1.
        -14    1    5    5    0    0 -0.13253786503E+03  0.31940325800E+02  0.97721293432E+02  0.16773765608E+03  0.00000000000E+00 0.  1.
         13    1    3    3    0    0  0.33433415616E+03  0.31475375238E+03  0.98870709925E+03  0.10901334692E+04  0.00000000000E+00 0. -1.
        -14    1    3    3    0    0 -0.16650812231E+01  0.13786007212E+02  0.24314378108E+02  0.28000276304E+02  0.00000000000E+00 0.  1.
          2    1    6    6  502    0 -0.65808527357E+02 -0.15403080848E+03  0.65889711554E+03  0.67985414693E+03  0.00000000000E+00 0. -1.
         -1    1    6    6    0  502  0.64517230528E+01 -0.16642327993E+03  0.75022715461E+03  0.76849145496E+03  0.00000000000E+00 0.  1.
<mgrwt>
<rscale>  0 0.54490201E+03</rscale>
<asrwt>0</asrwt>
<pdfrwt beam="1">  1        1 0.43372787E+00 0.54490201E+03</pdfrwt>
<pdfrwt beam="2">  1       -2 0.20775000E-01 0.54490201E+03</pdfrwt>
<totfact> 0.15497469E+01</totfact>
</mgrwt>
</event>
<event>
12    3  0.2269558E-007  0.6492480E+03  0.7818608E-02  0.9808191E-01
         -2   -1    0    0    0  501 -0.00000000000E+00  0.00000000000E+00  0.11840206207E+04  0.11840206207E+04  0.00000000000E+00 0.  1.
          1   -1    0    0  501    0  0.00000000000E+00 -0.00000000000E+00 -0.75547996720E+03  0.75547996720E+03  0.00000000000E+00 0. -1.
        -24    2    1    2    0    0 -0.60988030438E+03 -0.58792428011E+01 -0.41216700668E+03  0.74011930682E+03  0.76853079090E+02 0.  0.
    5000000    2    1    2    0    0  0.60988030438E+03  0.58792428011E+01  0.84070766015E+03  0.11993812811E+04  0.59978124041E+03 0.  0.
        -24    2    4    4    0    0  0.30686038139E+03  0.14383089310E+03  0.77646125707E+03  0.85090974748E+03  0.79402110450E+02 0.  0.
         24    2    4    4    0    0  0.30301992299E+03 -0.13795165029E+03  0.64246403082E+02  0.34847153358E+03  0.80331051647E+02 0.  0.
         13    1    3    3    0    0 -0.42731446553E+03 -0.24537286553E+02 -0.25304488382E+03  0.49722373647E+03  0.00000000000E+00 0. -1.
        -14    1    3    3    0    0 -0.18256583885E+03  0.18658043752E+02 -0.15912212286E+03  0.24289557035E+03  0.00000000000E+00 0.  1.
         13    1    5    5    0    0  0.18674863204E+03  0.12028220918E+03  0.44032990815E+03  0.49318687070E+03  0.00000000000E+00 0. -1.
        -14    1    5    5    0    0  0.12011174935E+03  0.23548683913E+02  0.33613134892E+03  0.35772287678E+03  0.00000000000E+00 0.  1.
          2    1    6    6  502    0  0.10069265712E+03 -0.59871880331E+01  0.22095897302E+02  0.10326222105E+03  0.00000000000E+00 0. -1.
         -1    1    6    6    0  502  0.20232726587E+03 -0.13196446226E+03  0.42150505780E+02  0.24520931253E+03  0.00000000000E+00 0.  1.
<mgrwt>
<rscale>  0 0.64924800E+03</rscale>
<asrwt>0</asrwt>
<pdfrwt beam="1">  1        1 0.11622769E+00 0.64924800E+03</pdfrwt>
<pdfrwt beam="2">  1       -2 0.18215702E+00 0.64924800E+03</pdfrwt>
<totfact> 0.38691720E+00</totfact>
</mgrwt>
</event>
<event>
12    3  0.2269558E-007  0.4152539E+03  0.7818608E-02  0.1038622E+00
         -2   -1    0    0    0  501 -0.00000000000E+00  0.00000000000E+00  0.17827554408E+04  0.17827554408E+04  0.00000000000E+00 0.  1.
          1   -1    0    0  501    0  0.00000000000E+00 -0.00000000000E+00 -0.16521929910E+03  0.16521929910E+03  0.00000000000E+00 0. -1.
        -24    2    1    2    0    0 -0.35864014328E+03  0.12098577658E+02  0.39724225166E+03  0.54158013400E+03  0.82088410151E+02 0.  0.
    5000000    2    1    2    0    0  0.35864014328E+03 -0.12098577658E+02  0.12202938901E+04  0.14063946059E+04  0.60004956585E+03 0.  0.
        -24    2    4    4    0    0  0.84577341820E+02  0.11601296909E+03  0.21858825357E+02  0.16778485401E+03  0.84033405509E+02 0.  0.
         24    2    4    4    0    0  0.27406280146E+03 -0.12811154675E+03  0.11984350647E+04  0.12386097519E+04  0.79903226765E+02 0.  0.
         11    1    3    3    0    0 -0.16563402445E+03  0.39063957142E+02  0.22013735005E+03  0.27824642979E+03  0.00000000000E+00 0. -1.
        -12    1    3    3    0    0 -0.19300611884E+03 -0.26965379484E+02  0.17710490161E+03  0.26333370421E+03  0.00000000000E+00 0.  1.
         11    1    5    5    0    0  0.10731195619E+02  0.77809748151E+02 -0.90859637371E+01  0.79070033538E+02  0.00000000000E+00 0. -1.
        -12    1    5    5    0    0  0.73846146200E+02  0.38203220943E+02  0.30944789094E+02  0.88714820471E+02  0.00000000000E+00 0.  1.
          2    1    6    6  502    0  0.37201927847E+02 -0.28231325636E+02  0.31815957495E+03  0.32156882049E+03  0.00000000000E+00 0. -1.
         -1    1    6    6    0  502  0.23686087362E+03 -0.99880221117E+02  0.88027548978E+03  0.91704093144E+03  0.00000000000E+00 0.  1.
<mgrwt>
<rscale>  0 0.41525389E+03</rscale>
<asrwt>0</asrwt>
<pdfrwt beam="1">  1        1 0.25418355E-01 0.41525389E+03</pdfrwt>
<pdfrwt beam="2">  1       -2 0.27427005E+00 0.41525389E+03</pdfrwt>
<totfact> 0.82582643E+00</totfact>
</mgrwt>
</event>
<event>
12    3  0.2269558E-007  0.6872591E+03  0.7818608E-02  0.9739272E-01
         -2   -1    0    0    0  501 -0.00000000000E+00  0.00000000000E+00  0.57095237051E+03  0.57095237051E+03  0.00000000000E+00 0.  1.
          1   -1    0    0  501    0  0.00000000000E+00 -0.00000000000E+00 -0.97138749470E+03  0.97138749470E+03  0.00000000000E+00 0. -1.
        -24    2    1    2    0    0 -0.57924696515E+03 -0.47874585500E+02 -0.39468223774E+03  0.70709218608E+03  0.79914130523E+02 0.  0.
    5000000    2    1    2    0    0  0.57924696515E+03  0.47874585500E+02 -0.57528864465E+01  0.83524767913E+03  0.59982211299E+03 0.  0.
        -24    2    4    4    0    0  0.62403473864E+03  0.17792248843E+03  0.72520768965E+02  0.65768506953E+03  0.78832872774E+02 0.  0.
         24    2    4    4    0    0 -0.44787773494E+02 -0.13004790293E+03 -0.78273655412E+02  0.17756260960E+03  0.80519025623E+02 0.  0.
         11    1    5    5    0    0  0.49847657483E+03  0.14932305839E+03  0.88806252900E+02  0.52788523561E+03  0.00000000000E+00 0. -1.
        -12    1    5    5    0    0  0.12555816381E+03  0.28599430038E+02 -0.16285483935E+02  0.12979983392E+03  0.00000000000E+00 0.  1.
         11    1    3    3    0    0 -0.43841301613E+03 -0.20538801091E+01 -0.30240030599E+03  0.53259378160E+03  0.00000000000E+00 0. -1.
        -12    1    3    3    0    0 -0.14083394901E+03 -0.45820705391E+02 -0.92281931753E+02  0.17449840448E+03  0.00000000000E+00 0.  1.
          4    1    6    6  502    0 -0.33657868110E+02 -0.68550495444E+02 -0.85511633833E+02  0.11464842795E+03  0.00000000000E+00 0. -1.
         -3    1    6    6    0  502 -0.11129905384E+02 -0.61497407485E+02  0.72379784214E+01  0.62914181652E+02  0.00000000000E+00 0.  1.
<mgrwt>
<rscale>  0 0.68725910E+03</rscale>
<asrwt>0</asrwt>
<pdfrwt beam="1">  1        1 0.14944423E+00 0.68725910E+03</pdfrwt>
<pdfrwt beam="2">  1       -2 0.87838827E-01 0.68725910E+03</pdfrwt>
<totfact> 0.16092676E+01</totfact>
</mgrwt>
</event>
<event>
12    3  0.2269558E-007  0.8142265E+03  0.7818608E-02  0.9539650E-01
         -4   -1    0    0    0  501 -0.00000000000E+00  0.00000000000E+00  0.75040180537E+03  0.75040180537E+03  0.00000000000E+00 0.  1.
          1   -1    0    0  501    0  0.00000000000E+00 -0.00000000000E+00 -0.16313208175E+04  0.16313208175E+04  0.00000000000E+00 0. -1.
        -24    2    1    2    0    0 -0.15754121366E+03 -0.78458482547E+03  0.27794942856E+03  0.85093955496E+03  0.80309769020E+02 0.  0.
    5000000    2    1    2    0    0  0.15754121366E+03  0.78458482547E+03 -0.11588684406E+04  0.15307830679E+04  0.59994012687E+03 0.  0.
        -24    2    4    4    0    0  0.15704789984E+01  0.52313200135E+02 -0.56200400567E+03  0.57010742206E+03  0.80217410763E+02 0.  0.
         24    2    4    4    0    0  0.15597073466E+03  0.73227162533E+03 -0.59686443498E+03  0.96067564582E+03  0.78114911432E+02 0.  0.
         11    1    5    5    0    0  0.14426292831E+02 -0.32534811731E+01 -0.18810041733E+02  0.23927405513E+02  0.00000000000E+00 0. -1.
        -12    1    5    5    0    0 -0.12855813832E+02  0.55566681308E+02 -0.54319396394E+03  0.54618001655E+03  0.00000000000E+00 0.  1.
         11    1    3    3    0    0 -0.26392541241E+01 -0.17329178586E+03  0.49821749714E+02  0.18033084998E+03  0.00000000000E+00 0. -1.
        -12    1    3    3    0    0 -0.15490195954E+03 -0.61129303961E+03  0.22812767885E+03  0.67060870498E+03  0.00000000000E+00 0.  1.
          4    1    6    6  502    0  0.15969312959E+03  0.61568255070E+03 -0.50864079525E+03  0.81442148638E+03  0.00000000000E+00 0. -1.
         -3    1    6    6    0  502 -0.37223949322E+01  0.11658907463E+03 -0.88223639730E+02  0.14625415944E+03  0.00000000000E+00 0.  1.
<mgrwt>
<rscale>  0 0.81422649E+03</rscale>
<asrwt>0</asrwt>
<pdfrwt beam="1">  1        1 0.25097243E+00 0.81422649E+03</pdfrwt>
<pdfrwt beam="2">  1       -4 0.11544643E+00 0.81422649E+03</pdfrwt>
<totfact> 0.15095498E+00</totfact>
</mgrwt>
</event>
<event>
12    3  0.2269558E-007  0.4385388E+03  0.7818608E-02  0.1031196E+00
         -2   -1    0    0    0  501 -0.00000000000E+00  0.00000000000E+00  0.26002306071E+03  0.26002306071E+03  0.00000000000E+00 0.  1.
          1   -1    0    0  501    0  0.00000000000E+00 -0.00000000000E+00 -0.77569340430E+03  0.77569340430E+03  0.00000000000E+00 0. -1.
        -24    2    1    2    0    0 -0.23496215614E+03  0.43078521898E+02 -0.15939446867E+03  0.29813211346E+03  0.80082373634E+02 0.  0.
    5000000    2    1    2    0    0  0.23496215614E+03 -0.43078521898E+02 -0.35627587492E+03  0.73758435156E+03  0.60002933491E+03 0.  0.
        -24    2    4    4    0    0  0.40384718628E+03 -0.13990907520E+03 -0.25448507849E+03  0.50388428845E+03  0.80433959140E+02 0.  0.
         24    2    4    4    0    0 -0.16888503015E+03  0.96830553300E+02 -0.10179079643E+03  0.23370006311E+03  0.79724800397E+02 0.  0.
         11    1    3    3    0    0 -0.88026923606E+02 -0.10570010859E+02 -0.25564159359E+02  0.92271288345E+02  0.00000000000E+00 0. -1.
        -12    1    3    3    0    0 -0.14693523253E+03  0.53648532758E+02 -0.13383030931E+03  0.20586082511E+03  0.00000000000E+00 0.  1.
         13    1    5    5    0    0  0.28055322819E+03 -0.74560235621E+02 -0.13487291273E+03  0.32009380683E+03  0.00000000000E+00 0. -1.
        -14    1    5    5    0    0  0.12329395809E+03 -0.65348839577E+02 -0.11961216576E+03  0.18379048162E+03  0.00000000000E+00 0.  1.
          4    1    6    6  502    0 -0.12750807396E+03  0.97922716964E+02 -0.10526000241E+03  0.19216356452E+03  0.00000000000E+00 0. -1.
         -3    1    6    6    0  502 -0.41376956189E+02 -0.10921636635E+01  0.34692059745E+01  0.41536498589E+02  0.00000000000E+00 0.  1.
<mgrwt>
<rscale>  0 0.43853878E+03</rscale>
<asrwt>0</asrwt>
<pdfrwt beam="1">  1        1 0.11933745E+00 0.43853878E+03</pdfrwt>
<pdfrwt beam="2">  1       -2 0.40003548E-01 0.43853878E+03</pdfrwt>
<totfact> 0.12527104E+02</totfact>
</mgrwt>
</event>
<event>
12    3  0.2269558E-007  0.4833646E+03  0.7818608E-02  0.1018215E+00
         -2   -1    0    0    0  501 -0.00000000000E+00  0.00000000000E+00  0.11020259969E+04  0.11020259969E+04  0.00000000000E+00 0.  1.
          1   -1    0    0  501    0  0.00000000000E+00 -0.00000000000E+00 -0.11007795321E+04  0.11007795321E+04  0.00000000000E+00 0. -1.
        -24    2    1    2    0    0  0.14107057656E+02 -0.44331345056E+03 -0.91575322715E+03  0.10205478434E+04  0.78664497153E+02 0.  0.
    5000000    2    1    2    0    0 -0.14107057656E+02  0.44331345056E+03  0.91699969188E+03  0.11822576856E+04  0.60009913828E+03 0.  0.
        -24    2    4    4    0    0 -0.14413282534E+02  0.43133829193E+01 -0.61598536172E+02  0.10686790903E+03  0.86023382503E+02 0.  0.
         24    2    4    4    0    0  0.30622487769E+00  0.43900006764E+03  0.97859822805E+03  0.10753897766E+04  0.78022602299E+02 0.  0.
         11    1    5    5    0    0 -0.38917194656E+02 -0.16568545694E+02 -0.61382951933E+01  0.42740418975E+02  0.00000000000E+00 0. -1.
        -12    1    5    5    0    0  0.24503912122E+02  0.20881928614E+02 -0.55460240978E+02  0.64127490059E+02  0.00000000000E+00 0.  1.
         13    1    3    3    0    0 -0.18448989921E+02 -0.83562326412E+02 -0.23133938342E+03  0.24665955880E+03  0.00000000000E+00 0. -1.
        -14    1    3    3    0    0  0.32556047577E+02 -0.35975112414E+03 -0.68441384373E+03  0.77388828461E+03  0.00000000000E+00 0.  1.
          2    1    6    6  502    0 -0.33155981163E+02  0.32341279758E+03  0.69262012033E+03  0.76512599473E+03  0.00000000000E+00 0. -1.
         -1    1    6    6    0  502  0.33462206041E+02  0.11558727006E+03  0.28597810773E+03  0.31026378186E+03  0.00000000000E+00 0.  1.
<mgrwt>
<rscale>  0 0.48336463E+03</rscale>
<asrwt>0</asrwt>
<pdfrwt beam="1">  1        1 0.16935070E+00 0.48336463E+03</pdfrwt>
<pdfrwt beam="2">  1       -2 0.16954246E+00 0.48336463E+03</pdfrwt>
<totfact> 0.25834382E+00</totfact>
</mgrwt>
</event>
<event>
12    3  0.2309692E-007  0.1425870E+04  0.7818608E-02  0.8935303E-01
          1   -1    0    0  501    0  0.00000000000E+00  0.00000000000E+00  0.19422092158E+04  0.19422092158E+04  0.00000000000E+00 0. -1.
         -2   -1    0    0    0  501 -0.00000000000E+00 -0.00000000000E+00 -0.13749603765E+04  0.13749603765E+04  0.00000000000E+00 0.  1.
        -24    2    1    2    0    0  0.13317646750E+04 -0.38923712226E+03  0.10372568112E+04  0.17341070396E+04  0.78248612690E+02 0.  0.
    5000000    2    1    2    0    0 -0.13317646750E+04  0.38923712226E+03 -0.47000797190E+03  0.15830625527E+04  0.60006405100E+03 0.  0.
        -24    2    4    4    0    0 -0.69673621693E+03  0.43457983982E+03 -0.45297871229E+03  0.94117938015E+03  0.79548216014E+02 0.  0.
         24    2    4    4    0    0 -0.63502845807E+03 -0.45342717563E+02 -0.17029259606E+02  0.64188317259E+03  0.80043156937E+02 0.  0.
         11    1    3    3    0    0  0.72369055657E+03 -0.21275560988E+03  0.51515729247E+03  0.91344403616E+03  0.00000000000E+00 0. -1.
        -12    1    3    3    0    0  0.60807411842E+03 -0.17648151238E+03  0.52209951873E+03  0.82066300341E+03  0.00000000000E+00 0.  1.
         11    1    5    5    0    0 -0.38209417598E+03  0.20175375123E+03 -0.20933869028E+03  0.48012833982E+03  0.00000000000E+00 0. -1.
        -12    1    5    5    0    0 -0.31464204095E+03  0.23282608859E+03 -0.24364002201E+03  0.46105104032E+03  0.00000000000E+00 0.  1.
          2    1    6    6  502    0 -0.23591456538E+03 -0.52015318784E+02 -0.22960463361E+02  0.24266944270E+03  0.00000000000E+00 0. -1.
         -1    1    6    6    0  502 -0.39911389269E+03  0.66726012218E+01  0.59312037549E+01  0.39921372988E+03  0.00000000000E+00 0.  1.
<mgrwt>
<rscale>  0 0.14258696E+04</rscale>
<asrwt>0</asrwt>
<pdfrwt beam="1">  1        1 0.29880142E+00 0.14258696E+04</pdfrwt>
<pdfrwt beam="2">  1       -2 0.21153237E+00 0.14258696E+04</pdfrwt>
<totfact> 0.30382175E-01</totfact>
</mgrwt>
</event>
<event>
12    3  0.2269558E-007  0.6203960E+03  0.7818608E-02  0.9863972E-01
          1   -1    0    0  501    0  0.00000000000E+00  0.00000000000E+00  0.82828231907E+03  0.82828231907E+03  0.00000000000E+00 0. -1.
         -2   -1    0    0    0  501 -0.00000000000E+00 -0.00000000000E+00 -0.54254404332E+03  0.54254404332E+03  0.00000000000E+00 0.  1.
        -24    2    1    2    0    0  0.15819562161E+03 -0.49850341626E+03  0.13701444099E+02  0.52977643996E+03  0.83329682877E+02 0.  0.
    5000000    2    1    2    0    0 -0.15819562161E+03  0.49850341626E+03  0.27203683164E+03  0.84104992242E+03  0.59985783609E+03 0.  0.
        -24    2    4    4    0    0 -0.32429586176E+03  0.40715718870E+03  0.38044698936E+02  0.52873115148E+03  0.84643069217E+02 0.  0.
         24    2    4    4    0    0  0.16610024014E+03  0.91346227562E+02  0.23399213271E+03  0.31231877094E+03  0.82808655629E+02 0.  0.
         11    1    3    3    0    0  0.86159064974E+02 -0.14566885829E+03 -0.31202286545E+01  0.16927060164E+03  0.00000000000E+00 0. -1.
        -12    1    3    3    0    0  0.72036556639E+02 -0.35283455797E+03  0.16821672753E+02  0.36050583832E+03  0.00000000000E+00 0.  1.
         11    1    5    5    0    0 -0.27599134987E+03  0.36608950638E+03  0.58327779646E+02  0.46216326311E+03  0.00000000000E+00 0. -1.
        -12    1    5    5    0    0 -0.48304511888E+02  0.41067682319E+02 -0.20283080711E+02  0.66567888376E+02  0.00000000000E+00 0.  1.
          4    1    6    6  502    0  0.34131147969E+02  0.19432521840E+02  0.11219614134E+03  0.11887191552E+03  0.00000000000E+00 0. -1.
         -3    1    6    6    0  502  0.13196909218E+03  0.71913705722E+02  0.12179599136E+03  0.19344685542E+03  0.00000000000E+00 0.  1.
<mgrwt>
<rscale>  0 0.62039595E+03</rscale>
<asrwt>0</asrwt>
<pdfrwt beam="1">  1        1 0.12742805E+00 0.62039595E+03</pdfrwt>
<pdfrwt beam="2">  1       -2 0.83468314E-01 0.62039595E+03</pdfrwt>
<totfact> 0.23805674E+01</totfact>
</mgrwt>
</event>
<event>
12    3  0.2269558E-007  0.4804491E+03  0.7818608E-02  0.1019012E+00
         -4   -1    0    0    0  501 -0.00000000000E+00  0.00000000000E+00  0.29266504327E+03  0.29266504327E+03  0.00000000000E+00 0.  1.
          1   -1    0    0  501    0  0.00000000000E+00 -0.00000000000E+00 -0.11148641664E+04  0.11148641664E+04  0.00000000000E+00 0. -1.
        -24    2    1    2    0    0  0.25666238161E+03 -0.16712889491E+03 -0.63345990656E+03  0.70796736686E+03  0.78349815974E+02 0.  0.
    5000000    2    1    2    0    0 -0.25666238161E+03  0.16712889491E+03 -0.18873921656E+03  0.69956184280E+03  0.59996386090E+03 0.  0.
        -24    2    4    4    0    0  0.15775342001E+03 -0.58213892165E+02 -0.10772231097E+03  0.21449115014E+03  0.78277445281E+02 0.  0.
         24    2    4    4    0    0 -0.41441580162E+03  0.22534278707E+03 -0.81016905583E+02  0.48507069266E+03  0.78803613960E+02 0.  0.
         11    1    5    5    0    0  0.67502448563E+02 -0.39413301486E+02 -0.78256340632E+01  0.78557173094E+02  0.00000000000E+00 0. -1.
        -12    1    5    5    0    0  0.90250971446E+02 -0.18800590679E+02 -0.99896676910E+02  0.13593397704E+03  0.00000000000E+00 0.  1.
         13    1    3    3    0    0  0.21498445946E+02 -0.45409347646E+02 -0.80817455382E+02  0.95161195485E+02  0.00000000000E+00 0. -1.
        -14    1    3    3    0    0  0.23516393567E+03 -0.12171954726E+03 -0.55264245118E+03  0.61280617137E+03  0.00000000000E+00 0.  1.
          2    1    6    6  502    0 -0.24263179369E+03  0.16504549690E+03 -0.24619179399E+02  0.29447632732E+03  0.00000000000E+00 0. -1.
         -1    1    6    6    0  502 -0.17178400793E+03  0.60297290167E+02 -0.56397726184E+02  0.19059436534E+03  0.00000000000E+00 0.  1.
<mgrwt>
<rscale>  0 0.48044907E+03</rscale>
<asrwt>0</asrwt>
<pdfrwt beam="1">  1        1 0.17151756E+00 0.48044907E+03</pdfrwt>
<pdfrwt beam="2">  1       -4 0.45025392E-01 0.48044907E+03</pdfrwt>
<totfact> 0.29506105E+01</totfact>
</mgrwt>
</event>
<event>
12    3  0.2269558E-007  0.7190962E+03  0.7818608E-02  0.9685121E-01
          1   -1    0    0  501    0  0.00000000000E+00  0.00000000000E+00  0.65500661057E+03  0.65500661057E+03  0.00000000000E+00 0. -1.
         -2   -1    0    0    0  501 -0.00000000000E+00 -0.00000000000E+00 -0.11359398520E+04  0.11359398520E+04  0.00000000000E+00 0.  1.
        -24    2    1    2    0    0 -0.38732374769E+03 -0.59516366581E+03  0.55125274056E+02  0.71784578784E+03  0.89578483193E+02 0.  0.
    5000000    2    1    2    0    0  0.38732374769E+03  0.59516366581E+03 -0.53605851545E+03  0.10731006747E+04  0.59995570790E+03 0.  0.
        -24    2    4    4    0    0  0.93751892237E+02  0.23693692101E+03 -0.54012549319E+03  0.60249228297E+03  0.79579399384E+02 0.  0.
         24    2    4    4    0    0  0.29357185545E+03  0.35822674480E+03  0.40669777332E+01  0.47060839174E+03  0.83335965031E+02 0.  0.
         11    1    5    5    0    0  0.50359534726E+01  0.89316309106E+02 -0.24456568600E+03  0.26041339956E+03  0.00000000000E+00 0. -1.
        -12    1    5    5    0    0  0.88715938764E+02  0.14762061191E+03 -0.29555980719E+03  0.34207888341E+03  0.00000000000E+00 0.  1.
         13    1    3    3    0    0 -0.18864139411E+03 -0.33587175817E+03  0.66832687806E+02  0.39097573028E+03  0.00000000000E+00 0. -1.
        -14    1    3    3    0    0 -0.19868235358E+03 -0.25929190765E+03 -0.11707413751E+02  0.32687005756E+03  0.00000000000E+00 0.  1.
          2    1    6    6  502    0  0.23891681371E+03  0.31248250198E+03  0.30638149646E+02  0.39454436268E+03  0.00000000000E+00 0. -1.
         -1    1    6    6    0  502  0.54655041742E+02  0.45744242822E+02 -0.26571171913E+02  0.76064029055E+02  0.00000000000E+00 0.  1.
<mgrwt>
<rscale>  0 0.71909622E+03</rscale>
<asrwt>0</asrwt>
<pdfrwt beam="1">  1        1 0.10077025E+00 0.71909622E+03</pdfrwt>
<pdfrwt beam="2">  1       -2 0.17475998E+00 0.71909622E+03</pdfrwt>
<totfact> 0.53445224E+00</totfact>
</mgrwt>
</event>
<event>
12    3  0.2269558E-007  0.1274854E+04  0.7818608E-02  0.9049747E-01
         -2   -1    0    0    0  501 -0.00000000000E+00  0.00000000000E+00  0.10314775978E+04  0.10314775978E+04  0.00000000000E+00 0.  1.
          1   -1    0    0  501    0  0.00000000000E+00 -0.00000000000E+00 -0.28877927643E+04  0.28877927643E+04  0.00000000000E+00 0. -1.
        -24    2    1    2    0    0 -0.11956617451E+04  0.17382569655E+03 -0.22141209273E+04  0.25236182638E+04  0.80593295129E+02 0.  0.
    5000000    2    1    2    0    0  0.11956617451E+04 -0.17382569655E+03  0.35780576077E+03  0.13956520983E+04  0.59999786293E+03 0.  0.
        -24    2    4    4    0    0  0.67907294352E+03 -0.38447881666E+03  0.19040943129E+03  0.80752914842E+03  0.82967167871E+02 0.  0.
         24    2    4    4    0    0  0.51658880158E+03  0.21065312011E+03  0.16739632948E+03  0.58812294986E+03  0.81414655297E+02 0.  0.
         11    1    5    5    0    0  0.44487122740E+02 -0.18769958972E+02  0.32712558056E+02  0.58322610573E+02  0.00000000000E+00 0. -1.
        -12    1    5    5    0    0  0.63458582078E+03 -0.36570885769E+03  0.15769687324E+03  0.74920653785E+03  0.00000000000E+00 0.  1.
         11    1    3    3    0    0 -0.44101114920E+03  0.10341382919E+03 -0.83411972736E+03  0.94917910500E+03  0.00000000000E+00 0. -1.
        -12    1    3    3    0    0 -0.75465059589E+03  0.70411867361E+02 -0.13800011999E+04  0.15744391588E+04  0.00000000000E+00 0.  1.
          4    1    6    6  502    0  0.13534554836E+03  0.47943978375E+02  0.80455895164E+02  0.16459098879E+03  0.00000000000E+00 0. -1.
         -3    1    6    6    0  502  0.38124325322E+03  0.16270914173E+03  0.86940434316E+02  0.42353196107E+03  0.00000000000E+00 0.  1.
<mgrwt>
<rscale>  0 0.12748539E+04</rscale>
<asrwt>0</asrwt>
<pdfrwt beam="1">  1        1 0.44427580E+00 0.12748539E+04</pdfrwt>
<pdfrwt beam="2">  1       -2 0.15868886E+00 0.12748539E+04</pdfrwt>
<totfact> 0.15877638E-01</totfact>
</mgrwt>
</event>
<event>
12    3  0.2269558E-007  0.3718846E+03  0.7818608E-02  0.1053975E+00
          1   -1    0    0  501    0  0.00000000000E+00  0.00000000000E+00  0.13426351089E+04  0.13426351089E+04  0.00000000000E+00 0. -1.
         -2   -1    0    0    0  501 -0.00000000000E+00 -0.00000000000E+00 -0.11818460307E+03  0.11818460307E+03  0.00000000000E+00 0.  1.
        -24    2    1    2    0    0 -0.55089217346E+02  0.12907674040E+03  0.40291741103E+03  0.43378917807E+03  0.78326139450E+02 0.  0.
    5000000    2    1    2    0    0  0.55089217346E+02 -0.12907674040E+03  0.82153309481E+03  0.10270305339E+04  0.60014953546E+03 0.  0.
        -24    2    4    4    0    0 -0.51046096918E+02  0.21901384543E+03  0.37913551028E+03  0.44839191257E+03  0.82090216209E+02 0.  0.
         24    2    4    4    0    0  0.10613531426E+03 -0.34809058583E+03  0.44239758453E+03  0.57863862134E+03  0.81702328176E+02 0.  0.
         11    1    3    3    0    0 -0.29000870139E+02  0.10681753780E+03  0.37019814246E+03  0.38639060746E+03  0.00000000000E+00 0. -1.
        -12    1    3    3    0    0 -0.26088347206E+02  0.22259202603E+02  0.32719268564E+02  0.47398570610E+02  0.00000000000E+00 0.  1.
         13    1    5    5    0    0 -0.99531257641E+01  0.16531345543E+03  0.31129257919E+03  0.35260554891E+03  0.00000000000E+00 0. -1.
        -14    1    5    5    0    0 -0.41092971154E+02  0.53700390001E+02  0.67842931088E+02  0.95786363659E+02  0.00000000000E+00 0.  1.
          2    1    6    6  502    0  0.66287468202E+02 -0.15809378415E+03  0.26528739016E+03  0.31585609446E+03  0.00000000000E+00 0. -1.
         -1    1    6    6    0  502  0.39847846062E+02 -0.18999680168E+03  0.17711019437E+03  0.26278252688E+03  0.00000000000E+00 0.  1.
<mgrwt>
<rscale>  0 0.37188460E+03</rscale>
<asrwt>0</asrwt>
<pdfrwt beam="1">  1        1 0.20655924E+00 0.37188460E+03</pdfrwt>
<pdfrwt beam="2">  1       -2 0.18182248E-01 0.37188460E+03</pdfrwt>
<totfact> 0.19676932E+02</totfact>
</mgrwt>
</event>
<event>
12    3  0.2269558E-007  0.6622766E+03  0.7818608E-02  0.9784012E-01
          1   -1    0    0  501    0  0.00000000000E+00  0.00000000000E+00  0.12884418718E+04  0.12884418718E+04  0.00000000000E+00 0. -1.
         -2   -1    0    0    0  501 -0.00000000000E+00 -0.00000000000E+00 -0.12567240812E+04  0.12567240812E+04  0.00000000000E+00 0.  1.
        -24    2    1    2    0    0  0.30683224796E+03  0.42554113050E+03  0.10948236595E+04  0.12164978319E+04  0.77439315093E+02 0.  0.
    5000000    2    1    2    0    0 -0.30683224796E+03 -0.42554113050E+03 -0.10631058689E+04  0.13286681210E+04  0.59994466854E+03 0.  0.
        -24    2    4    4    0    0 -0.47665405183E+03 -0.29913955756E+03 -0.73512393513E+03  0.92927492259E+03  0.80381103110E+02 0.  0.
         24    2    4    4    0    0  0.16982180387E+03 -0.12640157294E+03 -0.32798193373E+03  0.39939319844E+03  0.84415492623E+02 0.  0.
         13    1    5    5    0    0 -0.34603815905E+03 -0.25540689271E+03 -0.53765382374E+03  0.68851051011E+03  0.00000000000E+00 0. -1.
        -14    1    5    5    0    0 -0.13061589278E+03 -0.43732664851E+02 -0.19747011140E+03  0.24076441248E+03  0.00000000000E+00 0.  1.
         13    1    3    3    0    0  0.15293190661E+03  0.27154642245E+03  0.60848325434E+03  0.68365012866E+03  0.00000000000E+00 0. -1.
        -14    1    3    3    0    0  0.15390034135E+03  0.15399470805E+03  0.48634040514E+03  0.53284770324E+03  0.00000000000E+00 0.  1.
          4    1    6    6  502    0  0.15313369078E+03 -0.13871462207E+03 -0.30544694561E+03  0.36876755580E+03  0.00000000000E+00 0. -1.
         -3    1    6    6    0  502  0.16688113094E+02  0.12313049132E+02 -0.22534988116E+02  0.30625642638E+02  0.00000000000E+00 0.  1.
<mgrwt>
<rscale>  0 0.66227658E+03</rscale>
<asrwt>0</asrwt>
<pdfrwt beam="1">  1        1 0.19822183E+00 0.66227658E+03</pdfrwt>
<pdfrwt beam="2">  1       -2 0.19334217E+00 0.66227658E+03</pdfrwt>
<totfact> 0.12537558E+00</totfact>
</mgrwt>
</event>
<event>
12    3  0.2269558E-007  0.3484262E+03  0.7818608E-02  0.1063263E+00
         -2   -1    0    0    0  501 -0.00000000000E+00  0.00000000000E+00  0.37794248973E+03  0.37794248973E+03  0.00000000000E+00 0.  1.
          1   -1    0    0  501    0  0.00000000000E+00 -0.00000000000E+00 -0.46089474088E+03  0.46089474088E+03  0.00000000000E+00 0. -1.
        -24    2    1    2    0    0 -0.10086524079E+03  0.13588553525E+03  0.65352270008E+02  0.19815317887E+03  0.79718803381E+02 0.  0.
    5000000    2    1    2    0    0  0.10086524079E+03 -0.13588553525E+03 -0.14830452116E+03  0.64068405173E+03  0.59986927548E+03 0.  0.
        -24    2    4    4    0    0 -0.10301326467E+03  0.12727011012E+03  0.10968436787E+03  0.21203460076E+03  0.78221465946E+02 0.  0.
         24    2    4    4    0    0  0.20387850546E+03 -0.26315564537E+03 -0.25798888903E+03  0.42864945098E+03  0.79779360016E+02 0.  0.
         13    1    3    3    0    0 -0.66378026490E+02  0.26056209375E+02  0.17085826217E+02  0.73327306682E+02  0.00000000000E+00 0. -1.
        -14    1    3    3    0    0 -0.34487214301E+02  0.10982932587E+03  0.48266443791E+02  0.12482587219E+03  0.00000000000E+00 0.  1.
         13    1    5    5    0    0  0.93230630648E+01  0.16027749882E+02  0.29305479121E+02  0.34678803003E+02  0.00000000000E+00 0. -1.
        -14    1    5    5    0    0 -0.11233632773E+03  0.11124236024E+03  0.80378888749E+02  0.17735579775E+03  0.00000000000E+00 0.  1.
          4    1    6    6  502    0  0.44412007384E+02 -0.41920527794E+02 -0.88598809807E+02  0.10760811377E+03  0.00000000000E+00 0. -1.
         -3    1    6    6    0  502  0.15946649808E+03 -0.22123511757E+03 -0.16939007922E+03  0.32104133720E+03  0.00000000000E+00 0.  1.
<mgrwt>
<rscale>  0 0.34842615E+03</rscale>
<asrwt>0</asrwt>
<pdfrwt beam="1">  1        1 0.70906883E-01 0.34842615E+03</pdfrwt>
<pdfrwt beam="2">  1       -2 0.58144998E-01 0.34842615E+03</pdfrwt>
<totfact> 0.12512827E+02</totfact>
</mgrwt>
</event>
<event>
12    3  0.2269558E-007  0.9641792E+03  0.7818608E-02  0.9348729E-01
          1   -1    0    0  501    0  0.00000000000E+00  0.00000000000E+00  0.98318487196E+03  0.98318487196E+03  0.00000000000E+00 0. -1.
         -2   -1    0    0    0  501 -0.00000000000E+00 -0.00000000000E+00 -0.11311052636E+04  0.11311052636E+04  0.00000000000E+00 0.  1.
        -24    2    1    2    0    0  0.16513857368E+03  0.85862703455E+03  0.34691943023E+03  0.94409395717E+03  0.80306761294E+02 0.  0.
    5000000    2    1    2    0    0 -0.16513857368E+03 -0.85862703455E+03 -0.49483982191E+03  0.11701961784E+04  0.59998459454E+03 0.  0.
        -24    2    4    4    0    0 -0.28645374921E+03 -0.86414031044E+03 -0.40475753996E+03  0.99923740679E+03  0.76501649739E+02 0.  0.
         24    2    4    4    0    0  0.12131517553E+03  0.55132758919E+01 -0.90082281951E+02  0.17095877164E+03  0.79776663586E+02 0.  0.
         13    1    5    5    0    0 -0.54109468932E+02 -0.27499296042E+03 -0.12695081198E+03  0.30767754480E+03  0.00000000000E+00 0. -1.
        -14    1    5    5    0    0 -0.23234428028E+03 -0.58914735002E+03 -0.27780672798E+03  0.69155986200E+03  0.00000000000E+00 0.  1.
         13    1    3    3    0    0  0.11309899136E+03  0.55615519178E+03  0.18402015277E+03  0.59662668044E+03  0.00000000000E+00 0. -1.
        -14    1    3    3    0    0  0.52039582320E+02  0.30247184277E+03  0.16289927746E+03  0.34746727673E+03  0.00000000000E+00 0.  1.
          2    1    6    6  502    0 -0.33761639149E+01  0.14908361648E+02 -0.26704266466E+02  0.30769718512E+02  0.00000000000E+00 0. -1.
         -1    1    6    6    0  502  0.12469133945E+03 -0.93950857564E+01 -0.63378015485E+02  0.14018905313E+03  0.00000000000E+00 0.  1.
<mgrwt>
<rscale>  0 0.96417923E+03</rscale>
<asrwt>0</asrwt>
<pdfrwt beam="1">  1        1 0.15125921E+00 0.96417923E+03</pdfrwt>
<pdfrwt beam="2">  1       -2 0.17401620E+00 0.96417923E+03</pdfrwt>
<totfact> 0.27295267E+00</totfact>
</mgrwt>
</event>
<event>
12    3  0.2269558E-007  0.9943174E+03  0.7818608E-02  0.9314799E-01
          1   -1    0    0  501    0  0.00000000000E+00  0.00000000000E+00  0.27047835086E+04  0.27047835086E+04  0.00000000000E+00 0. -1.
         -2   -1    0    0    0  501 -0.00000000000E+00 -0.00000000000E+00 -0.37671147012E+03  0.37671147012E+03  0.00000000000E+00 0.  1.
        -24    2    1    2    0    0  0.84247576509E+03 -0.35507668715E+03  0.11941024617E+04  0.15061244792E+04  0.81764230244E+02 0.  0.
    5000000    2    1    2    0    0 -0.84247576509E+03  0.35507668715E+03  0.11339695768E+04  0.15753704995E+04  0.60005028217E+03 0.  0.
        -24    2    4    4    0    0 -0.68039499324E+02 -0.12935863318E+03  0.24412868885E+03  0.29765634078E+03  0.87392511354E+02 0.  0.
         24    2    4    4    0    0 -0.77443626576E+03  0.48443532033E+03  0.88984088792E+03  0.12777141587E+04  0.79420124997E+02 0.  0.
         11    1    5    5    0    0 -0.70609881169E+02 -0.70801573869E+02  0.20225216852E+03  0.22562038439E+03  0.00000000000E+00 0. -1.
        -12    1    5    5    0    0  0.25703818456E+01 -0.58557059312E+02  0.41876520327E+02  0.72035956388E+02  0.00000000000E+00 0.  1.
         13    1    3    3    0    0  0.60376465630E+03 -0.22334640916E+03  0.87737206833E+03  0.10882082177E+04  0.00000000000E+00 0. -1.
        -14    1    3    3    0    0  0.23871110879E+03 -0.13173027799E+03  0.31673039339E+03  0.41791626158E+03  0.00000000000E+00 0.  1.
          4    1    6    6  502    0 -0.22097399890E+03  0.12916072151E+03  0.20211478176E+03  0.32613246569E+03  0.00000000000E+00 0. -1.
         -3    1    6    6    0  502 -0.55346226687E+03  0.35527459882E+03  0.68772610616E+03  0.95158169303E+03  0.00000000000E+00 0.  1.
<mgrwt>
<rscale>  0 0.99431742E+03</rscale>
<asrwt>0</asrwt>
<pdfrwt beam="1">  1        1 0.41612053E+00 0.99431742E+03</pdfrwt>
<pdfrwt beam="2">  1       -2 0.57955612E-01 0.99431742E+03</pdfrwt>
<totfact> 0.24317417E+00</totfact>
</mgrwt>
</event>
<event>
12    3  0.2269558E-007  0.5228075E+03  0.7818608E-02  0.1007991E+00
         -2   -1    0    0    0  501 -0.00000000000E+00  0.00000000000E+00  0.58353718601E+03  0.58353718601E+03  0.00000000000E+00 0.  1.
          1   -1    0    0  501    0  0.00000000000E+00 -0.00000000000E+00 -0.67148440674E+03  0.67148440674E+03  0.00000000000E+00 0. -1.
        -24    2    1    2    0    0 -0.15490146896E+03 -0.31577358914E+03  0.28947627290E+03  0.46380699158E+03  0.87252439414E+02 0.  0.
    5000000    2    1    2    0    0  0.15490146896E+03  0.31577358914E+03 -0.37742349364E+03  0.79121460117E+03  0.59988717845E+03 0.  0.
        -24    2    4    4    0    0 -0.18535897806E+03  0.27587126095E+03 -0.15663038006E+03  0.37593474707E+03  0.79567296864E+02 0.  0.
         24    2    4    4    0    0  0.34026044702E+03  0.39902328188E+02 -0.22079311358E+03  0.41527985410E+03  0.79614010193E+02 0.  0.
         13    1    3    3    0    0 -0.74539690996E+02 -0.83890069309E+02  0.12702735361E+03  0.16949825317E+03  0.00000000000E+00 0. -1.
        -14    1    3    3    0    0 -0.80361777960E+02 -0.23188351983E+03  0.16244891929E+03  0.29430873841E+03  0.00000000000E+00 0.  1.
         13    1    5    5    0    0 -0.37850872273E+02  0.12440613157E+03 -0.52163366066E+02  0.14010921049E+03  0.00000000000E+00 0. -1.
        -14    1    5    5    0    0 -0.14750810579E+03  0.15146512938E+03 -0.10446701399E+03  0.23582553658E+03  0.00000000000E+00 0.  1.
          4    1    6    6  502    0  0.21892559495E+03  0.50649619900E+02 -0.10818998643E+03  0.24939701940E+03  0.00000000000E+00 0. -1.
         -3    1    6    6    0  502  0.12133485206E+03 -0.10747291711E+02 -0.11260312715E+03  0.16588283470E+03  0.00000000000E+00 0.  1.
<mgrwt>
<rscale>  0 0.52280754E+03</rscale>
<asrwt>0</asrwt>
<pdfrwt beam="1">  1        1 0.10330529E+00 0.52280754E+03</pdfrwt>
<pdfrwt beam="2">  1       -2 0.89774952E-01 0.52280754E+03</pdfrwt>
<totfact> 0.28180844E+01</totfact>
</mgrwt>
</event>
<event>
12    3  0.2269558E-007  0.8053879E+03  0.7818608E-02  0.9552251E-01
         -2   -1    0    0    0  501 -0.00000000000E+00  0.00000000000E+00  0.32438747028E+03  0.32438747028E+03  0.00000000000E+00 0.  1.
          1   -1    0    0  501    0  0.00000000000E+00 -0.00000000000E+00 -0.22070199871E+04  0.22070199871E+04  0.00000000000E+00 0. -1.
        -24    2    1    2    0    0  0.34359985172E+03 -0.65057239268E+03 -0.89788426369E+03  0.11635627987E+04  0.79855740026E+02 0.  0.
    5000000    2    1    2    0    0 -0.34359985172E+03  0.65057239268E+03 -0.98474825309E+03  0.13678446587E+04  0.59997049271E+03 0.  0.
        -24    2    4    4    0    0 -0.45202983351E+03  0.57613048309E+03 -0.96354826743E+03  0.12129367312E+04  0.80826643997E+02 0.  0.
         24    2    4    4    0    0  0.10842998179E+03  0.74441909585E+02 -0.21199985657E+02  0.15490792745E+03  0.79046617528E+02 0.  0.
         13    1    5    5    0    0 -0.14652960031E+03  0.16081957495E+03 -0.34268144827E+03  0.40591185551E+03  0.00000000000E+00 0. -1.
        -14    1    5    5    0    0 -0.30550023319E+03  0.41531090814E+03 -0.62086681916E+03  0.80702487572E+03  0.00000000000E+00 0.  1.
         13    1    3    3    0    0  0.88068174187E+02 -0.10786091435E+03 -0.19291241733E+03  0.23791843331E+03  0.00000000000E+00 0. -1.
        -14    1    3    3    0    0  0.25553167753E+03 -0.54271147833E+03 -0.70497184636E+03  0.92564436534E+03  0.00000000000E+00 0.  1.
          4    1    6    6  502    0  0.80585620693E+02  0.29799404264E+02  0.19840931730E+02  0.88179982586E+02  0.00000000000E+00 0. -1.
         -3    1    6    6    0  502  0.27844361094E+02  0.44642505321E+02 -0.41040917387E+02  0.66727944866E+02  0.00000000000E+00 0.  1.
<mgrwt>
<rscale>  0 0.80538785E+03</rscale>
<asrwt>0</asrwt>
<pdfrwt beam="1">  1        1 0.33954154E+00 0.80538785E+03</pdfrwt>
<pdfrwt beam="2">  1       -2 0.49905764E-01 0.80538785E+03</pdfrwt>
<totfact> 0.74592364E+00</totfact>
</mgrwt>
</event>
<event>
12    3  0.2269558E-007  0.9232918E+03  0.7818608E-02  0.9396925E-01
          1   -1    0    0  501    0  0.00000000000E+00  0.00000000000E+00  0.40076903006E+04  0.40076903006E+04  0.00000000000E+00 0. -1.
         -2   -1    0    0    0  501 -0.00000000000E+00 -0.00000000000E+00 -0.37047568604E+03  0.37047568604E+03  0.00000000000E+00 0.  1.
        -24    2    1    2    0    0 -0.84773057460E+03 -0.99840113798E+02  0.34388760940E+03  0.92353205525E+03  0.77701954571E+02 0.  0.
    5000000    2    1    2    0    0  0.84773057460E+03  0.99840113798E+02  0.32933270052E+04  0.34546339314E+04  0.59989804265E+03 0.  0.
        -24    2    4    4    0    0  0.56296598508E+03  0.30293894914E+03  0.16535879179E+04  0.17746912765E+04  0.80457551543E+02 0.  0.
         24    2    4    4    0    0  0.28476458952E+03 -0.20309883534E+03  0.16397390873E+04  0.16799426549E+04  0.10546582798E+03 0.  0.
         11    1    5    5    0    0  0.28284071690E+03  0.13025179828E+03  0.70711029350E+03  0.77263792896E+03  0.00000000000E+00 0. -1.
        -12    1    5    5    0    0  0.28012526818E+03  0.17268715086E+03  0.94647762436E+03  0.10020533476E+04  0.00000000000E+00 0.  1.
         11    1    3    3    0    0 -0.43905127935E+03 -0.85580306435E+02  0.20049498478E+03  0.49019205795E+03  0.00000000000E+00 0. -1.
        -12    1    3    3    0    0 -0.40867929525E+03 -0.14259807363E+02  0.14339262461E+03  0.43333999730E+03  0.00000000000E+00 0.  1.
          2    1    6    6  502    0  0.22929839849E+03 -0.15935705174E+03  0.10697748976E+04  0.11056178169E+04  0.00000000000E+00 0. -1.
         -1    1    6    6    0  502  0.55466191033E+02 -0.43741783605E+02  0.56996418976E+03  0.57432483804E+03  0.00000000000E+00 0.  1.
<mgrwt>
<rscale>  0 0.92329177E+03</rscale>
<asrwt>0</asrwt>
<pdfrwt beam="1">  1        1 0.61656771E+00 0.92329177E+03</pdfrwt>
<pdfrwt beam="2">  1       -2 0.56996262E-01 0.92329177E+03</pdfrwt>
<totfact> 0.25563749E-01</totfact>
</mgrwt>
</event>
<event>
12    3  0.2269558E-007  0.1147182E+04  0.7818608E-02  0.9160387E-01
         -2   -1    0    0    0  501 -0.00000000000E+00  0.00000000000E+00  0.77579906981E+03  0.77579906981E+03  0.00000000000E+00 0.  1.
          1   -1    0    0  501    0  0.00000000000E+00 -0.00000000000E+00 -0.24356323076E+04  0.24356323076E+04  0.00000000000E+00 0. -1.
        -24    2    1    2    0    0  0.92327407947E+03  0.56085899713E+03  0.70018717501E+02  0.10855401934E+04  0.80604280916E+02 0.  0.
    5000000    2    1    2    0    0 -0.92327407947E+03 -0.56085899713E+03 -0.17298519553E+04  0.21258911841E+04  0.60002308185E+03 0.  0.
        -24    2    4    4    0    0 -0.52926423926E+01 -0.23987765174E+03 -0.45674644286E+03  0.52198880268E+03  0.79282388897E+02 0.  0.
         24    2    4    4    0    0 -0.91798143708E+03 -0.32098134539E+03 -0.12731055125E+04  0.16039023814E+04  0.77370926751E+02 0.  0.
         13    1    5    5    0    0 -0.93223166099E+01 -0.21711212473E+03 -0.44675175208E+03  0.49680147773E+03  0.00000000000E+00 0. -1.
        -14    1    5    5    0    0  0.40296742173E+01 -0.22765527010E+02 -0.99946907887E+01  0.25187324953E+02  0.00000000000E+00 0.  1.
         13    1    3    3    0    0  0.33668280031E+03  0.21192605259E+03 -0.12613843102E+02  0.39802897989E+03  0.00000000000E+00 0. -1.
        -14    1    3    3    0    0  0.58659127916E+03  0.34893294454E+03  0.82632560602E+02  0.68751121347E+03  0.00000000000E+00 0.  1.
          4    1    6    6  502    0 -0.88897332147E+03 -0.31908811202E+03 -0.12150240807E+04  0.15389523405E+04  0.00000000000E+00 0. -1.
         -3    1    6    6    0  502 -0.29008115605E+02 -0.18932333634E+01 -0.58081431734E+02  0.64950040922E+02  0.00000000000E+00 0.  1.
<mgrwt>
<rscale>  0 0.11471817E+04</rscale>
<asrwt>0</asrwt>
<pdfrwt beam="1">  1        1 0.37471266E+00 0.11471817E+04</pdfrwt>
<pdfrwt beam="2">  1       -2 0.11935371E+00 0.11471817E+04</pdfrwt>
<totfact> 0.70209928E-01</totfact>
</mgrwt>
</event>
<event>
12    3  0.2269558E-007  0.7228068E+03  0.7818608E-02  0.9679005E-01
          1   -1    0    0  501    0  0.00000000000E+00  0.00000000000E+00  0.10517477634E+04  0.10517477634E+04  0.00000000000E+00 0. -1.
         -2   -1    0    0    0  501 -0.00000000000E+00 -0.00000000000E+00 -0.61888948649E+03  0.61888948649E+03  0.00000000000E+00 0.  1.
        -24    2    1    2    0    0  0.61218970936E+03  0.45753828964E+02  0.51908285828E+03  0.80783127015E+03  0.79212967136E+02 0.  0.
    5000000    2    1    2    0    0 -0.61218970936E+03 -0.45753828964E+02 -0.86224581411E+02  0.86280597969E+03  0.60010817945E+03 0.  0.
        -24    2    4    4    0    0 -0.66904530969E+03  0.97039224048E+02 -0.10819099324E+03  0.68903160652E+03  0.77595272641E+02 0.  0.
         24    2    4    4    0    0  0.56855600337E+02 -0.14279305301E+03  0.21966411832E+02  0.17377437317E+03  0.78055071874E+02 0.  0.
         11    1    3    3    0    0  0.16710682183E+03 -0.92995318675E+01  0.17850882398E+03  0.24469689707E+03  0.00000000000E+00 0. -1.
        -12    1    3    3    0    0  0.44508288752E+03  0.55053360831E+02  0.34057403430E+03  0.56313437308E+03  0.00000000000E+00 0.  1.
         13    1    5    5    0    0 -0.49668804468E+03  0.69215993069E+02 -0.11425229365E+03  0.51433787925E+03  0.00000000000E+00 0. -1.
        -14    1    5    5    0    0 -0.17235726501E+03  0.27823230979E+02  0.60613004094E+01  0.17469372727E+03  0.00000000000E+00 0.  1.
          4    1    6    6  502    0  0.60279177272E+01 -0.14623787333E+02 -0.23730893704E+02  0.28519226218E+02  0.00000000000E+00 0. -1.
         -3    1    6    6    0  502  0.50827682610E+02 -0.12816926568E+03  0.45697305536E+02  0.14525514696E+03  0.00000000000E+00 0.  1.
<mgrwt>
<rscale>  0 0.72280676E+03</rscale>
<asrwt>0</asrwt>
<pdfrwt beam="1">  1        1 0.16180735E+00 0.72280676E+03</pdfrwt>
<pdfrwt beam="2">  1       -2 0.95213767E-01 0.72280676E+03</pdfrwt>
<totfact> 0.11529850E+01</totfact>
</mgrwt>
</event>
<event>
12    3  0.2269558E-007  0.9317356E+03  0.7818608E-02  0.9386757E-01
          1   -1    0    0  501    0  0.00000000000E+00  0.00000000000E+00  0.66515353082E+03  0.66515353082E+03  0.00000000000E+00 0. -1.
         -2   -1    0    0    0  501 -0.00000000000E+00 -0.00000000000E+00 -0.14429460604E+04  0.14429460604E+04  0.00000000000E+00 0.  1.
        -24    2    1    2    0    0 -0.25513625899E+03 -0.80572810684E+03 -0.63796972204E+03  0.10622104839E+04  0.83626868713E+02 0.  0.
    5000000    2    1    2    0    0  0.25513625899E+03  0.80572810684E+03 -0.13982280750E+03  0.10458891072E+04  0.60003442765E+03 0.  0.
        -24    2    4    4    0    0 -0.10663465830E+02 -0.67009690992E+02 -0.74285105096E+02  0.12796699451E+03  0.79077598941E+02 0.  0.
         24    2    4    4    0    0  0.26579972482E+03  0.87273779783E+03 -0.65537702409E+02  0.91792211274E+03  0.77233782397E+02 0.  0.
         11    1    3    3    0    0 -0.17411967094E+03 -0.47577590685E+03 -0.33848268286E+03  0.60930361885E+03  0.00000000000E+00 0. -1.
        -12    1    3    3    0    0 -0.81016588043E+02 -0.32995219999E+03 -0.29948703918E+03  0.45290686510E+03  0.00000000000E+00 0.  1.
         13    1    5    5    0    0 -0.41422893853E+02 -0.20928696095E+02 -0.47568883220E+02  0.66457995051E+02  0.00000000000E+00 0. -1.
        -14    1    5    5    0    0  0.30759428023E+02 -0.46080994897E+02 -0.26716221876E+02  0.61508999458E+02  0.00000000000E+00 0.  1.
          2    1    6    6  502    0  0.16207860125E+03  0.40624730089E+03 -0.43278042430E+02  0.43952170757E+03  0.00000000000E+00 0. -1.
         -1    1    6    6    0  502  0.10372112357E+03  0.46649049694E+03 -0.22259659979E+02  0.47840040517E+03  0.00000000000E+00 0.  1.
<mgrwt>
<rscale>  0 0.93173560E+03</rscale>
<asrwt>0</asrwt>
<pdfrwt beam="1">  1        1 0.10233131E+00 0.93173560E+03</pdfrwt>
<pdfrwt beam="2">  1       -2 0.22199170E+00 0.93173560E+03</pdfrwt>
<totfact> 0.24917791E+00</totfact>
</mgrwt>
</event>
<event>
12    3  0.2269558E-007  0.4653846E+03  0.7818608E-02  0.1023231E+00
          1   -1    0    0  501    0  0.00000000000E+00  0.00000000000E+00  0.19836906653E+04  0.19836906653E+04  0.00000000000E+00 0. -1.
         -2   -1    0    0    0  501 -0.00000000000E+00 -0.00000000000E+00 -0.23129398506E+03  0.23129398506E+03  0.00000000000E+00 0.  1.
        -24    2    1    2    0    0  0.37349383406E+03 -0.35817523745E+01  0.67188939926E+02  0.38756817548E+03  0.78640091353E+02 0.  0.
    5000000    2    1    2    0    0 -0.37349383406E+03  0.35817523745E+01  0.16852077403E+04  0.18274164748E+04  0.60001280952E+03 0.  0.
        -24    2    4    4    0    0 -0.44988773005E+03 -0.19034247130E+02  0.69626462978E+03  0.83214740055E+03  0.70168292962E+02 0.  0.
         24    2    4    4    0    0  0.76393895997E+02  0.22615999504E+02  0.98894311050E+03  0.99526907430E+03  0.78768925709E+02 0.  0.
         11    1    3    3    0    0  0.34247148483E+03  0.91026512266E+01  0.79791557270E+02  0.35176166476E+03  0.00000000000E+00 0. -1.
        -12    1    3    3    0    0  0.31022349227E+02 -0.12684403601E+02 -0.12602617344E+02  0.35806510724E+02  0.00000000000E+00 0.  1.
         13    1    5    5    0    0 -0.72308816669E+02  0.19174008390E+02  0.91773682157E+02  0.11840023776E+03  0.00000000000E+00 0. -1.
        -14    1    5    5    0    0 -0.37757891338E+03 -0.38208255520E+02  0.60449094763E+03  0.71374716279E+03  0.00000000000E+00 0.  1.
          2    1    6    6  502    0  0.19025676066E+02  0.36643351257E+02  0.20571261381E+03  0.20981513535E+03  0.00000000000E+00 0. -1.
         -1    1    6    6    0  502  0.57368219931E+02 -0.14027351753E+02  0.78323049669E+03  0.78545393894E+03  0.00000000000E+00 0.  1.
<mgrwt>
<rscale>  0 0.46538461E+03</rscale>
<asrwt>0</asrwt>
<pdfrwt beam="1">  1        1 0.30518317E+00 0.46538461E+03</pdfrwt>
<pdfrwt beam="2">  1       -2 0.35583691E-01 0.46538461E+03</pdfrwt>
<totfact> 0.21676728E+01</totfact>
</mgrwt>
</event>
<event>
12    3  0.2269558E-007  0.6255307E+03  0.7818608E-02  0.9853809E-01
          1   -1    0    0  501    0  0.00000000000E+00  0.00000000000E+00  0.22360471089E+04  0.22360471089E+04  0.00000000000E+00 0. -1.
         -2   -1    0    0    0  501 -0.00000000000E+00 -0.00000000000E+00 -0.19117793436E+03  0.19117793436E+03  0.00000000000E+00 0.  1.
        -24    2    1    2    0    0  0.42554666988E+03 -0.28375390583E+03  0.85033227978E+03  0.99604841869E+03  0.86262500717E+02 0.  0.
    5000000    2    1    2    0    0 -0.42554666988E+03  0.28375390583E+03  0.11945368948E+04  0.14311766246E+04  0.59978487014E+03 0.  0.
        -24    2    4    4    0    0 -0.15231920732E+03 -0.14288356379E+03  0.62865997730E+03  0.66752239251E+03  0.82194426389E+02 0.  0.
         24    2    4    4    0    0 -0.27322746256E+03  0.42663746962E+03  0.56587691747E+03  0.76365423207E+03  0.79235873461E+02 0.  0.
         13    1    5    5    0    0 -0.80754695819E+02 -0.12733454752E+03  0.44192964674E+03  0.46694455834E+03  0.00000000000E+00 0. -1.
        -14    1    5    5    0    0 -0.71564511500E+02 -0.15549016261E+02  0.18673033056E+03  0.20057783418E+03  0.00000000000E+00 0.  1.
         13    1    3    3    0    0  0.37562238442E+03 -0.21573074692E+03  0.73501140096E+03  0.85315513852E+03  0.00000000000E+00 0. -1.
        -14    1    3    3    0    0  0.49924285464E+02 -0.68023158917E+02  0.11532087882E+03  0.14289328018E+03  0.00000000000E+00 0.  1.
          2    1    6    6  502    0 -0.11883475460E+03  0.13758663921E+03  0.16158055574E+03  0.24322840744E+03  0.00000000000E+00 0. -1.
         -1    1    6    6    0  502 -0.15439270796E+03  0.28905083041E+03  0.40429636173E+03  0.52042582463E+03  0.00000000000E+00 0.  1.
<mgrwt>
<rscale>  0 0.62553066E+03</rscale>
<asrwt>0</asrwt>
<pdfrwt beam="1">  1        1 0.34400723E+00 0.62553066E+03</pdfrwt>
<pdfrwt beam="2">  1       -2 0.29411991E-01 0.62553066E+03</pdfrwt>
<totfact> 0.20412047E+01</totfact>
</mgrwt>
</event>
<event>
12    3  0.2269558E-007  0.9778324E+03  0.7818608E-02  0.9333198E-01
          1   -1    0    0  501    0  0.00000000000E+00  0.00000000000E+00  0.26786339865E+04  0.26786339865E+04  0.00000000000E+00 0. -1.
         -2   -1    0    0    0  501 -0.00000000000E+00 -0.00000000000E+00 -0.41906481999E+03  0.41906481999E+03  0.00000000000E+00 0.  1.
        -24    2    1    2    0    0 -0.25919147135E+03 -0.89110024751E+03  0.14656263240E+04  0.17370156807E+04  0.89011703656E+02 0.  0.
    5000000    2    1    2    0    0  0.25919147135E+03  0.89110024751E+03  0.79394284246E+03  0.13606831258E+04  0.59989454216E+03 0.  0.
        -24    2    4    4    0    0  0.74107622144E+02 -0.26035393087E+02  0.25354170276E+03  0.27745848942E+03  0.80808644089E+02 0.  0.
         24    2    4    4    0    0  0.18508384921E+03  0.91713564060E+03  0.54040113970E+03  0.10832246363E+04  0.77125913290E+02 0.  0.
         11    1    3    3    0    0 -0.23807420828E+03 -0.83991411823E+03  0.14110026973E+04  0.16592358682E+04  0.00000000000E+00 0. -1.
        -12    1    3    3    0    0 -0.21117263071E+02 -0.51186129283E+02  0.54623626723E+02  0.77779812464E+02  0.00000000000E+00 0.  1.
         13    1    5    5    0    0  0.26555592909E+02  0.10681474697E+02  0.18109153557E+03  0.18333967839E+03  0.00000000000E+00 0. -1.
        -14    1    5    5    0    0  0.47552029235E+02 -0.36716867784E+02  0.72450167192E+02  0.94118811034E+02  0.00000000000E+00 0.  1.
          2    1    6    6  502    0  0.12013445582E+03  0.74468945343E+03  0.42514993196E+03  0.86587939932E+03  0.00000000000E+00 0. -1.
         -1    1    6    6    0  502  0.64949393392E+02  0.17244618717E+03  0.11525120775E+03  0.21734523703E+03  0.00000000000E+00 0.  1.
<mgrwt>
<rscale>  0 0.97783236E+03</rscale>
<asrwt>0</asrwt>
<pdfrwt beam="1">  1        1 0.41209752E+00 0.97783236E+03</pdfrwt>
<pdfrwt beam="2">  1       -2 0.64471513E-01 0.97783236E+03</pdfrwt>
<totfact> 0.20262422E+00</totfact>
</mgrwt>
</event>
<event>
12    3  0.2269558E-007  0.5138890E+03  0.7818608E-02  0.1010216E+00
         -2   -1    0    0    0  501 -0.00000000000E+00  0.00000000000E+00  0.30962358380E+03  0.30962358380E+03  0.00000000000E+00 0.  1.
          1   -1    0    0  501    0  0.00000000000E+00 -0.00000000000E+00 -0.94081847623E+03  0.94081847623E+03  0.00000000000E+00 0. -1.
        -24    2    1    2    0    0 -0.16039419838E+03 -0.32129288141E+03 -0.31102614881E+03  0.48133038028E+03  0.77370893852E+02 0.  0.
    5000000    2    1    2    0    0  0.16039419838E+03  0.32129288141E+03 -0.32016874362E+03  0.76911167976E+03  0.60005777808E+03 0.  0.
        -24    2    4    4    0    0 -0.19471547931E+03  0.46297711080E+02 -0.20622870437E+03  0.29866961939E+03  0.81336751265E+02 0.  0.
         24    2    4    4    0    0  0.35510967768E+03  0.27499517033E+03 -0.11394003925E+03  0.47044206037E+03  0.81290668164E+02 0.  0.
         13    1    5    5    0    0 -0.20051846091E+03  0.45992982432E+02 -0.18504446908E+03  0.27670284266E+03  0.00000000000E+00 0. -1.
        -14    1    5    5    0    0  0.58029816020E+01  0.30472864749E+00 -0.21184235292E+02  0.21966776731E+02  0.00000000000E+00 0.  1.
         13    1    3    3    0    0 -0.16020513923E+03 -0.26150152558E+03 -0.27209839486E+03  0.40998325697E+03  0.00000000000E+00 0. -1.
        -14    1    3    3    0    0 -0.18905914648E+00 -0.59791355834E+02 -0.38927753955E+02  0.71347123305E+02  0.00000000000E+00 0.  1.
          2    1    6    6  502    0  0.33122676630E+03  0.26359144536E+03 -0.86001307021E+02  0.43195815259E+03  0.00000000000E+00 0. -1.
         -1    1    6    6    0  502  0.23882911384E+02  0.11403724976E+02 -0.27938732231E+02  0.38483907782E+02  0.00000000000E+00 0.  1.
<mgrwt>
<rscale>  0 0.51388898E+03</rscale>
<asrwt>0</asrwt>
<pdfrwt beam="1">  1        1 0.14474130E+00 0.51388898E+03</pdfrwt>
<pdfrwt beam="2">  1       -2 0.47634398E-01 0.51388898E+03</pdfrwt>
<totfact> 0.64400341E+01</totfact>
</mgrwt>
</event>
<event>
12    3  0.2269558E-007  0.4685103E+03  0.7818608E-02  0.1022342E+00
         -2   -1    0    0    0  501 -0.00000000000E+00  0.00000000000E+00  0.79293030629E+03  0.79293030629E+03  0.00000000000E+00 0.  1.
          1   -1    0    0  501    0  0.00000000000E+00 -0.00000000000E+00 -0.48931435227E+03  0.48931435227E+03  0.00000000000E+00 0. -1.
        -24    2    1    2    0    0  0.35042581529E+03 -0.23540123944E+03 -0.10523718041E+03  0.44220621592E+03  0.79116861058E+02 0.  0.
    5000000    2    1    2    0    0 -0.35042581529E+03  0.23540123944E+03  0.40885313443E+03  0.84003844264E+03  0.60024303747E+03 0.  0.
        -24    2    4    4    0    0 -0.83803183478E+02 -0.42941768273E+02 -0.12641988948E+03  0.17588470022E+03  0.78015833603E+02 0.  0.
         24    2    4    4    0    0 -0.26662263182E+03  0.27834300771E+03  0.53527302391E+03  0.66415374242E+03  0.77592046646E+02 0.  0.
         11    1    5    5    0    0 -0.30405363034E+02  0.22440890876E+02 -0.42014912708E+02  0.56509579492E+02  0.00000000000E+00 0. -1.
        -12    1    5    5    0    0 -0.53397820444E+02 -0.65382659148E+02 -0.84404976773E+02  0.11937512073E+03  0.00000000000E+00 0.  1.
         11    1    3    3    0    0  0.29332793306E+03 -0.20197836526E+03 -0.11728696609E+03  0.37495702255E+03  0.00000000000E+00 0. -1.
        -12    1    3    3    0    0  0.57097882232E+02 -0.33422874179E+02  0.12049785676E+02  0.67249193368E+02  0.00000000000E+00 0.  1.
          2    1    6    6  502    0 -0.13257609203E+03  0.19106430741E+03  0.29808906921E+03  0.37807285399E+03  0.00000000000E+00 0. -1.
         -1    1    6    6    0  502 -0.13404653978E+03  0.87278700303E+02  0.23718395471E+03  0.28608088843E+03  0.00000000000E+00 0.  1.
<mgrwt>
<rscale>  0 0.46851031E+03</rscale>
<asrwt>0</asrwt>
<pdfrwt beam="1">  1        1 0.75279131E-01 0.46851031E+03</pdfrwt>
<pdfrwt beam="2">  1       -2 0.12198928E+00 0.46851031E+03</pdfrwt>
<totfact> 0.21356111E+01</totfact>
</mgrwt>
</event>
<event>
12    3  0.2269558E-007  0.8754832E+03  0.7818608E-02  0.9456758E-01
          1   -1    0    0  501    0  0.00000000000E+00  0.00000000000E+00  0.16765259957E+04  0.16765259957E+04  0.00000000000E+00 0. -1.
         -2   -1    0    0    0  501 -0.00000000000E+00 -0.00000000000E+00 -0.49849854418E+03  0.49849854418E+03  0.00000000000E+00 0.  1.
        -24    2    1    2    0    0  0.70932978636E+03  0.31869815019E+03  0.24215081898E+03  0.81826333406E+03  0.78743939407E+02 0.  0.
    5000000    2    1    2    0    0 -0.70932978636E+03 -0.31869815019E+03  0.93587663254E+03  0.13567612058E+04  0.60018217361E+03 0.  0.
        -24    2    4    4    0    0 -0.15606885353E+03  0.16240007292E+03  0.29742791709E+03  0.38168234732E+03  0.80540534293E+02 0.  0.
         24    2    4    4    0    0 -0.55326093282E+03 -0.48109822311E+03  0.63844871545E+03  0.97507885849E+03  0.74892308964E+02 0.  0.
         11    1    5    5    0    0 -0.91395147493E+02  0.39402249563E+02  0.10976168287E+03  0.14816624879E+03  0.00000000000E+00 0. -1.
        -12    1    5    5    0    0 -0.64673706039E+02  0.12299782336E+03  0.18766623422E+03  0.23351609853E+03  0.00000000000E+00 0.  1.
         13    1    3    3    0    0  0.36700548729E+03  0.18886059762E+03  0.16246462906E+03  0.44357198822E+03  0.00000000000E+00 0. -1.
        -14    1    3    3    0    0  0.34232429907E+03  0.12983755257E+03  0.79686189917E+02  0.37469134584E+03  0.00000000000E+00 0.  1.
          4    1    6    6  502    0 -0.45779046801E+02 -0.31070253643E+02  0.75591694507E+02  0.93675963117E+02  0.00000000000E+00 0. -1.
         -3    1    6    6    0  502 -0.50748188602E+03 -0.45002796947E+03  0.56285702094E+03  0.88140289537E+03  0.00000000000E+00 0.  1.
<mgrwt>
<rscale>  0 0.87548318E+03</rscale>
<asrwt>0</asrwt>
<pdfrwt beam="1">  1        1 0.25792707E+00 0.87548318E+03</pdfrwt>
<pdfrwt beam="2">  1       -2 0.76692085E-01 0.87548318E+03</pdfrwt>
<totfact> 0.67184946E+00</totfact>
</mgrwt>
</event>
<event>
12    3  0.2507355E-007  0.1171146E+04  0.7818608E-02  0.9138494E-01
         -2   -1    0    0    0  501 -0.00000000000E+00  0.00000000000E+00  0.90542503828E+03  0.90542503828E+03  0.00000000000E+00 0.  1.
          1   -1    0    0  501    0  0.00000000000E+00 -0.00000000000E+00 -0.19831881247E+04  0.19831881247E+04  0.00000000000E+00 0. -1.
        -24    2    1    2    0    0 -0.10931382268E+04  0.20393476610E+03 -0.11769141314E+04  0.16211456057E+04  0.80284683454E+02 0.  0.
    5000000    2    1    2    0    0  0.10931382268E+04 -0.20393476610E+03  0.99151045019E+02  0.12674675573E+04  0.60008541673E+03 0.  0.
        -24    2    4    4    0    0  0.12265339506E+02 -0.14223687259E+03  0.77319802997E+02  0.18067792485E+03  0.79274170542E+02 0.  0.
         24    2    4    4    0    0  0.10808728873E+04 -0.61697893507E+02  0.21831242022E+02  0.10867896324E+04  0.92424420675E+02 0.  0.
         11    1    5    5    0    0  0.98928454980E+01 -0.13996872657E+03  0.43796086996E+02  0.14699391160E+03  0.00000000000E+00 0. -1.
        -12    1    5    5    0    0  0.23724940085E+01 -0.22681460151E+01  0.33523716001E+02  0.33684013251E+02  0.00000000000E+00 0.  1.
         11    1    3    3    0    0 -0.49119458337E+03  0.74131644163E+02 -0.47340260826E+03  0.68620525275E+03  0.00000000000E+00 0. -1.
        -12    1    3    3    0    0 -0.60194364341E+03  0.12980312193E+03 -0.70351152317E+03  0.93494035294E+03  0.00000000000E+00 0.  1.
          2    1    6    6  502    0  0.82263329589E+03 -0.84232437308E+02  0.38136062151E+01  0.82694327895E+03  0.00000000000E+00 0. -1.
         -1    1    6    6    0  502  0.25823959138E+03  0.22534543801E+02  0.18017635807E+02  0.25984635349E+03  0.00000000000E+00 0.  1.
<mgrwt>
<rscale>  0 0.11711463E+04</rscale>
<asrwt>0</asrwt>
<pdfrwt beam="1">  1        1 0.30510586E+00 0.11711463E+04</pdfrwt>
<pdfrwt beam="2">  1       -2 0.13929616E+00 0.11711463E+04</pdfrwt>
<totfact> 0.95871548E-01</totfact>
</mgrwt>
</event>
<event>
12    3  0.2269558E-007  0.4395177E+03  0.7818608E-02  0.1030895E+00
          1   -1    0    0  501    0  0.00000000000E+00  0.00000000000E+00  0.29220094843E+03  0.29220094843E+03  0.00000000000E+00 0. -1.
         -2   -1    0    0    0  501 -0.00000000000E+00 -0.00000000000E+00 -0.11531738206E+04  0.11531738206E+04  0.00000000000E+00 0.  1.
        -24    2    1    2    0    0  0.42011816054E+03 -0.53197047398E+01 -0.30154264514E+03  0.52360926036E+03  0.81921441803E+02 0.  0.
    5000000    2    1    2    0    0 -0.42011816054E+03  0.53197047398E+01 -0.55943022699E+03  0.92176550862E+03  0.60013490645E+03 0.  0.
        -24    2    4    4    0    0 -0.21234558016E+03  0.80622572200E+02  0.69223304599E+02  0.25062534155E+03  0.80190718714E+02 0.  0.
         24    2    4    4    0    0 -0.20777258038E+03 -0.75302867460E+02 -0.62865353159E+03  0.67114016707E+03  0.79899274529E+02 0.  0.
         11    1    3    3    0    0  0.34410681306E+03  0.23346883207E+02 -0.22366216183E+03  0.41107096515E+03  0.00000000000E+00 0. -1.
        -12    1    3    3    0    0  0.76011347473E+02 -0.28666587947E+02 -0.77880483311E+02  0.11253829522E+03  0.00000000000E+00 0.  1.
         11    1    5    5    0    0 -0.37692737103E+02  0.33802396224E+02 -0.12570005203E+02  0.52166554914E+02  0.00000000000E+00 0. -1.
        -12    1    5    5    0    0 -0.17465284306E+03  0.46820175976E+02  0.81793309802E+02  0.19845878664E+03  0.00000000000E+00 0.  1.
          4    1    6    6  502    0 -0.31211662721E+02 -0.16827269614E+02 -0.21080825538E+03  0.21376960829E+03  0.00000000000E+00 0. -1.
         -3    1    6    6    0  502 -0.17656091766E+03 -0.58475597846E+02 -0.41784527621E+03  0.45737055878E+03  0.00000000000E+00 0.  1.
<mgrwt>
<rscale>  0 0.43951773E+03</rscale>
<asrwt>0</asrwt>
<pdfrwt beam="1">  1        1 0.44953992E-01 0.43951773E+03</pdfrwt>
<pdfrwt beam="2">  1       -2 0.17741136E+00 0.43951773E+03</pdfrwt>
<totfact> 0.15797698E+01</totfact>
</mgrwt>
</event>
<event>
12    3  0.2269558E-007  0.6489386E+03  0.7818608E-02  0.9808773E-01
          1   -1    0    0  501    0  0.00000000000E+00  0.00000000000E+00  0.21161546589E+04  0.21161546589E+04  0.00000000000E+00 0. -1.
         -2   -1    0    0    0  501 -0.00000000000E+00 -0.00000000000E+00 -0.44871044319E+03  0.44871044319E+03  0.00000000000E+00 0.  1.
        -24    2    1    2    0    0 -0.60997304533E+03  0.15593831340E+03  0.15655032650E+04  0.16891486339E+04  0.77709466299E+02 0.  0.
    5000000    2    1    2    0    0  0.60997304533E+03 -0.15593831340E+03  0.10194095069E+03  0.87571646815E+03  0.60008624509E+03 0.  0.
        -24    2    4    4    0    0  0.42628655131E+03 -0.17874349871E+03 -0.20237333684E+03  0.51071834913E+03  0.78795954970E+02 0.  0.
         24    2    4    4    0    0  0.18368649402E+03  0.22805185312E+02  0.30431428752E+03  0.36499811902E+03  0.79722247420E+02 0.  0.
         13    1    5    5    0    0  0.10151291392E+03 -0.78633497869E+02 -0.67646340689E+02  0.14513485484E+03  0.00000000000E+00 0. -1.
        -14    1    5    5    0    0  0.32477363739E+03 -0.10011000085E+03 -0.13472699615E+03  0.36558349429E+03  0.00000000000E+00 0.  1.
         13    1    3    3    0    0 -0.26039747005E+03  0.27097386204E+02  0.64788890534E+03  0.69878547811E+03  0.00000000000E+00 0. -1.
        -14    1    3    3    0    0 -0.34957557528E+03  0.12884092720E+03  0.91761435965E+03  0.99036315581E+03  0.00000000000E+00 0.  1.
          4    1    6    6  502    0  0.14967764124E+03 -0.72677330189E+01  0.18989426717E+03  0.24190090726E+03  0.00000000000E+00 0. -1.
         -3    1    6    6    0  502  0.34008852780E+02  0.30072918331E+02  0.11442002036E+03  0.12309721176E+03  0.00000000000E+00 0.  1.
<mgrwt>
<rscale>  0 0.64893862E+03</rscale>
<asrwt>0</asrwt>
<pdfrwt beam="1">  1        1 0.32556225E+00 0.64893862E+03</pdfrwt>
<pdfrwt beam="2">  1       -2 0.69032377E-01 0.64893862E+03</pdfrwt>
<totfact> 0.44535830E+00</totfact>
</mgrwt>
</event>
<event>
12    3  0.2269558E-007  0.1112337E+04  0.7818608E-02  0.9193250E-01
          1   -1    0    0  501    0  0.00000000000E+00  0.00000000000E+00  0.28878169501E+04  0.28878169501E+04  0.00000000000E+00 0. -1.
         -2   -1    0    0    0  501 -0.00000000000E+00 -0.00000000000E+00 -0.73871037616E+03  0.73871037616E+03  0.00000000000E+00 0.  1.
        -24    2    1    2    0    0 -0.10314993047E+04 -0.14928805571E+03  0.21864505113E+04  0.24233176386E+04  0.74998667087E+02 0.  0.
    5000000    2    1    2    0    0  0.10314993047E+04  0.14928805571E+03 -0.37343937360E+02  0.12032096877E+04  0.60003436879E+03 0.  0.
        -24    2    4    4    0    0  0.48978939630E+02 -0.12888623007E+03  0.67596727971E+02  0.17356108043E+03  0.80892114431E+02 0.  0.
         24    2    4    4    0    0  0.98252036504E+03  0.27817428578E+03 -0.10494066533E+03  0.10296486072E+04  0.80227864011E+02 0.  0.
         11    1    3    3    0    0 -0.54102016004E+03 -0.45858193116E+02  0.11816045487E+04  0.13003826732E+04  0.00000000000E+00 0. -1.
        -12    1    3    3    0    0 -0.49047914463E+03 -0.10342986259E+03  0.10048459627E+04  0.11229349654E+04  0.00000000000E+00 0.  1.
         13    1    5    5    0    0 -0.12148300184E+02 -0.80182008719E+02  0.41938707391E+02  0.91299457267E+02  0.00000000000E+00 0. -1.
        -14    1    5    5    0    0  0.61127239814E+02 -0.48704221354E+02  0.25658020580E+02  0.82261623160E+02  0.00000000000E+00 0.  1.
          4    1    6    6  502    0  0.44469505285E+03  0.13132056249E+03 -0.87489085740E+02  0.47186133587E+03  0.00000000000E+00 0. -1.
         -3    1    6    6    0  502  0.53782531219E+03  0.14685372329E+03 -0.17451579591E+02  0.55778727137E+03  0.00000000000E+00 0.  1.
<mgrwt>
<rscale>  0 0.11123374E+04</rscale>
<asrwt>0</asrwt>
<pdfrwt beam="1">  1        1 0.44427953E+00 0.11123374E+04</pdfrwt>
<pdfrwt beam="2">  1       -2 0.11364775E+00 0.11123374E+04</pdfrwt>
<totfact> 0.38464225E-01</totfact>
</mgrwt>
</event>
<event>
12    3  0.2269558E-007  0.1082666E+04  0.7818608E-02  0.9222254E-01
         -2   -1    0    0    0  501 -0.00000000000E+00  0.00000000000E+00  0.61700072885E+03  0.61700072885E+03  0.00000000000E+00 0.  1.
          1   -1    0    0  501    0  0.00000000000E+00 -0.00000000000E+00 -0.20888758320E+04  0.20888758320E+04  0.00000000000E+00 0. -1.
        -24    2    1    2    0    0  0.93172238703E+03 -0.43359681441E+03 -0.40449468097E+03  0.11072794830E+04  0.79618482048E+02 0.  0.
    5000000    2    1    2    0    0 -0.93172238703E+03  0.43359681441E+03 -0.10673804222E+04  0.15985970778E+04  0.60008236734E+03 0.  0.
        -24    2    4    4    0    0 -0.91719604218E+03  0.26566598034E+03 -0.10320241902E+04  0.14082579116E+04  0.79305885813E+02 0.  0.
         24    2    4    4    0    0 -0.14526344850E+02  0.16793083407E+03 -0.35356232033E+02  0.19033916625E+03  0.81037987024E+02 0.  0.
         11    1    3    3    0    0  0.11871304908E+03 -0.74606922456E+02 -0.78136312897E+02  0.16051250510E+03  0.00000000000E+00 0. -1.
        -12    1    3    3    0    0  0.81300933796E+03 -0.35898989195E+03 -0.32635836808E+03  0.94676697795E+03  0.00000000000E+00 0.  1.
         11    1    5    5    0    0 -0.27745830504E+03  0.48493262670E+02 -0.33226869825E+03  0.43558833248E+03  0.00000000000E+00 0. -1.
        -12    1    5    5    0    0 -0.63973773714E+03  0.21717271767E+03 -0.69975549193E+03  0.97266957910E+03  0.00000000000E+00 0.  1.
          4    1    6    6  502    0  0.23888531542E+02  0.66592015262E+02  0.12542880625E+02  0.71850416076E+02  0.00000000000E+00 0. -1.
         -3    1    6    6    0  502 -0.38414876392E+02  0.10133881881E+03 -0.47899112658E+02  0.11848875018E+03  0.00000000000E+00 0.  1.
<mgrwt>
<rscale>  0 0.10826658E+04</rscale>
<asrwt>0</asrwt>
<pdfrwt beam="1">  1        1 0.32136551E+00 0.10826658E+04</pdfrwt>
<pdfrwt beam="2">  1       -2 0.94923189E-01 0.10826658E+04</pdfrwt>
<totfact> 0.21192327E+00</totfact>
</mgrwt>
</event>
<event>
12    3  0.2269558E-007  0.8775439E+03  0.7818608E-02  0.9454096E-01
         -2   -1    0    0    0  501 -0.00000000000E+00  0.00000000000E+00  0.50017829064E+03  0.50017829064E+03  0.00000000000E+00 0.  1.
          1   -1    0    0  501    0  0.00000000000E+00 -0.00000000000E+00 -0.15956476968E+04  0.15956476968E+04  0.00000000000E+00 0. -1.
        -24    2    1    2    0    0  0.18945112787E+03 -0.76661903949E+03 -0.52920290060E+03  0.95376733530E+03  0.77588261504E+02 0.  0.
    5000000    2    1    2    0    0 -0.18945112787E+03  0.76661903949E+03 -0.56626650556E+03  0.11420586521E+04  0.60003643893E+03 0.  0.
        -24    2    4    4    0    0 -0.21333143721E+03  0.23604099459E+02 -0.22134203060E+03  0.31855764183E+03  0.80120041495E+02 0.  0.
         24    2    4    4    0    0  0.23880309333E+02  0.74301494003E+03 -0.34492447496E+03  0.82350101030E+03  0.80867485795E+02 0.  0.
         13    1    5    5    0    0 -0.14121048198E+03 -0.58346556138E+01 -0.18443502507E+03  0.23235903662E+03  0.00000000000E+00 0. -1.
        -14    1    5    5    0    0 -0.72120955232E+02  0.29438755073E+02 -0.36907005526E+02  0.86198605213E+02  0.00000000000E+00 0.  1.
         13    1    3    3    0    0  0.55197531732E+02 -0.20438283382E+03 -0.10201577797E+03  0.23500282812E+03  0.00000000000E+00 0. -1.
        -14    1    3    3    0    0  0.13425359614E+03 -0.56223620567E+03 -0.42718712263E+03  0.71876450718E+03  0.00000000000E+00 0.  1.
          2    1    6    6  502    0 -0.17212463996E+02  0.43825924618E+03 -0.22973009851E+03  0.49511953500E+03  0.00000000000E+00 0. -1.
         -1    1    6    6    0  502  0.41092773329E+02  0.30475569385E+03 -0.11519437645E+03  0.32838147530E+03  0.00000000000E+00 0.  1.
<mgrwt>
<rscale>  0 0.87754386E+03</rscale>
<asrwt>0</asrwt>
<pdfrwt beam="1">  1        1 0.24548426E+00 0.87754386E+03</pdfrwt>
<pdfrwt beam="2">  1       -2 0.76950506E-01 0.87754386E+03</pdfrwt>
<totfact> 0.75648757E+00</totfact>
</mgrwt>
</event>
<event>
12    3  0.2269558E-007  0.9508027E+03  0.7818608E-02  0.9364213E-01
         -2   -1    0    0    0  501 -0.00000000000E+00  0.00000000000E+00  0.86477270196E+03  0.86477270196E+03  0.00000000000E+00 0.  1.
          1   -1    0    0  501    0  0.00000000000E+00 -0.00000000000E+00 -0.11635717092E+04  0.11635717092E+04  0.00000000000E+00 0. -1.
        -24    2    1    2    0    0 -0.59168773756E+03  0.62590654594E+03 -0.43819701623E+03  0.96953702059E+03  0.78307255294E+02 0.  0.
    5000000    2    1    2    0    0  0.59168773756E+03 -0.62590654594E+03  0.13939800898E+03  0.10588073906E+04  0.59982322599E+03 0.  0.
        -24    2    4    4    0    0  0.57452639714E+03 -0.20209273594E+03  0.34329118611E+02  0.61498530479E+03  0.78143341364E+02 0.  0.
         24    2    4    4    0    0  0.17161340422E+02 -0.42381381000E+03  0.10506889037E+03  0.44382208580E+03  0.77626767068E+02 0.  0.
         11    1    3    3    0    0 -0.42851202832E+03  0.44504729385E+03 -0.27446472124E+03  0.67603293957E+03  0.00000000000E+00 0. -1.
        -12    1    3    3    0    0 -0.16317570924E+03  0.18085925209E+03 -0.16373229499E+03  0.29350408102E+03  0.00000000000E+00 0.  1.
         13    1    5    5    0    0  0.12300049979E+02  0.68577425778E+01 -0.12094145623E+01  0.14134445385E+02  0.00000000000E+00 0. -1.
        -14    1    5    5    0    0  0.56222634716E+03 -0.20895047851E+03  0.35538533173E+02  0.60085085941E+03  0.00000000000E+00 0.  1.
          2    1    6    6  502    0 -0.76683092611E+01 -0.29711741823E+03  0.42116913879E+02  0.30018560528E+03  0.00000000000E+00 0. -1.
         -1    1    6    6    0  502  0.24829649684E+02 -0.12669639177E+03  0.62951976494E+02  0.14363648052E+03  0.00000000000E+00 0.  1.
<mgrwt>
<rscale>  0 0.95080269E+03</rscale>
<asrwt>0</asrwt>
<pdfrwt beam="1">  1        1 0.17901103E+00 0.95080269E+03</pdfrwt>
<pdfrwt beam="2">  1       -2 0.13304196E+00 0.95080269E+03</pdfrwt>
<totfact> 0.40906486E+00</totfact>
</mgrwt>
</event>
<event>
12    3  0.2269558E-007  0.9305256E+03  0.7818608E-02  0.9388207E-01
         -4   -1    0    0    0  501 -0.00000000000E+00  0.00000000000E+00  0.73951774991E+03  0.73951774991E+03  0.00000000000E+00 0.  1.
          3   -1    0    0  501    0  0.00000000000E+00 -0.00000000000E+00 -0.12788699253E+04  0.12788699253E+04  0.00000000000E+00 0. -1.
        -24    2    1    2    0    0  0.71323207045E+03 -0.50952965942E+03 -0.19180041883E+03  0.90073474048E+03  0.78836615126E+02 0.  0.
    5000000    2    1    2    0    0 -0.71323207045E+03  0.50952965942E+03 -0.34755175657E+03  0.11176529347E+04  0.60002949835E+03 0.  0.
        -24    2    4    4    0    0 -0.15060188255E+03  0.36083400852E+03 -0.34279888817E+03  0.52611448311E+03  0.80020390370E+02 0.  0.
         24    2    4    4    0    0 -0.56263018791E+03  0.14869565090E+03 -0.47528684002E+01  0.59153845163E+03  0.10598124863E+03 0.  0.
         11    1    5    5    0    0 -0.62916693644E+02  0.20527389544E+03 -0.23132218190E+03  0.31560392001E+03  0.00000000000E+00 0. -1.
        -12    1    5    5    0    0 -0.87685188902E+02  0.15556011308E+03 -0.11147670627E+03  0.21051056310E+03  0.00000000000E+00 0.  1.
         13    1    3    3    0    0  0.50839135028E+03 -0.33087783056E+03 -0.10648646758E+03  0.61585815865E+03  0.00000000000E+00 0. -1.
        -14    1    3    3    0    0  0.20484072018E+03 -0.17865182886E+03 -0.85313951250E+02  0.28487658183E+03  0.00000000000E+00 0.  1.
          2    1    6    6  502    0 -0.47220934183E+03  0.87589178600E+02  0.15631779299E+02  0.48051834434E+03  0.00000000000E+00 0. -1.
         -1    1    6    6    0  502 -0.90420846075E+02  0.61106472301E+02 -0.20384647699E+02  0.11102010729E+03  0.00000000000E+00 0.  1.
<mgrwt>
<rscale>  0 0.93052559E+03</rscale>
<asrwt>0</asrwt>
<pdfrwt beam="1">  1        3 0.19674922E+00 0.93052559E+03</pdfrwt>
<pdfrwt beam="2">  1       -4 0.11377196E+00 0.93052559E+03</pdfrwt>
<totfact> 0.20773498E-01</totfact>
</mgrwt>
</event>
<event>
12    3  0.2269558E-007  0.7471275E+03  0.7818608E-02  0.9639868E-01
          1   -1    0    0  501    0  0.00000000000E+00  0.00000000000E+00  0.14832643419E+04  0.14832643419E+04  0.00000000000E+00 0. -1.
         -2   -1    0    0    0  501 -0.00000000000E+00 -0.00000000000E+00 -0.43501841539E+03  0.43501841539E+03  0.00000000000E+00 0.  1.
        -24    2    1    2    0    0  0.12469848382E+03 -0.66173168486E+03  0.28154687607E+03  0.73487174345E+03  0.85611338502E+02 0.  0.
    5000000    2    1    2    0    0 -0.12469848382E+03  0.66173168486E+03  0.76669905040E+03  0.11834110138E+04  0.59932934109E+03 0.  0.
        -24    2    4    4    0    0  0.17063458170E+03  0.16746046268E+03  0.46453543954E+03  0.52815576309E+03  0.77434930502E+02 0.  0.
         24    2    4    4    0    0 -0.29533306552E+03  0.49427122218E+03  0.30216361085E+03  0.65525525071E+03  0.80814201693E+02 0.  0.
         11    1    3    3    0    0  0.90841818296E+02 -0.29089904761E+03  0.10114874780E+03  0.32110054661E+03  0.00000000000E+00 0. -1.
        -12    1    3    3    0    0  0.33856665520E+02 -0.37083263725E+03  0.18039812827E+03  0.41377119684E+03  0.00000000000E+00 0.  1.
         11    1    5    5    0    0  0.57639987196E+02  0.79035520181E+02  0.11920317483E+03  0.15420239448E+03  0.00000000000E+00 0. -1.
        -12    1    5    5    0    0  0.11299459451E+03  0.88424942502E+02  0.34533226471E+03  0.37395336861E+03  0.00000000000E+00 0.  1.
          4    1    6    6  502    0 -0.27704170383E+03  0.46681954243E+03  0.30409590046E+03  0.62221130457E+03  0.00000000000E+00 0. -1.
         -1    1    6    6    0  502 -0.18291361690E+02  0.27451679745E+02 -0.19322896069E+01  0.33043946139E+02  0.00000000000E+00 0.  1.
<mgrwt>
<rscale>  0 0.74712754E+03</rscale>
<asrwt>0</asrwt>
<pdfrwt beam="1">  1        1 0.22819451E+00 0.74712754E+03</pdfrwt>
<pdfrwt beam="2">  1       -2 0.66925911E-01 0.74712754E+03</pdfrwt>
<totfact> 0.12471463E+01</totfact>
</mgrwt>
</event>
<event>
12    3  0.2269558E-007  0.4746720E+03  0.7818608E-02  0.1020610E+00
         -2   -1    0    0    0  501 -0.00000000000E+00  0.00000000000E+00  0.39815259910E+03  0.39815259910E+03  0.00000000000E+00 0.  1.
          1   -1    0    0  501    0  0.00000000000E+00 -0.00000000000E+00 -0.69047979900E+03  0.69047979900E+03  0.00000000000E+00 0. -1.
        -24    2    1    2    0    0  0.24073931140E+03 -0.15717832778E+03 -0.29925609924E+03  0.42317903166E+03  0.82860347158E+02 0.  0.
    5000000    2    1    2    0    0 -0.24073931140E+03  0.15717832778E+03  0.69288993314E+01  0.66545336643E+03  0.60009976710E+03 0.  0.
        -24    2    4    4    0    0 -0.72108817401E+02 -0.21447337277E+03 -0.48310827099E+02  0.24496398142E+03  0.80466806845E+02 0.  0.
         24    2    4    4    0    0 -0.16863049400E+03  0.37165170055E+03  0.55239726430E+02  0.42048938501E+03  0.84844949778E+02 0.  0.
         11    1    5    5    0    0 -0.40117153166E+02 -0.19928862528E+03 -0.50562190624E+02  0.20948001639E+03  0.00000000000E+00 0. -1.
        -12    1    5    5    0    0 -0.31991664235E+02 -0.15184747490E+02  0.22513635251E+01  0.35483965034E+02  0.00000000000E+00 0.  1.
         13    1    3    3    0    0  0.15655144861E+03 -0.13799584978E+03 -0.24209827638E+03  0.31962913829E+03  0.00000000000E+00 0. -1.
        -14    1    3    3    0    0  0.84187862795E+02 -0.19182478001E+02 -0.57157822859E+02  0.10354989338E+03  0.00000000000E+00 0.  1.
          4    1    6    6  502    0 -0.78797142261E+02  0.26342670530E+03  0.21183417593E+02  0.27577410298E+03  0.00000000000E+00 0. -1.
         -3    1    6    6    0  502 -0.89833351742E+02  0.10822499525E+03  0.34056308838E+02  0.14471528203E+03  0.00000000000E+00 0.  1.
<mgrwt>
<rscale>  0 0.47467196E+03</rscale>
<asrwt>0</asrwt>
<pdfrwt beam="1">  1        1 0.10622766E+00 0.47467196E+03</pdfrwt>
<pdfrwt beam="2">  1       -2 0.61254247E-01 0.47467196E+03</pdfrwt>
<totfact> 0.63018060E+01</totfact>
</mgrwt>
</event>
<event>
12    3  0.2269558E-007  0.7105132E+03  0.7818608E-02  0.9699420E-01
         -2   -1    0    0    0  501 -0.00000000000E+00  0.00000000000E+00  0.59938974685E+03  0.59938974685E+03  0.00000000000E+00 0.  1.
          1   -1    0    0  501    0  0.00000000000E+00 -0.00000000000E+00 -0.95972764655E+03  0.95972764655E+03  0.00000000000E+00 0. -1.
        -24    2    1    2    0    0 -0.59212918773E+03  0.18545250444E+03 -0.50962270941E+01  0.62565410388E+03  0.80046735145E+02 0.  0.
    5000000    2    1    2    0    0  0.59212918773E+03 -0.18545250444E+03 -0.35524167260E+03  0.93346328952E+03  0.60012287122E+03 0.  0.
        -24    2    4    4    0    0  0.38709561457E+03  0.13142315485E+03 -0.11410989227E+02  0.41680771856E+03  0.80519582293E+02 0.  0.
         24    2    4    4    0    0  0.20503357316E+03 -0.31687565929E+03 -0.34383068338E+03  0.51665557096E+03  0.79148535028E+02 0.  0.
         13    1    3    3    0    0 -0.34651854294E+03  0.12064616640E+03  0.34625192985E+02  0.36855054206E+03  0.00000000000E+00 0. -1.
        -14    1    3    3    0    0 -0.24561064479E+03  0.64806338037E+02 -0.39721420080E+02  0.25710356182E+03  0.00000000000E+00 0.  1.
         13    1    5    5    0    0  0.19353553245E+03  0.25186895769E+02 -0.17287979721E+02  0.19593176435E+03  0.00000000000E+00 0. -1.
        -14    1    5    5    0    0  0.19356008212E+03  0.10623625908E+03  0.58769904934E+01  0.22087595421E+03  0.00000000000E+00 0.  1.
          2    1    6    6  502    0  0.20995999210E+03 -0.29747728715E+03 -0.31440203445E+03  0.48106608062E+03  0.00000000000E+00 0. -1.
         -1    1    6    6    0  502 -0.49264189371E+01 -0.19398372137E+02 -0.29428648925E+02  0.35589490340E+02  0.00000000000E+00 0.  1.
<mgrwt>
<rscale>  0 0.71051316E+03</rscale>
<asrwt>0</asrwt>
<pdfrwt beam="1">  1        1 0.14765041E+00 0.71051316E+03</pdfrwt>
<pdfrwt beam="2">  1       -2 0.92213808E-01 0.71051316E+03</pdfrwt>
<totfact> 0.14653450E+01</totfact>
</mgrwt>
</event>
<event>
12    3  0.2269558E-007  0.4380111E+03  0.7818608E-02  0.1031359E+00
         -2   -1    0    0    0  501 -0.00000000000E+00  0.00000000000E+00  0.25907255960E+03  0.25907255960E+03  0.00000000000E+00 0.  1.
          1   -1    0    0  501    0  0.00000000000E+00 -0.00000000000E+00 -0.12318829701E+04  0.12318829701E+04  0.00000000000E+00 0. -1.
        -24    2    1    2    0    0 -0.16276467987E+03 -0.18408745029E+03 -0.76900409474E+03  0.81130857021E+03  0.80459729045E+02 0.  0.
    5000000    2    1    2    0    0  0.16276467987E+03  0.18408745029E+03 -0.20380631578E+03  0.67964695950E+03  0.60000203737E+03 0.  0.
        -24    2    4    4    0    0  0.19869140758E+03 -0.17398307523E+03 -0.12829722116E+03  0.30551857997E+03  0.84457325541E+02 0.  0.
         24    2    4    4    0    0 -0.35926727710E+02  0.35807052552E+03 -0.75509094616E+02  0.37412837953E+03  0.69030355593E+02 0.  0.
         11    1    3    3    0    0 -0.11129579769E+03 -0.12091727725E+03 -0.62077139996E+03  0.64215642450E+03  0.00000000000E+00 0. -1.
        -12    1    3    3    0    0 -0.51468882182E+02 -0.63170173046E+02 -0.14823269479E+03  0.16915214571E+03  0.00000000000E+00 0.  1.
         13    1    5    5    0    0  0.69346325601E+02 -0.87538663942E+02 -0.94551822211E+02  0.14632832140E+03  0.00000000000E+00 0. -1.
        -14    1    5    5    0    0  0.12934508198E+03 -0.86444411285E+02 -0.33745398951E+02  0.15919025857E+03  0.00000000000E+00 0.  1.
          2    1    6    6  502    0  0.50377483198E+01  0.18602318846E+03 -0.12981856883E+02  0.18654365216E+03  0.00000000000E+00 0. -1.
         -1    1    6    6    0  502 -0.40964476030E+02  0.17204733706E+03 -0.62527237733E+02  0.18758472738E+03  0.00000000000E+00 0.  1.
<mgrwt>
<rscale>  0 0.43801106E+03</rscale>
<asrwt>0</asrwt>
<pdfrwt beam="1">  1        1 0.18952046E+00 0.43801106E+03</pdfrwt>
<pdfrwt beam="2">  1       -2 0.39857317E-01 0.43801106E+03</pdfrwt>
<totfact> 0.56205972E+01</totfact>
</mgrwt>
</event>
<event>
12    3  0.2269558E-007  0.8830964E+03  0.7818608E-02  0.9446962E-01
         -2   -1    0    0    0  501 -0.00000000000E+00  0.00000000000E+00  0.60553149197E+03  0.60553149197E+03  0.00000000000E+00 0.  1.
          1   -1    0    0  501    0  0.00000000000E+00 -0.00000000000E+00 -0.14950871367E+04  0.14950871367E+04  0.00000000000E+00 0. -1.
        -24    2    1    2    0    0 -0.59321780805E+03  0.55153038779E+03 -0.99519751276E+02  0.81988502087E+03  0.78829753920E+02 0.  0.
    5000000    2    1    2    0    0  0.59321780805E+03 -0.55153038779E+03 -0.79003589345E+03  0.12807336078E+04  0.60002393683E+03 0.  0.
        -24    2    4    4    0    0  0.10882322085E+03 -0.43431708410E+03 -0.57197062639E+03  0.73072606685E+03  0.79601283844E+02 0.  0.
         24    2    4    4    0    0  0.48439458721E+03 -0.11721330369E+03 -0.21806526706E+03  0.55000754095E+03  0.81109553867E+02 0.  0.
         11    1    3    3    0    0 -0.42498221061E+03  0.37793690043E+03 -0.10374726334E+03  0.57810870491E+03  0.00000000000E+00 0. -1.
        -12    1    3    3    0    0 -0.16823559745E+03  0.17359348736E+03  0.42275120595E+01  0.24177631596E+03  0.00000000000E+00 0.  1.
         13    1    5    5    0    0  0.98327257630E+02 -0.26687942768E+03 -0.39649553539E+03  0.48795654324E+03  0.00000000000E+00 0. -1.
        -14    1    5    5    0    0  0.10495963217E+02 -0.16743765642E+03 -0.17547509100E+03  0.24276952361E+03  0.00000000000E+00 0.  1.
          4    1    6    6  502    0  0.22055931871E+03 -0.90351040889E+02 -0.12357173259E+03  0.26847662236E+03  0.00000000000E+00 0. -1.
         -3    1    6    6    0  502  0.26383526850E+03 -0.26862262804E+02 -0.94493534471E+02  0.28153091859E+03  0.00000000000E+00 0.  1.
<mgrwt>
<rscale>  0 0.88309641E+03</rscale>
<asrwt>0</asrwt>
<pdfrwt beam="1">  1        1 0.23001340E+00 0.88309641E+03</pdfrwt>
<pdfrwt beam="2">  1       -2 0.93158692E-01 0.88309641E+03</pdfrwt>
<totfact> 0.57269096E+00</totfact>
</mgrwt>
</event>
<event>
12    3  0.2269558E-007  0.4509775E+03  0.7818608E-02  0.1027431E+00
          1   -1    0    0  501    0  0.00000000000E+00  0.00000000000E+00  0.16952646381E+04  0.16952646381E+04  0.00000000000E+00 0. -1.
         -2   -1    0    0    0  501 -0.00000000000E+00 -0.00000000000E+00 -0.25283027994E+03  0.25283027994E+03  0.00000000000E+00 0.  1.
        -24    2    1    2    0    0 -0.24492279258E+03 -0.23308621711E+03 -0.25003863488E+01  0.34751532900E+03  0.80276354047E+02 0.  0.
    5000000    2    1    2    0    0  0.24492279258E+03  0.23308621711E+03  0.14449347446E+04  0.16005795891E+04  0.59975182037E+03 0.  0.
        -24    2    4    4    0    0  0.29866503879E+03 -0.17620055500E+02  0.11918363325E+04  0.12315152405E+04  0.81514858633E+02 0.  0.
         24    2    4    4    0    0 -0.53742246210E+02  0.25070627261E+03  0.25309841202E+03  0.36906434863E+03  0.80048879476E+02 0.  0.
         11    1    5    5    0    0  0.20211323097E+03 -0.36192334267E+02  0.91446204476E+03  0.93723021425E+03  0.00000000000E+00 0. -1.
        -12    1    5    5    0    0  0.96551807829E+02  0.18572278766E+02  0.27737428776E+03  0.29428502620E+03  0.00000000000E+00 0.  1.
         11    1    3    3    0    0 -0.13547929006E+03 -0.14801291180E+03  0.35523722467E+02  0.20377535413E+03  0.00000000000E+00 0. -1.
        -12    1    3    3    0    0 -0.10944350252E+03 -0.85073305316E+02 -0.38024108816E+02  0.14373997486E+03  0.00000000000E+00 0.  1.
          2    1    6    6  502    0 -0.48582868851E+02  0.13974293434E+03  0.19167010593E+03  0.24212767779E+03  0.00000000000E+00 0. -1.
         -1    1    6    6    0  502 -0.51593773595E+01  0.11096333827E+03  0.61428306098E+02  0.12693667084E+03  0.00000000000E+00 0.  1.
<mgrwt>
<rscale>  0 0.45097746E+03</rscale>
<asrwt>0</asrwt>
<pdfrwt beam="1">  1        1 0.26080994E+00 0.45097746E+03</pdfrwt>
<pdfrwt beam="2">  1       -2 0.38896967E-01 0.45097746E+03</pdfrwt>
<totfact> 0.28449693E+01</totfact>
</mgrwt>
</event>
<event>
12    3  0.2269558E-007  0.4942192E+03  0.7818608E-02  0.1015299E+00
         -4   -1    0    0    0  501 -0.00000000000E+00  0.00000000000E+00  0.12490394011E+03  0.12490394011E+03  0.00000000000E+00 0.  1.
          3   -1    0    0  501    0  0.00000000000E+00 -0.00000000000E+00 -0.29239194562E+04  0.29239194562E+04  0.00000000000E+00 0. -1.
        -24    2    1    2    0    0  0.36930343123E+03 -0.17985450336E+02 -0.40995232559E+03  0.55800379276E+03  0.81233138146E+02 0.  0.
    5000000    2    1    2    0    0 -0.36930343123E+03  0.17985450336E+02 -0.23890631905E+04  0.24908196036E+04  0.59987571084E+03 0.  0.
        -24    2    4    4    0    0 -0.23390150578E+03 -0.22184231373E+03 -0.18563790080E+04  0.18858114532E+04  0.78853593206E+02 0.  0.
         24    2    4    4    0    0 -0.13540192545E+03  0.23982776407E+03 -0.53268418254E+03  0.60500815037E+03  0.80195921672E+02 0.  0.
         11    1    3    3    0    0  0.27307063464E+03 -0.48139377839E+02 -0.31218527605E+03  0.41754594691E+03  0.00000000000E+00 0. -1.
        -12    1    3    3    0    0  0.96232796589E+02  0.30153927503E+02 -0.97767049536E+02  0.14045784584E+03  0.00000000000E+00 0.  1.
         13    1    5    5    0    0 -0.63686361723E+01 -0.83009550718E+00 -0.15391675333E+03  0.15405069147E+03  0.00000000000E+00 0. -1.
        -14    1    5    5    0    0 -0.22753286961E+03 -0.22101221822E+03 -0.17024622547E+04  0.17317607618E+04  0.00000000000E+00 0.  1.
          4    1    6    6  502    0 -0.71945793399E+02  0.19804488150E+03 -0.40039822622E+03  0.45245630931E+03  0.00000000000E+00 0. -1.
         -3    1    6    6    0  502 -0.63456132051E+02  0.41782882564E+02 -0.13228595632E+03  0.15255184106E+03  0.00000000000E+00 0.  1.
<mgrwt>
<rscale>  0 0.49421916E+03</rscale>
<asrwt>0</asrwt>
<pdfrwt beam="1">  1        3 0.44983378E+00 0.49421916E+03</pdfrwt>
<pdfrwt beam="2">  1       -4 0.19215990E-01 0.49421916E+03</pdfrwt>
<totfact> 0.37202158E-01</totfact>
</mgrwt>
</event>
<event>
12    3  0.2269558E-007  0.4879398E+03  0.7818608E-02  0.1016976E+00
         -2   -1    0    0    0  501 -0.00000000000E+00  0.00000000000E+00  0.21313558153E+03  0.21313558153E+03  0.00000000000E+00 0.  1.
          1   -1    0    0  501    0  0.00000000000E+00 -0.00000000000E+00 -0.15594881063E+04  0.15594881063E+04  0.00000000000E+00 0. -1.
        -24    2    1    2    0    0 -0.25263619948E+03 -0.32781898372E+03 -0.43398398216E+03  0.60481702646E+03  0.78557007026E+02 0.  0.
    5000000    2    1    2    0    0  0.25263619948E+03  0.32781898372E+03 -0.91236854265E+03  0.11678066614E+04  0.60005475202E+03 0.  0.
        -24    2    4    4    0    0  0.21225895677E+03  0.39090774903E+03 -0.94901574293E+03  0.10511740440E+04  0.80456555838E+02 0.  0.
         24    2    4    4    0    0  0.40377242706E+02 -0.63088765311E+02  0.36647200283E+02  0.11663261744E+03  0.81545301066E+02 0.  0.
         13    1    5    5    0    0  0.10478527268E+03  0.11959429347E+03 -0.29879464409E+03  0.33846859195E+03  0.00000000000E+00 0. -1.
        -14    1    5    5    0    0  0.10747368409E+03  0.27131345556E+03 -0.65022109884E+03  0.71270545201E+03  0.00000000000E+00 0.  1.
         13    1    3    3    0    0 -0.18140342583E+03 -0.21278960075E+03 -0.33933191525E+03  0.43969621990E+03  0.00000000000E+00 0. -1.
        -14    1    3    3    0    0 -0.71232773642E+02 -0.11502938298E+03 -0.94652066913E+02  0.16512080656E+03  0.00000000000E+00 0.  1.
          2    1    6    6  502    0  0.58171608294E+02 -0.70023110473E+02  0.25578742891E+02  0.94559209492E+02  0.00000000000E+00 0. -1.
         -1    1    6    6    0  502 -0.17794365588E+02  0.69343451619E+01  0.11068457392E+02  0.22073407951E+02  0.00000000000E+00 0.  1.
<mgrwt>
<rscale>  0 0.48793981E+03</rscale>
<asrwt>0</asrwt>
<pdfrwt beam="1">  1        1 0.23992125E+00 0.48793981E+03</pdfrwt>
<pdfrwt beam="2">  1       -2 0.32790089E-01 0.48793981E+03</pdfrwt>
<totfact> 0.48135464E+01</totfact>
</mgrwt>
</event>
<event>
12    3  0.2269558E-007  0.1629846E+04  0.7818608E-02  0.8802420E-01
          1   -1    0    0  501    0  0.00000000000E+00  0.00000000000E+00  0.15310362435E+04  0.15310362435E+04  0.00000000000E+00 0. -1.
         -2   -1    0    0    0  501 -0.00000000000E+00 -0.00000000000E+00 -0.23699220344E+04  0.23699220344E+04  0.00000000000E+00 0.  1.
        -24    2    1    2    0    0 -0.81170070358E+03  0.13644516886E+04  0.57644310605E+03  0.16909495446E+04  0.80232569503E+02 0.  0.
    5000000    2    1    2    0    0  0.81170070358E+03 -0.13644516886E+04 -0.14153288970E+04  0.22100087333E+04  0.60033013577E+03 0.  0.
        -24    2    4    4    0    0  0.85057542909E+03 -0.10529608906E+04 -0.10061074887E+04  0.16885320770E+04  0.81750221307E+02 0.  0.
         24    2    4    4    0    0 -0.38874725516E+02 -0.31149079806E+03 -0.40922140825E+03  0.52147665627E+03  0.77058292889E+02 0.  0.
         11    1    3    3    0    0 -0.25663745266E+03  0.40124073105E+03  0.20864574388E+03  0.51999033914E+03  0.00000000000E+00 0. -1.
        -12    1    3    3    0    0 -0.55506325091E+03  0.96321095757E+03  0.36779736218E+03  0.11709592055E+04  0.00000000000E+00 0.  1.
         13    1    5    5    0    0  0.60226236989E+03 -0.76153309522E+03 -0.67670178418E+03  0.11834601480E+04  0.00000000000E+00 0. -1.
        -14    1    5    5    0    0  0.24831305920E+03 -0.29142779534E+03 -0.32940570452E+03  0.50507192897E+03  0.00000000000E+00 0.  1.
          4    1    6    6  502    0 -0.50503165070E+02 -0.22134388368E+03 -0.24672352261E+03  0.33528522355E+03  0.00000000000E+00 0. -1.
         -3    1    6    6    0  502  0.11628439554E+02 -0.90146914379E+02 -0.16249788564E+03  0.18619143272E+03  0.00000000000E+00 0.  1.
<mgrwt>
<rscale>  0 0.16298457E+04</rscale>
<asrwt>0</asrwt>
<pdfrwt beam="1">  1        1 0.23554404E+00 0.16298457E+04</pdfrwt>
<pdfrwt beam="2">  1       -2 0.36460339E+00 0.16298457E+04</pdfrwt>
<totfact> 0.63782549E-02</totfact>
</mgrwt>
</event>
<event>
12    3  0.2269558E-007  0.6101466E+03  0.7818608E-02  0.9884576E-01
          1   -1    0    0  501    0  0.00000000000E+00  0.00000000000E+00  0.38852268560E+03  0.38852268560E+03  0.00000000000E+00 0. -1.
         -2   -1    0    0    0  501 -0.00000000000E+00 -0.00000000000E+00 -0.15559903327E+04  0.15559903327E+04  0.00000000000E+00 0.  1.
        -24    2    1    2    0    0 -0.35712504961E+03  0.34229968553E+03  0.46170041117E+02  0.50320014559E+03  0.79820661818E+02 0.  0.
    5000000    2    1    2    0    0  0.35712504961E+03 -0.34229968553E+03 -0.12136376882E+04  0.14413128727E+04  0.59979911891E+03 0.  0.
        -24    2    4    4    0    0  0.65960760726E+02 -0.40728076366E+03 -0.93636699158E+03  0.10265585890E+04  0.82528487921E+02 0.  0.
         24    2    4    4    0    0  0.29116428888E+03  0.64981078131E+02 -0.27727069667E+03  0.41475428375E+03  0.78376610196E+02 0.  0.
         11    1    5    5    0    0  0.10373252813E+02 -0.16313465957E+03 -0.28245223129E+03  0.32634304725E+03  0.00000000000E+00 0. -1.
        -12    1    5    5    0    0  0.55587507913E+02 -0.24414610408E+03 -0.65391476029E+03  0.70021554174E+03  0.00000000000E+00 0.  1.
         13    1    3    3    0    0 -0.29002908516E+03  0.23632015821E+03  0.17470778818E+02  0.37452545378E+03  0.00000000000E+00 0. -1.
        -14    1    3    3    0    0 -0.67095964447E+02  0.10597952732E+03  0.28699262299E+02  0.12867469181E+03  0.00000000000E+00 0.  1.
          2    1    6    6  502    0  0.19836035701E+03  0.91313649947E+01 -0.15903013587E+03  0.25440282462E+03  0.00000000000E+00 0. -1.
         -1    1    6    6    0  502  0.92803931869E+02  0.55849713136E+02 -0.11824056080E+03  0.16035145913E+03  0.00000000000E+00 0.  1.
<mgrwt>
<rscale>  0 0.61014659E+03</rscale>
<asrwt>0</asrwt>
<pdfrwt beam="1">  1        1 0.59772719E-01 0.61014659E+03</pdfrwt>
<pdfrwt beam="2">  1       -2 0.23938313E+00 0.61014659E+03</pdfrwt>
<totfact> 0.42856823E+00</totfact>
</mgrwt>
</event>
<event>
12    3  0.2269558E-007  0.7145790E+03  0.7818608E-02  0.9692620E-01
         -4   -1    0    0    0  501 -0.00000000000E+00  0.00000000000E+00  0.12839902168E+04  0.12839902168E+04  0.00000000000E+00 0.  1.
          1   -1    0    0  501    0  0.00000000000E+00 -0.00000000000E+00 -0.12022830363E+04  0.12022830363E+04  0.00000000000E+00 0. -1.
        -24    2    1    2    0    0 -0.53597379916E+03  0.26888294680E+03  0.10420561457E+04  0.12049054485E+04  0.79687994541E+02 0.  0.
    5000000    2    1    2    0    0  0.53597379916E+03 -0.26888294680E+03 -0.96034896519E+03  0.12813678046E+04  0.60005613332E+03 0.  0.
        -24    2    4    4    0    0  0.63410282529E+03 -0.13805483136E+03 -0.65142357302E+03  0.92306201090E+03  0.80902873726E+02 0.  0.
         24    2    4    4    0    0 -0.98129026131E+02 -0.13082811544E+03 -0.30892539217E+03  0.35830579365E+03  0.78758125163E+02 0.  0.
         11    1    5    5    0    0  0.14331055442E+03 -0.27993886180E+02 -0.19691582405E+03  0.24514774002E+03  0.00000000000E+00 0. -1.
        -12    1    5    5    0    0  0.49079227087E+03 -0.11006094518E+03 -0.45450774897E+03  0.67791427089E+03  0.00000000000E+00 0.  1.
         13    1    3    3    0    0 -0.42811285549E+03  0.24800373510E+03  0.83805811188E+03  0.97320494683E+03  0.00000000000E+00 0. -1.
        -14    1    3    3    0    0 -0.10786094367E+03  0.20879211704E+02  0.20399803385E+03  0.23170050165E+03  0.00000000000E+00 0.  1.
          4    1    6    6  502    0  0.84936349795E+01 -0.28447572535E+01 -0.47374466036E+02  0.48213841489E+02  0.00000000000E+00 0. -1.
         -3    1    6    6    0  502 -0.10662266111E+03 -0.12798335819E+03 -0.26155092613E+03  0.31009195216E+03  0.00000000000E+00 0.  1.
<mgrwt>
<rscale>  0 0.71457897E+03</rscale>
<asrwt>0</asrwt>
<pdfrwt beam="1">  1        1 0.18496662E+00 0.71457897E+03</pdfrwt>
<pdfrwt beam="2">  1       -4 0.19753696E+00 0.71457897E+03</pdfrwt>
<totfact> 0.71325932E-01</totfact>
</mgrwt>
</event>
<event>
12    3  0.2269558E-007  0.5439533E+03  0.7818608E-02  0.1002903E+00
          1   -1    0    0  501    0  0.00000000000E+00  0.00000000000E+00  0.26751336482E+04  0.26751336482E+04  0.00000000000E+00 0. -1.
         -2   -1    0    0    0  501 -0.00000000000E+00 -0.00000000000E+00 -0.16231102253E+03  0.16231102253E+03  0.00000000000E+00 0.  1.
        -24    2    1    2    0    0 -0.29898869989E+03  0.40932798473E+03  0.76480165449E+03  0.92105488997E+03  0.80479176658E+02 0.  0.
    5000000    2    1    2    0    0  0.29898869989E+03 -0.40932798473E+03  0.17480209712E+04  0.19163897808E+04  0.60002402815E+03 0.  0.
        -24    2    4    4    0    0 -0.10797356463E+02 -0.28997575590E+02  0.10764377266E+04  0.10808958835E+04  0.93060676853E+02 0.  0.
         24    2    4    4    0    0  0.30978605636E+03 -0.38033040914E+03  0.67158324467E+03  0.83549389728E+03  0.80046093143E+02 0.  0.
         11    1    5    5    0    0 -0.24329379559E+02  0.17472297109E+02  0.77655501792E+03  0.77713248275E+03  0.00000000000E+00 0. -1.
        -12    1    5    5    0    0  0.13532023096E+02 -0.46469872699E+02  0.29988270863E+03  0.30376340078E+03  0.00000000000E+00 0.  1.
         13    1    3    3    0    0 -0.10009588817E+03  0.20470171665E+03  0.33539732088E+03  0.40547915172E+03  0.00000000000E+00 0. -1.
        -14    1    3    3    0    0 -0.19889281173E+03  0.20462626808E+03  0.42940433362E+03  0.51557573825E+03  0.00000000000E+00 0.  1.
          4    1    6    6  502    0  0.17133549770E+03 -0.15065085492E+03  0.33067811315E+03  0.40174562521E+03  0.00000000000E+00 0. -1.
         -3    1    6    6    0  502  0.13845055866E+03 -0.22967955422E+03  0.34090513153E+03  0.43374827207E+03  0.00000000000E+00 0.  1.
<mgrwt>
<rscale>  0 0.54395330E+03</rscale>
<asrwt>0</asrwt>
<pdfrwt beam="1">  1        1 0.41155899E+00 0.54395330E+03</pdfrwt>
<pdfrwt beam="2">  1       -2 0.24970929E-01 0.54395330E+03</pdfrwt>
<totfact> 0.14079609E+01</totfact>
</mgrwt>
</event>
<event>
12    3  0.2269558E-007  0.3032948E+03  0.7818608E-02  0.1083605E+00
         -2   -1    0    0    0  501 -0.00000000000E+00  0.00000000000E+00  0.22464366309E+03  0.22464366309E+03  0.00000000000E+00 0.  1.
          1   -1    0    0  501    0  0.00000000000E+00 -0.00000000000E+00 -0.95165069710E+03  0.95165069710E+03  0.00000000000E+00 0. -1.
        -24    2    1    2    0    0 -0.94847412765E+02  0.22266445947E+03 -0.96031913233E+02  0.27272165454E+03  0.81113989415E+02 0.  0.
    5000000    2    1    2    0    0  0.94847412765E+02 -0.22266445947E+03 -0.63097512077E+03  0.90357270565E+03  0.59978207554E+03 0.  0.
        -24    2    4    4    0    0  0.10254673792E+03 -0.24855982399E+03 -0.14287796500E+02  0.28118791570E+03  0.81022732880E+02 0.  0.
         24    2    4    4    0    0 -0.76993251556E+01  0.25895364526E+02 -0.61668732427E+03  0.62238478995E+03  0.79559545816E+02 0.  0.
         13    1    5    5    0    0  0.86180762431E+02 -0.14830957816E+03 -0.40574428358E+02  0.17626440090E+03  0.00000000000E+00 0. -1.
        -14    1    5    5    0    0  0.16365975490E+02 -0.10025024584E+03  0.26286631858E+02  0.10492351480E+03  0.00000000000E+00 0.  1.
         13    1    3    3    0    0 -0.28384629511E+02  0.16076799928E+03 -0.74131845422E+02  0.17929742689E+03  0.00000000000E+00 0. -1.
        -14    1    3    3    0    0 -0.66462783255E+02  0.61896460189E+02 -0.21900067811E+02  0.93424227650E+02  0.00000000000E+00 0.  1.
          2    1    6    6  502    0  0.33682363882E+02  0.11476643769E+02 -0.38100523751E+03  0.38266330631E+03  0.00000000000E+00 0. -1.
         -1    1    6    6    0  502 -0.41381689038E+02  0.14418720757E+02 -0.23568208677E+03  0.23972148364E+03  0.00000000000E+00 0.  1.
<mgrwt>
<rscale>  0 0.30329476E+03</rscale>
<asrwt>0</asrwt>
<pdfrwt beam="1">  1        1 0.14640779E+00 0.30329476E+03</pdfrwt>
<pdfrwt beam="2">  1       -2 0.34560565E-01 0.30329476E+03</pdfrwt>
<totfact> 0.12101049E+02</totfact>
</mgrwt>
</event>
<event>
12    3  0.2269558E-007  0.6671499E+03  0.7818608E-02  0.9775120E-01
          1   -1    0    0  501    0  0.00000000000E+00  0.00000000000E+00  0.76692610792E+03  0.76692610792E+03  0.00000000000E+00 0. -1.
         -2   -1    0    0    0  501 -0.00000000000E+00 -0.00000000000E+00 -0.10794062861E+04  0.10794062861E+04  0.00000000000E+00 0.  1.
        -24    2    1    2    0    0 -0.33701807653E+03 -0.49497640327E+03  0.41200374363E+03  0.73118258089E+03  0.79360305760E+02 0.  0.
    5000000    2    1    2    0    0  0.33701807653E+03  0.49497640327E+03 -0.72448392182E+03  0.11151498131E+04  0.60008276853E+03 0.  0.
        -24    2    4    4    0    0  0.51325526121E+02 -0.59038367510E+02 -0.38435189337E+03  0.40059852665E+03  0.81443005519E+02 0.  0.
         24    2    4    4    0    0  0.28569255041E+03  0.55401477078E+03 -0.34013202845E+03  0.71455128650E+03  0.79631304526E+02 0.  0.
         11    1    3    3    0    0 -0.29709416467E+03 -0.40400658347E+03  0.31426186673E+03  0.59181651130E+03  0.00000000000E+00 0. -1.
        -12    1    3    3    0    0 -0.39923911859E+02 -0.90969819802E+02  0.97741876901E+02  0.13936606959E+03  0.00000000000E+00 0.  1.
         13    1    5    5    0    0 -0.60827858954E+01 -0.48899525881E+02 -0.11679899774E+03  0.12676817340E+03  0.00000000000E+00 0. -1.
        -14    1    5    5    0    0  0.57408312017E+02 -0.10138841629E+02 -0.26755289563E+03  0.27383035324E+03  0.00000000000E+00 0.  1.
          2    1    6    6  502    0  0.94649131633E+02  0.24438311302E+03 -0.17410561846E+03  0.31463364478E+03  0.00000000000E+00 0. -1.
         -1    1    6    6    0  502  0.19104341878E+03  0.30963165776E+03 -0.16602640999E+03  0.39991764172E+03  0.00000000000E+00 0.  1.
<mgrwt>
<rscale>  0 0.66714993E+03</rscale>
<asrwt>0</asrwt>
<pdfrwt beam="1">  1        1 0.11798863E+00 0.66714993E+03</pdfrwt>
<pdfrwt beam="2">  1       -2 0.16606251E+00 0.66714993E+03</pdfrwt>
<totfact> 0.48809770E+00</totfact>
</mgrwt>
</event>
<event>
12    3  0.2269558E-007  0.5418102E+03  0.7818608E-02  0.1003408E+00
          1   -1    0    0  501    0  0.00000000000E+00  0.00000000000E+00  0.19846444962E+04  0.19846444962E+04  0.00000000000E+00 0. -1.
         -2   -1    0    0    0  501 -0.00000000000E+00 -0.00000000000E+00 -0.20162533664E+03  0.20162533664E+03  0.00000000000E+00 0.  1.
        -24    2    1    2    0    0 -0.40101579249E+03  0.14237503804E+03  0.27667855980E+03  0.50993667142E+03  0.48990469701E+02 0.  0.
    5000000    2    1    2    0    0  0.40101579249E+03 -0.14237503804E+03  0.15063405997E+04  0.16763331614E+04  0.59995545530E+03 0.  0.
        -24    2    4    4    0    0  0.50863026988E+03 -0.13936823036E+03  0.14150052600E+04  0.15133289613E+04  0.98976785585E+02 0.  0.
         24    2    4    4    0    0 -0.10761447739E+03 -0.30068076802E+01  0.91335339733E+02  0.16300420015E+03  0.81475814473E+02 0.  0.
         11    1    3    3    0    0 -0.28191348067E+03  0.76546722515E+02  0.18250897813E+03  0.34444758441E+03  0.00000000000E+00 0. -1.
        -12    1    3    3    0    0 -0.11910231182E+03  0.65828315522E+02  0.94169581666E+02  0.16548908700E+03  0.00000000000E+00 0.  1.
         11    1    5    5    0    0  0.14528519569E+03 -0.43405083221E+02  0.29053825613E+03  0.32772590317E+03  0.00000000000E+00 0. -1.
        -12    1    5    5    0    0  0.36334507419E+03 -0.95963147136E+02  0.11244670039E+04  0.11856030581E+04  0.00000000000E+00 0.  1.
          2    1    6    6  502    0 -0.49158873664E+01 -0.22859155226E+02  0.40361611392E+02  0.46645113360E+02  0.00000000000E+00 0. -1.
         -3    1    6    6    0  502 -0.10269859003E+03  0.19852347546E+02  0.50973728341E+02  0.11635908679E+03  0.00000000000E+00 0.  1.
<mgrwt>
<rscale>  0 0.54181015E+03</rscale>
<asrwt>0</asrwt>
<pdfrwt beam="1">  1        1 0.30532991E+00 0.54181015E+03</pdfrwt>
<pdfrwt beam="2">  1       -2 0.31019284E-01 0.54181015E+03</pdfrwt>
<totfact> 0.27584985E+01</totfact>
</mgrwt>
</event>
<event>
12    3  0.2269558E-007  0.1211327E+04  0.7818608E-02  0.9102999E-01
          1   -1    0    0  501    0  0.00000000000E+00  0.00000000000E+00  0.35652065050E+04  0.35652065050E+04  0.00000000000E+00 0. -1.
         -2   -1    0    0    0  501 -0.00000000000E+00 -0.00000000000E+00 -0.51356080507E+03  0.51356080507E+03  0.00000000000E+00 0.  1.
        -24    2    1    2    0    0  0.98294654882E+03  0.61475491330E+03  0.61553248300E+03  0.13149684327E+04  0.78448837055E+02 0.  0.
    5000000    2    1    2    0    0 -0.98294654882E+03 -0.61475491330E+03  0.24361132169E+04  0.27637988774E+04  0.59985757289E+03 0.  0.
        -24    2    4    4    0    0 -0.38752279871E+03  0.12209470833E+02  0.11124755358E+04  0.11807203948E+04  0.78586527089E+02 0.  0.
         24    2    4    4    0    0 -0.59542375011E+03 -0.62696438414E+03  0.13236376811E+04  0.15830784826E+04  0.80665915930E+02 0.  0.
         11    1    5    5    0    0 -0.18180261384E+03 -0.29396738747E+02  0.57231211941E+03  0.60121337366E+03  0.00000000000E+00 0. -1.
        -12    1    5    5    0    0 -0.20572018487E+03  0.41606209580E+02  0.54016341642E+03  0.57950702117E+03  0.00000000000E+00 0.  1.
         13    1    3    3    0    0  0.83713091640E+03  0.49721104864E+03  0.49520019442E+03  0.10923507819E+04  0.00000000000E+00 0. -1.
        -14    1    3    3    0    0  0.14581563242E+03  0.11754386467E+03  0.12033228858E+03  0.22261765081E+03  0.00000000000E+00 0.  1.
          4    1    6    6  502    0 -0.51746787216E+03 -0.50599254310E+03  0.11277475281E+04  0.13400059476E+04  0.00000000000E+00 0. -1.
         -3    1    6    6    0  502 -0.77955877948E+02 -0.12097184104E+03  0.19589015302E+03  0.24307253503E+03  0.00000000000E+00 0.  1.
<mgrwt>
<rscale>  0 0.12113273E+04</rscale>
<asrwt>0</asrwt>
<pdfrwt beam="1">  1        1 0.54849329E+00 0.12113273E+04</pdfrwt>
<pdfrwt beam="2">  1       -2 0.79009357E-01 0.12113273E+04</pdfrwt>
<totfact> 0.27766892E-01</totfact>
</mgrwt>
</event>
<event>
12    3  0.2269558E-007  0.1345979E+04  0.7818608E-02  0.8993878E-01
          1   -1    0    0  501    0  0.00000000000E+00  0.00000000000E+00  0.96204186579E+03  0.96204186579E+03  0.00000000000E+00 0. -1.
         -2   -1    0    0    0  501 -0.00000000000E+00 -0.00000000000E+00 -0.19582934758E+04  0.19582934758E+04  0.00000000000E+00 0.  1.
        -24    2    1    2    0    0  0.67517652976E+03 -0.10899566453E+04 -0.73774015466E+03  0.14814074220E+04  0.80240758499E+02 0.  0.
    5000000    2    1    2    0    0 -0.67517652976E+03  0.10899566453E+04 -0.25851145536E+03  0.14389279196E+04  0.59984710578E+03 0.  0.
        -24    2    4    4    0    0 -0.64502863321E+03  0.51367612140E+03 -0.91284566805E+02  0.83333935902E+03  0.78717976389E+02 0.  0.
         24    2    4    4    0    0 -0.30147896552E+02  0.57628052385E+03 -0.16722688855E+03  0.60558856055E+03  0.75924532137E+02 0.  0.
         11    1    5    5    0    0 -0.57091708029E+03  0.42255232892E+03 -0.89252995938E+02  0.71586512733E+03  0.00000000000E+00 0. -1.
        -12    1    5    5    0    0 -0.74111552913E+02  0.91123792480E+02 -0.20315708673E+01  0.11747423169E+03  0.00000000000E+00 0.  1.
         11    1    3    3    0    0  0.15801551794E+03 -0.27556922634E+03 -0.14542097859E+03  0.34936308252E+03  0.00000000000E+00 0. -1.
        -12    1    3    3    0    0  0.51716101182E+03 -0.81438741892E+03 -0.59231917607E+03  0.11320443395E+04  0.00000000000E+00 0.  1.
          2    1    6    6  502    0  0.19768542614E+02  0.32799711767E+03 -0.86601015937E+02  0.33981265491E+03  0.00000000000E+00 0. -1.
         -1    1    6    6    0  502 -0.49916439166E+02  0.24828340618E+03 -0.80625872618E+02  0.26577590564E+03  0.00000000000E+00 0.  1.
<mgrwt>
<rscale>  0 0.13459789E+04</rscale>
<asrwt>0</asrwt>
<pdfrwt beam="1">  1        1 0.14800644E+00 0.13459789E+04</pdfrwt>
<pdfrwt beam="2">  1       -2 0.30127592E+00 0.13459789E+04</pdfrwt>
<totfact> 0.42809921E-01</totfact>
</mgrwt>
</event>
<event>
12    3  0.2269558E-007  0.7484510E+03  0.7818608E-02  0.9637784E-01
         -2   -1    0    0    0  501 -0.00000000000E+00  0.00000000000E+00  0.40415492679E+03  0.40415492679E+03  0.00000000000E+00 0.  1.
          1   -1    0    0  501    0  0.00000000000E+00 -0.00000000000E+00 -0.14449382894E+04  0.14449382894E+04  0.00000000000E+00 0. -1.
        -24    2    1    2    0    0  0.27620742030E+03 -0.56945582583E+03 -0.58218125650E+03  0.86387222307E+03  0.82278343276E+02 0.  0.
    5000000    2    1    2    0    0 -0.27620742030E+03  0.56945582583E+03 -0.45860210614E+03  0.98522099315E+03  0.59981166793E+03 0.  0.
        -24    2    4    4    0    0  0.17933674375E+03  0.20714634409E+03 -0.17236777068E+03  0.33155100858E+03  0.71722711828E+02 0.  0.
         24    2    4    4    0    0 -0.45554416405E+03  0.36230948174E+03 -0.28623433546E+03  0.65366998456E+03  0.81029056307E+02 0.  0.
         11    1    3    3    0    0  0.90987574463E+02 -0.18188802224E+03 -0.13683100834E+03  0.24512183947E+03  0.00000000000E+00 0. -1.
        -12    1    3    3    0    0  0.18521984584E+03 -0.38756780359E+03 -0.44535024816E+03  0.61875038360E+03  0.00000000000E+00 0.  1.
         11    1    5    5    0    0  0.13343760993E+03  0.18848773728E+03 -0.15850379685E+03  0.28010118969E+03  0.00000000000E+00 0. -1.
        -12    1    5    5    0    0  0.45899133826E+02  0.18658606809E+02 -0.13863973838E+02  0.51449818898E+02  0.00000000000E+00 0.  1.
          2    1    6    6  502    0 -0.40858363479E+03  0.33976415796E+03 -0.28153346436E+03  0.60136624549E+03  0.00000000000E+00 0. -1.
         -1    1    6    6    0  502 -0.46960529257E+02  0.22545323776E+02 -0.47008710977E+01  0.52303739076E+02  0.00000000000E+00 0.  1.
<mgrwt>
<rscale>  0 0.74845103E+03</rscale>
<asrwt>0</asrwt>
<pdfrwt beam="1">  1        1 0.22229820E+00 0.74845103E+03</pdfrwt>
<pdfrwt beam="2">  1       -2 0.62177681E-01 0.74845103E+03</pdfrwt>
<totfact> 0.15514839E+01</totfact>
</mgrwt>
</event>
<event>
12    3  0.2269558E-007  0.4949403E+03  0.7818608E-02  0.1015108E+00
          1   -1    0    0  501    0  0.00000000000E+00  0.00000000000E+00  0.88636806176E+03  0.88636806176E+03  0.00000000000E+00 0. -1.
         -2   -1    0    0    0  501 -0.00000000000E+00 -0.00000000000E+00 -0.31848669481E+03  0.31848669481E+03  0.00000000000E+00 0.  1.
        -24    2    1    2    0    0 -0.16316414155E+03 -0.31642903804E+03  0.20462405171E+03  0.41834328764E+03  0.79938917778E+02 0.  0.
    5000000    2    1    2    0    0  0.16316414155E+03  0.31642903804E+03  0.36325731524E+03  0.78651146893E+03  0.59991211063E+03 0.  0.
        -24    2    4    4    0    0 -0.18366317209E+03  0.53204756174E+02  0.25953089625E+03  0.33190198894E+03  0.78992007809E+02 0.  0.
         24    2    4    4    0    0  0.34682731364E+03  0.26322428186E+03  0.10372641899E+03  0.45460947999E+03  0.79588951793E+02 0.  0.
         13    1    3    3    0    0 -0.11837092384E+03 -0.21094709121E+03  0.17899261209E+03  0.30091312049E+03  0.00000000000E+00 0. -1.
        -14    1    3    3    0    0 -0.44793217713E+02 -0.10548194683E+03  0.25631439612E+02  0.11743016715E+03  0.00000000000E+00 0.  1.
         13    1    5    5    0    0 -0.11138052195E+03  0.57667958750E+01  0.19260809877E+03  0.22256854296E+03  0.00000000000E+00 0. -1.
        -14    1    5    5    0    0 -0.72282650138E+02  0.47437960299E+02  0.66922797478E+02  0.10933344598E+03  0.00000000000E+00 0.  1.
          4    1    6    6  502    0  0.19477279907E+03  0.14826096636E+03  0.17541781877E+02  0.24540878452E+03  0.00000000000E+00 0. -1.
         -3    1    6    6    0  502  0.15205451457E+03  0.11496331550E+03  0.86184637117E+02  0.20920069547E+03  0.00000000000E+00 0.  1.
<mgrwt>
<rscale>  0 0.49494028E+03</rscale>
<asrwt>0</asrwt>
<pdfrwt beam="1">  1        1 0.13636432E+00 0.49494028E+03</pdfrwt>
<pdfrwt beam="2">  1       -2 0.48997953E-01 0.49494028E+03</pdfrwt>
<totfact> 0.67408164E+01</totfact>
</mgrwt>
</event>
<event>
12    3  0.2269558E-007  0.5809456E+03  0.7818608E-02  0.9945746E-01
         -2   -1    0    0    0  501 -0.00000000000E+00  0.00000000000E+00  0.30861643199E+04  0.30861643199E+04  0.00000000000E+00 0.  1.
          1   -1    0    0  501    0  0.00000000000E+00 -0.00000000000E+00 -0.31828674307E+03  0.31828674307E+03  0.00000000000E+00 0. -1.
        -24    2    1    2    0    0  0.17085388613E+03  0.40440444845E+03  0.26055556582E+04  0.26434863472E+04  0.79785785193E+02 0.  0.
    5000000    2    1    2    0    0 -0.17085388613E+03 -0.40440444845E+03  0.16232191862E+03  0.76096471575E+03  0.59998740405E+03 0.  0.
        -24    2    4    4    0    0  0.17368232721E+03  0.12978505806E+02  0.58795469100E+00  0.19040060987E+03  0.76928890219E+02 0.  0.
         24    2    4    4    0    0 -0.34453621334E+03 -0.41738295426E+03  0.16173396393E+03  0.57056410589E+03  0.80447442658E+02 0.  0.
         11    1    3    3    0    0  0.62250686613E+02  0.12932471140E+03  0.10834935466E+04  0.10929585054E+04  0.00000000000E+00 0. -1.
        -12    1    3    3    0    0  0.10860319952E+03  0.27507973706E+03  0.15220621116E+04  0.15505278418E+04  0.00000000000E+00 0.  1.
         13    1    5    5    0    0  0.12516443790E+03 -0.73157395662E+01 -0.30865282094E+02  0.12912134680E+03  0.00000000000E+00 0. -1.
        -14    1    5    5    0    0  0.48517889303E+02  0.20294245372E+02  0.31453236785E+02  0.61279263066E+02  0.00000000000E+00 0.  1.
          4    1    6    6  502    0 -0.29787695720E+03 -0.32312084276E+03  0.15164991229E+03  0.46490370675E+03  0.00000000000E+00 0. -1.
         -3    1    6    6    0  502 -0.46659256142E+02 -0.94262111498E+02  0.10084051643E+02  0.10566039913E+03  0.00000000000E+00 0.  1.
<mgrwt>
<rscale>  0 0.58094563E+03</rscale>
<asrwt>0</asrwt>
<pdfrwt beam="1">  1        1 0.48967193E-01 0.58094563E+03</pdfrwt>
<pdfrwt beam="2">  1       -2 0.47479449E+00 0.58094563E+03</pdfrwt>
<totfact> 0.18759957E-01</totfact>
</mgrwt>
</event>
<event>
12    3  0.2269558E-007  0.5730842E+03  0.7818608E-02  0.9962877E-01
          1   -1    0    0  501    0  0.00000000000E+00  0.00000000000E+00  0.82059080215E+03  0.82059080215E+03  0.00000000000E+00 0. -1.
         -2   -1    0    0    0  501 -0.00000000000E+00 -0.00000000000E+00 -0.50152591608E+03  0.50152591608E+03  0.00000000000E+00 0.  1.
        -24    2    1    2    0    0 -0.73248334737E+02  0.41225408861E+03 -0.15140195973E+03  0.45223736378E+03  0.79229588388E+02 0.  0.
    5000000    2    1    2    0    0  0.73248334737E+02 -0.41225408861E+03  0.47046684579E+03  0.86987935445E+03  0.60002690456E+03 0.  0.
        -24    2    4    4    0    0  0.67674922304E+02 -0.55357482660E+03  0.41268847505E+03  0.69814660670E+03  0.77922546523E+02 0.  0.
         24    2    4    4    0    0  0.55734124335E+01  0.14132073800E+03  0.57778370747E+02  0.17173274775E+03  0.78429475381E+02 0.  0.
         13    1    3    3    0    0 -0.71214197297E+02  0.23772885769E+03 -0.60442994786E+02  0.25542088265E+03  0.00000000000E+00 0. -1.
        -14    1    3    3    0    0 -0.20341374401E+01  0.17452523092E+03 -0.90958964941E+02  0.19681648113E+03  0.00000000000E+00 0.  1.
         13    1    5    5    0    0 -0.11254644348E+02 -0.16340894528E+03  0.99566302284E+02  0.19168359076E+03  0.00000000000E+00 0. -1.
        -14    1    5    5    0    0  0.78929566652E+02 -0.39016588133E+03  0.31312217276E+03  0.50646301594E+03  0.00000000000E+00 0.  1.
          4    1    6    6  502    0 -0.33549765896E+02  0.96184114616E+02  0.33194572296E+02  0.10713939670E+03  0.00000000000E+00 0. -1.
         -3    1    6    6    0  502  0.39123178329E+02  0.45136623383E+02  0.24583798452E+02  0.64593351046E+02  0.00000000000E+00 0.  1.
<mgrwt>
<rscale>  0 0.57308423E+03</rscale>
<asrwt>0</asrwt>
<pdfrwt beam="1">  1        1 0.12624474E+00 0.57308423E+03</pdfrwt>
<pdfrwt beam="2">  1       -2 0.77157833E-01 0.57308423E+03</pdfrwt>
<totfact> 0.28985578E+01</totfact>
</mgrwt>
</event>
<event>
12    3  0.2269558E-007  0.2296966E+04  0.7818608E-02  0.8479118E-01
         -2   -1    0    0    0  501 -0.00000000000E+00  0.00000000000E+00  0.22424697144E+04  0.22424697144E+04  0.00000000000E+00 0.  1.
          1   -1    0    0  501    0  0.00000000000E+00 -0.00000000000E+00 -0.25046826487E+04  0.25046826487E+04  0.00000000000E+00 0. -1.
        -24    2    1    2    0    0  0.22545167840E+04 -0.17744879810E+03 -0.69608890908E+03  0.23675510375E+04  0.80150736232E+02 0.  0.
    5000000    2    1    2    0    0 -0.22545167840E+04  0.17744879810E+03  0.43387597476E+03  0.23796013255E+04  0.59993341420E+03 0.  0.
        -24    2    4    4    0    0 -0.50388146466E+03 -0.19419996376E+03  0.53940969242E+02  0.54819463266E+03  0.77443984695E+02 0.  0.
         24    2    4    4    0    0 -0.17506353194E+04  0.37164876186E+03  0.37993500551E+03  0.18314066929E+04  0.82783105568E+02 0.  0.
         11    1    3    3    0    0  0.38545060231E+03 -0.25553372254E+01 -0.13101490565E+03  0.40711620217E+03  0.00000000000E+00 0. -1.
        -12    1    3    3    0    0  0.18690661817E+04 -0.17489346087E+03 -0.56507400343E+03  0.19604348354E+04  0.00000000000E+00 0.  1.
         11    1    5    5    0    0 -0.74662264758E+02 -0.30362576628E+02 -0.19528020981E+02  0.82931799943E+02  0.00000000000E+00 0. -1.
        -12    1    5    5    0    0 -0.42921919990E+03 -0.16383738713E+03  0.73468990223E+02  0.46526283272E+03  0.00000000000E+00 0.  1.
          2    1    6    6  502    0 -0.43211550366E+02  0.21476900779E+02  0.16151235658E+02  0.50885732434E+02  0.00000000000E+00 0. -1.
         -1    1    6    6    0  502 -0.17074237690E+04  0.35017186108E+03  0.36378376986E+03  0.17805209604E+04  0.00000000000E+00 0.  1.
<mgrwt>
<rscale>  0 0.22969659E+04</rscale>
<asrwt>0</asrwt>
<pdfrwt beam="1">  1        1 0.38533579E+00 0.22969659E+04</pdfrwt>
<pdfrwt beam="2">  1       -2 0.34499534E+00 0.22969659E+04</pdfrwt>
<totfact> 0.16937351E-02</totfact>
</mgrwt>
</event>
<event>
12    3  0.2269558E-007  0.7345876E+03  0.7818608E-02  0.9659845E-01
         -2   -1    0    0    0  501 -0.00000000000E+00  0.00000000000E+00  0.97696338274E+03  0.97696338274E+03  0.00000000000E+00 0.  1.
          1   -1    0    0  501    0  0.00000000000E+00 -0.00000000000E+00 -0.79841947075E+03  0.79841947075E+03  0.00000000000E+00 0. -1.
        -24    2    1    2    0    0  0.64452077454E+03 -0.31257352885E+03 -0.22869423386E+03  0.75615633755E+03  0.79762864011E+02 0.  0.
    5000000    2    1    2    0    0 -0.64452077454E+03  0.31257352885E+03  0.40723814584E+03  0.10192265159E+04  0.59989210997E+03 0.  0.
        -24    2    4    4    0    0 -0.49776230396E+03  0.14362340815E+03 -0.26358891354E+02  0.52470539404E+03  0.78904782922E+02 0.  0.
         24    2    4    4    0    0 -0.14675847057E+03  0.16895012071E+03  0.43359703719E+03  0.49452112189E+03  0.80390032741E+02 0.  0.
         11    1    5    5    0    0 -0.17883676532E+03  0.88094249026E+02  0.53806953204E+01  0.19942952947E+03  0.00000000000E+00 0. -1.
        -12    1    5    5    0    0 -0.31892553865E+03  0.55529159119E+02 -0.31739586674E+02  0.32527586458E+03  0.00000000000E+00 0.  1.
         13    1    3    3    0    0  0.51087285770E+03 -0.27545268347E+03 -0.20437797710E+03  0.61533374285E+03  0.00000000000E+00 0. -1.
        -14    1    3    3    0    0  0.13364791683E+03 -0.37120845380E+02 -0.24316256755E+02  0.14082259470E+03  0.00000000000E+00 0.  1.
          2    1    6    6  502    0 -0.10505461399E+03  0.92836963274E+02  0.19147368888E+03  0.23731276241E+03  0.00000000000E+00 0. -1.
         -1    1    6    6    0  502 -0.41703856584E+02  0.76113157432E+02  0.24212334832E+03  0.25720835948E+03  0.00000000000E+00 0.  1.
<mgrwt>
<rscale>  0 0.73458764E+03</rscale>
<asrwt>0</asrwt>
<pdfrwt beam="1">  1        1 0.12283377E+00 0.73458764E+03</pdfrwt>
<pdfrwt beam="2">  1       -2 0.15030206E+00 0.73458764E+03</pdfrwt>
<totfact> 0.59371920E+00</totfact>
</mgrwt>
</event>
<event>
12    3  0.2269558E-007  0.6441545E+03  0.7818608E-02  0.9817810E-01
         -2   -1    0    0    0  501 -0.00000000000E+00  0.00000000000E+00  0.91686261370E+03  0.91686261370E+03  0.00000000000E+00 0.  1.
          1   -1    0    0  501    0  0.00000000000E+00 -0.00000000000E+00 -0.64161912775E+03  0.64161912775E+03  0.00000000000E+00 0. -1.
        -24    2    1    2    0    0  0.27078141068E+03 -0.52820229024E+03 -0.14435374770E+03  0.61598420533E+03  0.79235755569E+02 0.  0.
    5000000    2    1    2    0    0 -0.27078141068E+03  0.52820229024E+03  0.41959723365E+03  0.94249753612E+03  0.59993294236E+03 0.  0.
        -24    2    4    4    0    0 -0.21843907143E+03  0.91837279961E+02  0.42740222220E+03  0.49529656824E+03  0.80599733569E+02 0.  0.
         24    2    4    4    0    0 -0.52342339249E+02  0.43636501027E+03 -0.78049885501E+01  0.44720096788E+03  0.82302157676E+02 0.  0.
         11    1    3    3    0    0  0.12706216181E+03 -0.18724999672E+03 -0.27443175764E+02  0.22794841989E+03  0.00000000000E+00 0. -1.
        -12    1    3    3    0    0  0.14371924887E+03 -0.34095229351E+03 -0.11691057194E+03  0.38803578544E+03  0.00000000000E+00 0.  1.
         11    1    5    5    0    0 -0.12339051715E+03  0.91493226920E+02  0.23592405778E+03  0.28152511670E+03  0.00000000000E+00 0. -1.
        -12    1    5    5    0    0 -0.95048554279E+02  0.34405304134E+00  0.19147816442E+03  0.21377145154E+03  0.00000000000E+00 0.  1.
          4    1    6    6  502    0 -0.60191294302E+02  0.26253587845E+03 -0.33070187971E+02  0.27137007336E+03  0.00000000000E+00 0. -1.
         -1    1    6    6    0  502  0.78489550533E+01  0.17382913182E+03  0.25265199421E+02  0.17583089452E+03  0.00000000000E+00 0.  1.
<mgrwt>
<rscale>  0 0.64415449E+03</rscale>
<asrwt>0</asrwt>
<pdfrwt beam="1">  1        1 0.98710635E-01 0.64415449E+03</pdfrwt>
<pdfrwt beam="2">  1       -2 0.14105579E+00 0.64415449E+03</pdfrwt>
<totfact> 0.98929433E+00</totfact>
</mgrwt>
</event>
<event>
12    3  0.2269558E-007  0.6295686E+03  0.7818608E-02  0.9845891E-01
         -2   -1    0    0    0  501 -0.00000000000E+00  0.00000000000E+00  0.54897513320E+03  0.54897513320E+03  0.00000000000E+00 0.  1.
          1   -1    0    0  501    0  0.00000000000E+00 -0.00000000000E+00 -0.83527461415E+03  0.83527461415E+03  0.00000000000E+00 0. -1.
        -24    2    1    2    0    0 -0.50498239228E+03  0.17807021666E+03 -0.19319239281E+03  0.57468747032E+03  0.78906079217E+02 0.  0.
    5000000    2    1    2    0    0  0.50498239228E+03 -0.17807021666E+03 -0.93107088148E+02  0.80956227703E+03  0.60000494327E+03 0.  0.
        -24    2    4    4    0    0  0.24513616109E+03 -0.33817723672E+03 -0.20814899141E+03  0.47354917602E+03  0.80419143082E+02 0.  0.
         24    2    4    4    0    0  0.25984623119E+03  0.16010702007E+03  0.11504190326E+03  0.33601310101E+03  0.80720770598E+02 0.  0.
         11    1    5    5    0    0  0.16357796711E+03 -0.23201737575E+03 -0.18180607061E+03  0.33711016194E+03  0.00000000000E+00 0. -1.
        -12    1    5    5    0    0  0.81558193975E+02 -0.10615986097E+03 -0.26342920801E+02  0.13643901408E+03  0.00000000000E+00 0.  1.
         13    1    3    3    0    0 -0.31004379781E+03  0.10320595186E+03 -0.77005907852E+02  0.33572091818E+03  0.00000000000E+00 0. -1.
        -14    1    3    3    0    0 -0.19493859447E+03  0.74864264800E+02 -0.11618648496E+03  0.23896655214E+03  0.00000000000E+00 0.  1.
          4    1    6    6  502    0  0.14583633909E+03  0.10077452192E+03  0.10739362427E+03  0.20726102528E+03  0.00000000000E+00 0. -1.
         -3    1    6    6    0  502  0.11400989210E+03  0.59332498141E+02  0.76482789933E+01  0.12875207572E+03  0.00000000000E+00 0.  1.
<mgrwt>
<rscale>  0 0.62956859E+03</rscale>
<asrwt>0</asrwt>
<pdfrwt beam="1">  1        1 0.12850379E+00 0.62956859E+03</pdfrwt>
<pdfrwt beam="2">  1       -2 0.84457713E-01 0.62956859E+03</pdfrwt>
<totfact> 0.22841992E+01</totfact>
</mgrwt>
</event>
<event>
12    3  0.2269558E-007  0.6572235E+03  0.7818608E-02  0.9793318E-01
         -2   -1    0    0    0  501 -0.00000000000E+00  0.00000000000E+00  0.81133332648E+03  0.81133332648E+03  0.00000000000E+00 0.  1.
          1   -1    0    0  501    0  0.00000000000E+00 -0.00000000000E+00 -0.59755336483E+03  0.59755336483E+03  0.00000000000E+00 0. -1.
        -24    2    1    2    0    0  0.50507464611E+03  0.24759350885E+03  0.48527311216E+02  0.57001213786E+03  0.78460140246E+02 0.  0.
    5000000    2    1    2    0    0 -0.50507464611E+03 -0.24759350885E+03  0.16525265043E+03  0.83887455345E+03  0.59999927848E+03 0.  0.
        -24    2    4    4    0    0 -0.74972591204E+02 -0.30159639682E+03 -0.84062002422E+02  0.33195390209E+03  0.80905481014E+02 0.  0.
         24    2    4    4    0    0 -0.43010205491E+03  0.54002887972E+02  0.24931465286E+03  0.50692065135E+03  0.83106324044E+02 0.  0.
         11    1    3    3    0    0  0.14077592001E+03  0.40598809451E+02 -0.10436142890E+02  0.14688443097E+03  0.00000000000E+00 0. -1.
        -12    1    3    3    0    0  0.36429872610E+03  0.20699469940E+03  0.58963454106E+02  0.42312770689E+03  0.00000000000E+00 0.  1.
         11    1    5    5    0    0 -0.63501058244E+01 -0.18027796413E+02 -0.29486894793E+02  0.35139753158E+02  0.00000000000E+00 0. -1.
        -12    1    5    5    0    0 -0.68622485380E+02 -0.28356860041E+03 -0.54575107630E+02  0.29681414894E+03  0.00000000000E+00 0.  1.
          4    1    6    6  502    0 -0.17113284539E+02  0.15840523601E+02  0.29242192995E+02  0.37401771974E+02  0.00000000000E+00 0. -1.
         -3    1    6    6    0  502 -0.41298877037E+03  0.38162364371E+02  0.22007245986E+03  0.46951887938E+03  0.00000000000E+00 0.  1.
<mgrwt>
<rscale>  0 0.65722353E+03</rscale>
<asrwt>0</asrwt>
<pdfrwt beam="1">  1        1 0.91931287E-01 0.65722353E+03</pdfrwt>
<pdfrwt beam="2">  1       -2 0.12482051E+00 0.65722353E+03</pdfrwt>
<totfact> 0.14936159E+01</totfact>
</mgrwt>
</event>
<event>
12    3  0.2269558E-007  0.9413409E+03  0.7818608E-02  0.9375329E-01
          1   -1    0    0  501    0  0.00000000000E+00  0.00000000000E+00  0.47550577723E+04  0.47550577723E+04  0.00000000000E+00 0. -1.
         -2   -1    0    0    0  501 -0.00000000000E+00 -0.00000000000E+00 -0.30385958281E+03  0.30385958281E+03  0.00000000000E+00 0.  1.
        -24    2    1    2    0    0 -0.74977475146E+03  0.41441931256E+03  0.55266562911E+03  0.10225347166E+04  0.78945579245E+02 0.  0.
    5000000    2    1    2    0    0  0.74977475146E+03 -0.41441931256E+03  0.38985325604E+04  0.40363826386E+04  0.59993594298E+03 0.  0.
        -24    2    4    4    0    0  0.23581995194E+03 -0.44895392332E+03  0.16357396171E+04  0.17143249335E+04  0.78071811993E+02 0.  0.
         24    2    4    4    0    0  0.51395479952E+03  0.34534610752E+02  0.22627929433E+04  0.23220577050E+04  0.79861791887E+02 0.  0.
         11    1    3    3    0    0 -0.23159857119E+03  0.13893163006E+03  0.13287028494E+03  0.30098905068E+03  0.00000000000E+00 0. -1.
        -12    1    3    3    0    0 -0.51817618028E+03  0.27548768250E+03  0.41979534417E+03  0.72154566592E+03  0.00000000000E+00 0.  1.
         11    1    5    5    0    0  0.18044541523E+03 -0.36797889987E+03  0.12135197313E+04  0.12808587576E+04  0.00000000000E+00 0. -1.
        -12    1    5    5    0    0  0.55374536719E+02 -0.80975023449E+02  0.42221988573E+03  0.43346617590E+03  0.00000000000E+00 0.  1.
          4    1    6    6  502    0  0.10006834277E+03  0.27855116539E+02  0.35559512246E+03  0.37045576235E+03  0.00000000000E+00 0. -1.
         -3    1    6    6    0  502  0.41388645675E+03  0.66794942128E+01  0.19071978209E+04  0.19516019427E+04  0.00000000000E+00 0.  1.
<mgrwt>
<rscale>  0 0.94134090E+03</rscale>
<asrwt>0</asrwt>
<pdfrwt beam="1">  1        1 0.73154730E+00 0.94134090E+03</pdfrwt>
<pdfrwt beam="2">  1       -2 0.46747631E-01 0.94134090E+03</pdfrwt>
<totfact> 0.71362969E-02</totfact>
</mgrwt>
</event>
<event>
12    3  0.2269558E-007  0.1013557E+04  0.7818608E-02  0.9293800E-01
         -2   -1    0    0    0  501 -0.00000000000E+00  0.00000000000E+00  0.41437575167E+03  0.41437575167E+03  0.00000000000E+00 0.  1.
          1   -1    0    0  501    0  0.00000000000E+00 -0.00000000000E+00 -0.25265519178E+04  0.25265519178E+04  0.00000000000E+00 0. -1.
        -24    2    1    2    0    0  0.61478869660E+03 -0.70209772736E+03 -0.98883720540E+03  0.13620589801E+04  0.80618150106E+02 0.  0.
    5000000    2    1    2    0    0 -0.61478869660E+03  0.70209772736E+03 -0.11233389608E+04  0.15788686894E+04  0.60002463074E+03 0.  0.
        -24    2    4    4    0    0  0.80413086863E+02  0.19983558645E+03 -0.36411526001E+03  0.43053091125E+03  0.79852469084E+02 0.  0.
         24    2    4    4    0    0 -0.69520178346E+03  0.50226214091E+03 -0.75922370074E+03  0.11483377782E+04  0.81769475389E+02 0.  0.
         13    1    3    3    0    0  0.33153631643E+03 -0.43129633855E+03 -0.54639204600E+03  0.77102342941E+03  0.00000000000E+00 0. -1.
        -14    1    3    3    0    0  0.28325238017E+03 -0.27080138881E+03 -0.44244515940E+03  0.59103555065E+03  0.00000000000E+00 0.  1.
         13    1    5    5    0    0  0.45148545449E+02  0.25530267731E+02 -0.79405543458E+02  0.94844219953E+02  0.00000000000E+00 0. -1.
        -14    1    5    5    0    0  0.35264541414E+02  0.17430531872E+03 -0.28470971656E+03  0.33568669130E+03  0.00000000000E+00 0.  1.
          2    1    6    6  502    0 -0.30224336030E+03  0.26866536771E+03 -0.35421597699E+03  0.53758821323E+03  0.00000000000E+00 0. -1.
         -1    1    6    6    0  502 -0.39295842317E+03  0.23359677320E+03 -0.40500772375E+03  0.61074956495E+03  0.00000000000E+00 0.  1.
<mgrwt>
<rscale>  0 0.10135568E+04</rscale>
<asrwt>0</asrwt>
<pdfrwt beam="1">  1        1 0.38870030E+00 0.10135568E+04</pdfrwt>
<pdfrwt beam="2">  1       -2 0.63750115E-01 0.10135568E+04</pdfrwt>
<totfact> 0.26325687E+00</totfact>
</mgrwt>
</event>
<event>
12    3  0.2269558E-007  0.5683216E+03  0.7818608E-02  0.9973400E-01
          1   -1    0    0  501    0  0.00000000000E+00  0.00000000000E+00  0.82071597125E+03  0.82071597125E+03  0.00000000000E+00 0. -1.
         -2   -1    0    0    0  501 -0.00000000000E+00 -0.00000000000E+00 -0.49764239620E+03  0.49764239620E+03  0.00000000000E+00 0.  1.
        -24    2    1    2    0    0  0.20086525780E+03  0.36180287076E+03  0.40530924398E+03  0.58474347198E+03  0.80007347724E+02 0.  0.
    5000000    2    1    2    0    0 -0.20086525780E+03 -0.36180287076E+03 -0.82235668933E+02  0.73361489547E+03  0.60014993170E+03 0.  0.
        -24    2    4    4    0    0  0.16599259239E+03 -0.29096231369E+03  0.26670885878E+01  0.34273773093E+03  0.72452951117E+02 0.  0.
         24    2    4    4    0    0 -0.36685785019E+03 -0.70840557066E+02 -0.84902757521E+02  0.39087716453E+03  0.77287856401E+02 0.  0.
         13    1    5    5    0    0  0.56046669349E+02 -0.16466364839E+03  0.16477283243E+02  0.17471933811E+03  0.00000000000E+00 0. -1.
        -14    1    5    5    0    0  0.10994592304E+03 -0.12629866530E+03 -0.13810194655E+02  0.16801839282E+03  0.00000000000E+00 0.  1.
         13    1    3    3    0    0  0.10168179711E+03  0.21004472525E+03  0.27929276046E+03  0.36395387141E+03  0.00000000000E+00 0. -1.
        -14    1    3    3    0    0  0.99183460687E+02  0.15175814550E+03  0.12601648352E+03  0.22078960057E+03  0.00000000000E+00 0.  1.
          2    1    6    6  502    0 -0.90738692024E+02 -0.50215855437E+02 -0.10952736154E+02  0.10428377053E+03  0.00000000000E+00 0. -1.
         -1    1    6    6    0  502 -0.27611915817E+03 -0.20624701628E+02 -0.73950021366E+02  0.28659339400E+03  0.00000000000E+00 0.  1.
<mgrwt>
<rscale>  0 0.56832162E+03</rscale>
<asrwt>0</asrwt>
<pdfrwt beam="1">  1        1 0.12626400E+00 0.56832162E+03</pdfrwt>
<pdfrwt beam="2">  1       -2 0.76560369E-01 0.56832162E+03</pdfrwt>
<totfact> 0.29499856E+01</totfact>
</mgrwt>
</event>
<event>
12    3  0.2269558E-007  0.6238765E+03  0.7818608E-02  0.9857072E-01
          1   -1    0    0  501    0  0.00000000000E+00  0.00000000000E+00  0.17559924753E+03  0.17559924753E+03  0.00000000000E+00 0. -1.
         -2   -1    0    0    0  501 -0.00000000000E+00 -0.00000000000E+00 -0.23218814263E+04  0.23218814263E+04  0.00000000000E+00 0.  1.
        -24    2    1    2    0    0 -0.22368635299E+03  0.43841424622E+03 -0.91260918598E+03  0.10399652718E+04  0.80184814796E+02 0.  0.
    5000000    2    1    2    0    0  0.22368635299E+03 -0.43841424622E+03 -0.12336729928E+04  0.14575154020E+04  0.60013286704E+03 0.  0.
        -24    2    4    4    0    0  0.13785758596E+02 -0.51629496937E+03 -0.70401901325E+03  0.87686030188E+03  0.80564728391E+02 0.  0.
         24    2    4    4    0    0  0.20990059439E+03  0.77880723158E+02 -0.52965397958E+03  0.58065510014E+03  0.80643292757E+02 0.  0.
         11    1    5    5    0    0 -0.27512481329E+02 -0.21411000698E+03 -0.25578978307E+03  0.33470650552E+03  0.00000000000E+00 0. -1.
        -12    1    5    5    0    0  0.41298239925E+02 -0.30218496240E+03 -0.44822923018E+03  0.54215379636E+03  0.00000000000E+00 0.  1.
         13    1    3    3    0    0 -0.11309558391E+03  0.17542079612E+03 -0.31685442020E+03  0.37942033474E+03  0.00000000000E+00 0. -1.
        -14    1    3    3    0    0 -0.11059076908E+03  0.26299345009E+03 -0.59575476578E+03  0.66054493711E+03  0.00000000000E+00 0.  1.
          2    1    6    6  502    0  0.76155389465E+02  0.61969878932E+02 -0.16603317419E+03  0.19289096446E+03  0.00000000000E+00 0. -1.
         -1    1    6    6    0  502  0.13374520493E+03  0.15910844226E+02 -0.36362080539E+03  0.38776413568E+03  0.00000000000E+00 0.  1.
<mgrwt>
<rscale>  0 0.62387648E+03</rscale>
<asrwt>0</asrwt>
<pdfrwt beam="1">  1        1 0.27015269E-01 0.62387648E+03</pdfrwt>
<pdfrwt beam="2">  1       -2 0.35721252E+00 0.62387648E+03</pdfrwt>
<totfact> 0.23215623E+00</totfact>
</mgrwt>
</event>
<event>
12    3  0.2269558E-007  0.9694918E+03  0.7818608E-02  0.9342653E-01
         -2   -1    0    0    0  501 -0.00000000000E+00  0.00000000000E+00  0.10809956007E+04  0.10809956007E+04  0.00000000000E+00 0.  1.
          1   -1    0    0  501    0  0.00000000000E+00 -0.00000000000E+00 -0.13992739048E+04  0.13992739048E+04  0.00000000000E+00 0. -1.
        -24    2    1    2    0    0  0.89552604857E+03  0.27613422257E+03 -0.83059232111E+03  0.12551825116E+04  0.85921597312E+02 0.  0.
    5000000    2    1    2    0    0 -0.89552604857E+03 -0.27613422257E+03  0.51231401699E+03  0.12250869939E+04  0.60012955116E+03 0.  0.
        -24    2    4    4    0    0 -0.40045177177E+03  0.42150552714E+02 -0.41956168609E+02  0.41248930256E+03  0.79049440433E+02 0.  0.
         24    2    4    4    0    0 -0.49507427680E+03 -0.31828477528E+03  0.55427018560E+03  0.81259769138E+03  0.81828061600E+02 0.  0.
         11    1    3    3    0    0  0.18987089733E+03  0.30840727537E+02 -0.14109045166E+03  0.23855528432E+03  0.00000000000E+00 0. -1.
        -12    1    3    3    0    0  0.70565515124E+03  0.24529349503E+03 -0.68950186945E+03  0.10166272272E+04  0.00000000000E+00 0.  1.
         13    1    5    5    0    0 -0.33920525948E+02  0.23882070500E+02 -0.16419583716E+02  0.44615671029E+02  0.00000000000E+00 0. -1.
        -14    1    5    5    0    0 -0.36653124583E+03  0.18268482214E+02 -0.25536584893E+02  0.36787363153E+03  0.00000000000E+00 0.  1.
          4    1    6    6  502    0 -0.28456651520E+03 -0.21465580798E+03  0.29281264855E+03  0.46129650402E+03  0.00000000000E+00 0. -1.
         -3    1    6    6    0  502 -0.21050776160E+03 -0.10362896730E+03  0.26145753705E+03  0.35130118736E+03  0.00000000000E+00 0.  1.
<mgrwt>
<rscale>  0 0.96949184E+03</rscale>
<asrwt>0</asrwt>
<pdfrwt beam="1">  1        1 0.21527291E+00 0.96949184E+03</pdfrwt>
<pdfrwt beam="2">  1       -2 0.16630702E+00 0.96949184E+03</pdfrwt>
<totfact> 0.15303792E+00</totfact>
</mgrwt>
</event>
<event>
12    3  0.2269558E-007  0.7890096E+03  0.7818608E-02  0.9576063E-01
          1   -1    0    0  501    0  0.00000000000E+00  0.00000000000E+00  0.59481928543E+03  0.59481928543E+03  0.00000000000E+00 0. -1.
         -2   -1    0    0    0  501 -0.00000000000E+00 -0.00000000000E+00 -0.18498130166E+04  0.18498130166E+04  0.00000000000E+00 0.  1.
        -24    2    1    2    0    0  0.23466279825E+03 -0.70143312002E+03  0.13966040369E+03  0.75582286339E+03  0.68469859969E+02 0.  0.
    5000000    2    1    2    0    0 -0.23466279825E+03  0.70143312002E+03 -0.13946541348E+04  0.16888094386E+04  0.59995175921E+03 0.  0.
        -24    2    4    4    0    0  0.96574215719E+02  0.15799848702E+03 -0.76157049735E+03  0.78777047799E+03  0.79388931886E+02 0.  0.
         24    2    4    4    0    0 -0.33123701397E+03  0.54343463300E+03 -0.63308363748E+03  0.90103896063E+03  0.77699142517E+02 0.  0.
         13    1    3    3    0    0  0.19416342368E+03 -0.60116331988E+03  0.14263112710E+03  0.64764219341E+03  0.00000000000E+00 0. -1.
        -14    1    3    3    0    0  0.40499374564E+02 -0.10026980014E+03 -0.29707234126E+01  0.10818066999E+03  0.00000000000E+00 0.  1.
         13    1    5    5    0    0  0.96034267602E+02  0.98395028515E+02 -0.60010661417E+03  0.61565583775E+03  0.00000000000E+00 0. -1.
        -14    1    5    5    0    0  0.53994811618E+00  0.59603458504E+02 -0.16146388318E+03  0.17211464023E+03  0.00000000000E+00 0.  1.
          4    1    6    6  502    0 -0.28270049463E+03  0.40154497172E+03 -0.47778056288E+03  0.68515122436E+03  0.00000000000E+00 0. -1.
         -3    1    6    6    0  502 -0.48536519338E+02  0.14188966128E+03 -0.15530307461E+03  0.21588773627E+03  0.00000000000E+00 0.  1.
<mgrwt>
<rscale>  0 0.78900957E+03</rscale>
<asrwt>0</asrwt>
<pdfrwt beam="1">  1        1 0.91510660E-01 0.78900957E+03</pdfrwt>
<pdfrwt beam="2">  1       -2 0.28458662E+00 0.78900957E+03</pdfrwt>
<totfact> 0.12444032E+00</totfact>
</mgrwt>
</event>
<event>
12    3  0.2269558E-007  0.8851427E+03  0.7818608E-02  0.9444347E-01
          1   -1    0    0  501    0  0.00000000000E+00  0.00000000000E+00  0.28155114538E+04  0.28155114538E+04  0.00000000000E+00 0. -1.
         -4   -1    0    0    0  501 -0.00000000000E+00 -0.00000000000E+00 -0.40834462154E+03  0.40834462154E+03  0.00000000000E+00 0.  1.
        -24    2    1    2    0    0 -0.81206462697E+03 -0.17234628734E+03  0.19125246793E+04  0.20863987240E+04  0.78465187614E+02 0.  0.
    5000000    2    1    2    0    0  0.81206462697E+03  0.17234628734E+03  0.49464215297E+03  0.11374573513E+04  0.59998847102E+03 0.  0.
        -24    2    4    4    0    0  0.80963898413E+03  0.22954190134E+03  0.26143389116E+03  0.88469079042E+03  0.78264590443E+02 0.  0.
         24    2    4    4    0    0  0.24256428454E+01 -0.57195613994E+02  0.23320826180E+03  0.25276656086E+03  0.78915264133E+02 0.  0.
         13    1    3    3    0    0 -0.36425501339E+03 -0.62416994218E+02  0.94219260731E+03  0.10120792979E+04  0.00000000000E+00 0. -1.
        -14    1    3    3    0    0 -0.44780961358E+03 -0.10992929313E+03  0.97033207195E+03  0.10743194261E+04  0.00000000000E+00 0.  1.
         13    1    5    5    0    0  0.44129793919E+03  0.16061984315E+03  0.16481937446E+03  0.49770275401E+03  0.00000000000E+00 0. -1.
        -14    1    5    5    0    0  0.36834104494E+03  0.68922058183E+02  0.96614516704E+02  0.38698803641E+03  0.00000000000E+00 0.  1.
          4    1    6    6  502    0  0.39287574829E+02 -0.28121134611E+02  0.14507463869E+03  0.15290834686E+03  0.00000000000E+00 0. -1.
         -1    1    6    6    0  502 -0.36861931984E+02 -0.29074479383E+02  0.88133623111E+02  0.99858214001E+02  0.00000000000E+00 0.  1.
<mgrwt>
<rscale>  0 0.88514269E+03</rscale>
<asrwt>0</asrwt>
<pdfrwt beam="1">  1        1 0.43315560E+00 0.88514269E+03</pdfrwt>
<pdfrwt beam="2">  1       -4 0.62822251E-01 0.88514269E+03</pdfrwt>
<totfact> 0.96628718E-01</totfact>
</mgrwt>
</event>
<event>
12    3  0.2269558E-007  0.5650314E+03  0.7818608E-02  0.9980734E-01
          1   -1    0    0  501    0  0.00000000000E+00  0.00000000000E+00  0.37946511111E+03  0.37946511111E+03  0.00000000000E+00 0. -1.
         -2   -1    0    0    0  501 -0.00000000000E+00 -0.00000000000E+00 -0.10348133321E+04  0.10348133321E+04  0.00000000000E+00 0.  1.
        -24    2    1    2    0    0  0.45930918473E+03 -0.11580642217E+03 -0.33479805925E+03  0.58529133372E+03  0.78103458705E+02 0.  0.
    5000000    2    1    2    0    0 -0.45930918473E+03  0.11580642217E+03 -0.32055016172E+03  0.82898710946E+03  0.60007596760E+03 0.  0.
        -24    2    4    4    0    0  0.44667882061E+02 -0.95882383746E+02 -0.23561281776E+03  0.27012053522E+03  0.79139449395E+02 0.  0.
         24    2    4    4    0    0 -0.50397706679E+03  0.21168880591E+03 -0.84937343954E+02  0.55886657424E+03  0.79450997558E+02 0.  0.
         11    1    5    5    0    0  0.89515172920E+01 -0.20052943687E+02 -0.14512176176E+03  0.14677389397E+03  0.00000000000E+00 0. -1.
        -12    1    5    5    0    0  0.35716364769E+02 -0.75829440059E+02 -0.90491056001E+02  0.12334664125E+03  0.00000000000E+00 0.  1.
         11    1    3    3    0    0  0.16345939959E+03 -0.42351821406E+02 -0.74976240805E+02  0.18475413061E+03  0.00000000000E+00 0. -1.
        -12    1    3    3    0    0  0.29584978513E+03 -0.73454600763E+02 -0.25982181845E+03  0.40053720311E+03  0.00000000000E+00 0.  1.
          2    1    6    6  502    0 -0.90963428053E+02  0.66978275018E+02  0.55069795936E+00  0.11296343584E+03  0.00000000000E+00 0. -1.
         -1    1    6    6    0  502 -0.41301363873E+03  0.14471053090E+03 -0.85488041913E+02  0.44590313841E+03  0.00000000000E+00 0.  1.
<mgrwt>
<rscale>  0 0.56503140E+03</rscale>
<asrwt>0</asrwt>
<pdfrwt beam="1">  1        1 0.58379248E-01 0.56503140E+03</pdfrwt>
<pdfrwt beam="2">  1       -2 0.15920205E+00 0.56503140E+03</pdfrwt>
<totfact> 0.14913492E+01</totfact>
</mgrwt>
</event>
<event>
12    3  0.2269558E-007  0.8936413E+03  0.7818608E-02  0.9433565E-01
         -2   -1    0    0    0  501 -0.00000000000E+00  0.00000000000E+00  0.46920985086E+03  0.46920985086E+03  0.00000000000E+00 0.  1.
          1   -1    0    0  501    0  0.00000000000E+00 -0.00000000000E+00 -0.25317155868E+04  0.25317155868E+04  0.00000000000E+00 0. -1.
        -24    2    1    2    0    0 -0.57063966084E+03  0.64064831225E+03 -0.23221531364E+03  0.89237940785E+03  0.79731882838E+02 0.  0.
    5000000    2    1    2    0    0  0.57063966084E+03 -0.64064831225E+03 -0.18302904223E+04  0.21085460299E+04  0.59995287100E+03 0.  0.
        -24    2    4    4    0    0  0.42481687873E+03 -0.22772057887E+03 -0.47283505028E+03  0.68000089458E+03  0.80636154173E+02 0.  0.
         24    2    4    4    0    0  0.14582278210E+03 -0.41292773339E+03 -0.13574553721E+04  0.14285451353E+04  0.79262346784E+02 0.  0.
         13    1    3    3    0    0 -0.82898721227E+02  0.82670371878E+02 -0.59902044066E+02  0.13150985990E+03  0.00000000000E+00 0. -1.
        -14    1    3    3    0    0 -0.48774093961E+03  0.55797794038E+03 -0.17231326957E+03  0.76086954795E+03  0.00000000000E+00 0.  1.
         13    1    5    5    0    0  0.17815327071E+03 -0.64530444934E+02 -0.22478914811E+03  0.29399477426E+03  0.00000000000E+00 0. -1.
        -14    1    5    5    0    0  0.24666360803E+03 -0.16319013393E+03 -0.24804590217E+03  0.38600612031E+03  0.00000000000E+00 0.  1.
          2    1    6    6  502    0  0.12992722680E+03 -0.26552413815E+03 -0.85405021195E+03  0.90376209079E+03  0.00000000000E+00 0. -1.
         -3    1    6    6    0  502  0.15895555308E+02 -0.14740359524E+03 -0.50340516011E+03  0.52478304449E+03  0.00000000000E+00 0.  1.
<mgrwt>
<rscale>  0 0.89364129E+03</rscale>
<asrwt>0</asrwt>
<pdfrwt beam="1">  1        1 0.38949469E+00 0.89364129E+03</pdfrwt>
<pdfrwt beam="2">  1       -2 0.72186134E-01 0.89364129E+03</pdfrwt>
<totfact> 0.20272346E+00</totfact>
</mgrwt>
</event>
<event>
12    3  0.2269558E-007  0.6634609E+03  0.7818608E-02  0.9781844E-01
          1   -1    0    0  501    0  0.00000000000E+00  0.00000000000E+00  0.13071041109E+04  0.13071041109E+04  0.00000000000E+00 0. -1.
         -2   -1    0    0    0  501 -0.00000000000E+00 -0.00000000000E+00 -0.39983154966E+03  0.39983154966E+03  0.00000000000E+00 0.  1.
        -24    2    1    2    0    0 -0.54692951672E+03 -0.82112000356E+02  0.11720294617E+03  0.57109608813E+03  0.80869861077E+02 0.  0.
    5000000    2    1    2    0    0  0.54692951672E+03  0.82112000356E+02  0.79006961502E+03  0.11358395724E+04  0.60003938267E+03 0.  0.
        -24    2    4    4    0    0 -0.68779543903E+02  0.13133245817E+03  0.65976670724E+02  0.18077997443E+03  0.79684614873E+02 0.  0.
         24    2    4    4    0    0  0.61570906062E+03 -0.49220457814E+02  0.72409294430E+03  0.95505959795E+03  0.79422558899E+02 0.  0.
         11    1    5    5    0    0  0.49231933575E+01  0.19872245532E+02 -0.14229429593E+02  0.24932321229E+02  0.00000000000E+00 0. -1.
        -12    1    5    5    0    0 -0.73702737261E+02  0.11146021264E+03  0.80206100317E+02  0.15584765320E+03  0.00000000000E+00 0.  1.
         11    1    3    3    0    0 -0.17030874333E+03 -0.12196107571E+02  0.80652056057E+00  0.17074678202E+03  0.00000000000E+00 0. -1.
        -12    1    3    3    0    0 -0.37662077339E+03 -0.69915892785E+02  0.11639642561E+03  0.40034930611E+03  0.00000000000E+00 0.  1.
          4    1    6    6  502    0  0.55554127047E+03 -0.32099756892E+02  0.61565951428E+03  0.82987537324E+03  0.00000000000E+00 0. -1.
         -3    1    6    6    0  502  0.60167790156E+02 -0.17120700922E+02  0.10843343001E+03  0.12518422471E+03  0.00000000000E+00 0.  1.
<mgrwt>
<rscale>  0 0.66346088E+03</rscale>
<asrwt>0</asrwt>
<pdfrwt beam="1">  1        1 0.20109294E+00 0.66346088E+03</pdfrwt>
<pdfrwt beam="2">  1       -2 0.61512547E-01 0.66346088E+03</pdfrwt>
<totfact> 0.20014313E+01</totfact>
</mgrwt>
</event>
<event>
12    3  0.2269558E-007  0.7193281E+03  0.7818608E-02  0.9684738E-01
          1   -1    0    0  501    0  0.00000000000E+00  0.00000000000E+00  0.15229248455E+04  0.15229248455E+04  0.00000000000E+00 0. -1.
         -2   -1    0    0    0  501 -0.00000000000E+00 -0.00000000000E+00 -0.37065719175E+03  0.37065719175E+03  0.00000000000E+00 0.  1.
        -24    2    1    2    0    0  0.46041422888E+03  0.42262711384E+03  0.39759266505E+03  0.74467185149E+03  0.76559124884E+02 0.  0.
    5000000    2    1    2    0    0 -0.46041422888E+03 -0.42262711384E+03  0.75467498875E+03  0.11489101858E+04  0.59988777025E+03 0.  0.
        -24    2    4    4    0    0 -0.18794173177E+03  0.96305808207E+02  0.54524040509E+02  0.23250342474E+03  0.80548546171E+02 0.  0.
         24    2    4    4    0    0 -0.27247249711E+03 -0.51893292204E+03  0.70015094824E+03  0.91640676106E+03  0.77829057087E+02 0.  0.
         13    1    3    3    0    0  0.31176641851E+03  0.30363811989E+03  0.31441623131E+03  0.53689102626E+03  0.00000000000E+00 0. -1.
        -14    1    3    3    0    0  0.14864781036E+03  0.11898899395E+03  0.83176433735E+02  0.20778082524E+03  0.00000000000E+00 0.  1.
         13    1    5    5    0    0 -0.15350016858E+03  0.10677497523E+03  0.31093488403E+02  0.18955210922E+03  0.00000000000E+00 0. -1.
        -14    1    5    5    0    0 -0.34441563185E+02 -0.10469167025E+02  0.23430552106E+02  0.42951315519E+02  0.00000000000E+00 0.  1.
          2    1    6    6  502    0 -0.21159440044E+02 -0.94302361609E+02  0.13714680876E+03  0.16777933264E+03  0.00000000000E+00 0. -1.
         -1    1    6    6    0  502 -0.25131305707E+03 -0.42463056043E+03  0.56300413949E+03  0.74862742842E+03  0.00000000000E+00 0.  1.
<mgrwt>
<rscale>  0 0.71932812E+03</rscale>
<asrwt>0</asrwt>
<pdfrwt beam="1">  1        1 0.23429613E+00 0.71932812E+03</pdfrwt>
<pdfrwt beam="2">  1       -2 0.57024184E-01 0.71932812E+03</pdfrwt>
<totfact> 0.16522533E+01</totfact>
</mgrwt>
</event>
<event>
12    3  0.2269558E-007  0.1708042E+04  0.7818608E-02  0.8756791E-01
         -2   -1    0    0    0  501 -0.00000000000E+00  0.00000000000E+00  0.92565570058E+03  0.92565570058E+03  0.00000000000E+00 0.  1.
          1   -1    0    0  501    0  0.00000000000E+00 -0.00000000000E+00 -0.36899202886E+04  0.36899202886E+04  0.00000000000E+00 0. -1.
        -24    2    1    2    0    0 -0.16018570646E+04  0.51525013678E+03 -0.21392071458E+04  0.27229107902E+04  0.81284686284E+02 0.  0.
    5000000    2    1    2    0    0  0.16018570646E+04 -0.51525013678E+03 -0.62505744224E+03  0.18926651990E+04  0.60004665686E+03 0.  0.
        -24    2    4    4    0    0  0.11398350151E+04 -0.17714715034E+03 -0.62500764341E+03  0.13143514269E+04  0.79247363809E+02 0.  0.
         24    2    4    4    0    0  0.46202204952E+03 -0.33810298644E+03 -0.49798835820E-01  0.57831377204E+03  0.81662799165E+02 0.  0.
         11    1    3    3    0    0 -0.14370665648E+04  0.43890729037E+03 -0.19272742065E+04  0.24438055954E+04  0.00000000000E+00 0. -1.
        -12    1    3    3    0    0 -0.16479049980E+03  0.76342846410E+02 -0.21193293926E+03  0.27910519480E+03  0.00000000000E+00 0.  1.
         11    1    5    5    0    0  0.42070758957E+03 -0.60638140587E+02 -0.27381358457E+03  0.50561421965E+03  0.00000000000E+00 0. -1.
        -12    1    5    5    0    0  0.71912742550E+03 -0.11650900975E+03 -0.35119405884E+03  0.80873720727E+03  0.00000000000E+00 0.  1.
          2    1    6    6  502    0  0.14741894555E+03 -0.15674988928E+03  0.68544823804E+00  0.21518211621E+03  0.00000000000E+00 0. -1.
         -1    1    6    6    0  502  0.31460310397E+03 -0.18135309716E+03 -0.73524707386E+00  0.36313165583E+03  0.00000000000E+00 0.  1.
<mgrwt>
<rscale>  0 0.17080423E+04</rscale>
<asrwt>0</asrwt>
<pdfrwt beam="1">  1        1 0.56768005E+00 0.17080423E+04</pdfrwt>
<pdfrwt beam="2">  1       -2 0.14240857E+00 0.17080423E+04</pdfrwt>
<totfact> 0.49394050E-02</totfact>
</mgrwt>
</event>
<event>
12    3  0.2269558E-007  0.1203159E+04  0.7818608E-02  0.9110096E-01
         -4   -1    0    0    0  501 -0.00000000000E+00  0.00000000000E+00  0.66498173721E+03  0.66498173721E+03  0.00000000000E+00 0.  1.
          3   -1    0    0  501    0  0.00000000000E+00 -0.00000000000E+00 -0.27743640544E+04  0.27743640544E+04  0.00000000000E+00 0. -1.
        -24    2    1    2    0    0 -0.76002050922E+03 -0.90713440852E+03 -0.16556799593E+04  0.20370917023E+04  0.89120515430E+02 0.  0.
    5000000    2    1    2    0    0  0.76002050922E+03  0.90713440852E+03 -0.45370235790E+03  0.14022540894E+04  0.59995557503E+03 0.  0.
        -24    2    4    4    0    0  0.35564011817E+03  0.62936555901E+03  0.32496426960E+01  0.72681691109E+03  0.75308442771E+02 0.  0.
         24    2    4    4    0    0  0.40438039105E+03  0.27776884951E+03 -0.45695200060E+03  0.67543717827E+03  0.82043991313E+02 0.  0.
         13    1    5    5    0    0  0.62915013877E+02  0.77657634682E+02  0.20488714847E+02  0.10202350039E+03  0.00000000000E+00 0. -1.
        -14    1    5    5    0    0  0.29272510429E+03  0.55170792433E+03 -0.17239072151E+02  0.62479341071E+03  0.00000000000E+00 0.  1.
         13    1    3    3    0    0 -0.56024255577E+03 -0.61402538147E+03 -0.11242958419E+04  0.13981917002E+04  0.00000000000E+00 0. -1.
        -14    1    3    3    0    0 -0.19977795345E+03 -0.29310902706E+03 -0.53138411742E+03  0.63890000210E+03  0.00000000000E+00 0.  1.
          2    1    6    6  502    0  0.45275540477E+02  0.62642543491E+01 -0.58531384983E+02  0.74263305044E+02  0.00000000000E+00 0. -1.
         -1    1    6    6    0  502  0.35910485057E+03  0.27150459516E+03 -0.39842061562E+03  0.60117387322E+03  0.00000000000E+00 0.  1.
<mgrwt>
<rscale>  0 0.12031588E+04</rscale>
<asrwt>0</asrwt>
<pdfrwt beam="1">  1        3 0.42682524E+00 0.12031588E+04</pdfrwt>
<pdfrwt beam="2">  1       -4 0.10230488E+00 0.12031588E+04</pdfrwt>
<totfact> 0.13833084E-02</totfact>
</mgrwt>
</event>
<event>
12    3  0.2269558E-007  0.1383397E+04  0.7818608E-02  0.8965925E-01
         -2   -1    0    0    0  501 -0.00000000000E+00  0.00000000000E+00  0.18801384019E+04  0.18801384019E+04  0.00000000000E+00 0.  1.
          1   -1    0    0  501    0  0.00000000000E+00 -0.00000000000E+00 -0.11533623133E+04  0.11533623133E+04  0.00000000000E+00 0. -1.
        -24    2    1    2    0    0  0.12269562369E+04 -0.54541587931E+03 -0.95325499023E+02  0.13486468702E+04  0.82833213005E+02 0.  0.
    5000000    2    1    2    0    0 -0.12269562369E+04  0.54541587931E+03  0.82210158759E+03  0.16848538449E+04  0.59998447476E+03 0.  0.
        -24    2    4    4    0    0 -0.80883528663E+03  0.10768154426E+03  0.66149703385E+03  0.10534007657E+04  0.79151825332E+02 0.  0.
         24    2    4    4    0    0 -0.41812095023E+03  0.43773433504E+03  0.16060455374E+03  0.63145307927E+03  0.80639268017E+02 0.  0.
         13    1    5    5    0    0 -0.75173071215E+03  0.11572637845E+03  0.63044789410E+03  0.98790495769E+03  0.00000000000E+00 0. -1.
        -14    1    5    5    0    0 -0.57104574480E+02 -0.80448341837E+01  0.31049139745E+02  0.65495807977E+02  0.00000000000E+00 0.  1.
         13    1    3    3    0    0  0.35452661078E+03 -0.14536159759E+03 -0.63066911094E+02  0.38832531089E+03  0.00000000000E+00 0. -1.
        -14    1    3    3    0    0  0.87242962608E+03 -0.40005428172E+03 -0.32258587929E+02  0.96032155931E+03  0.00000000000E+00 0.  1.
          2    1    6    6  502    0 -0.28610217095E+03  0.28767380675E+03  0.14547054192E+03  0.43101316671E+03  0.00000000000E+00 0. -1.
         -1    1    6    6    0  502 -0.13201877928E+03  0.15006052829E+03  0.15134011818E+02  0.20043991256E+03  0.00000000000E+00 0.  1.
<mgrwt>
<rscale>  0 0.13833972E+04</rscale>
<asrwt>0</asrwt>
<pdfrwt beam="1">  1        1 0.17744036E+00 0.13833972E+04</pdfrwt>
<pdfrwt beam="2">  1       -2 0.28925206E+00 0.13833972E+04</pdfrwt>
<totfact> 0.35925515E-01</totfact>
</mgrwt>
</event>
<event>
12    3  0.2269558E-007  0.1025637E+04  0.7818608E-02  0.9280865E-01
         -2   -1    0    0    0  501 -0.00000000000E+00  0.00000000000E+00  0.55603321959E+03  0.55603321959E+03  0.00000000000E+00 0.  1.
          1   -1    0    0  501    0  0.00000000000E+00 -0.00000000000E+00 -0.21310483159E+04  0.21310483159E+04  0.00000000000E+00 0. -1.
        -24    2    1    2    0    0 -0.71241492019E+03 -0.70401430980E+03 -0.63606854098E+03  0.11887903747E+04  0.73947273438E+02 0.  0.
    5000000    2    1    2    0    0  0.71241492019E+03  0.70401430980E+03 -0.93894655536E+03  0.14982911608E+04  0.60007049742E+03 0.  0.
        -24    2    4    4    0    0  0.11911974031E+03  0.31232401541E+03 -0.35294411489E+02  0.34535868865E+03  0.79316613725E+02 0.  0.
         24    2    4    4    0    0  0.59329517988E+03  0.39169029439E+03 -0.90365214387E+03  0.11529324722E+04  0.85121272802E+02 0.  0.
         11    1    3    3    0    0 -0.35470602408E+03 -0.39647213506E+03 -0.35739483559E+03  0.64088812276E+03  0.00000000000E+00 0. -1.
        -12    1    3    3    0    0 -0.35770889611E+03 -0.30754217474E+03 -0.27867370539E+03  0.54790225194E+03  0.00000000000E+00 0.  1.
         13    1    5    5    0    0  0.69480729994E+02  0.16195514232E+03  0.20606860730E+02  0.17743078277E+03  0.00000000000E+00 0. -1.
        -14    1    5    5    0    0  0.49639010316E+02  0.15036887309E+03 -0.55901272219E+02  0.16792790588E+03  0.00000000000E+00 0.  1.
          4    1    6    6  502    0  0.13435653651E+03  0.62525793257E+02 -0.23319323966E+03  0.27629737739E+03  0.00000000000E+00 0. -1.
         -3    1    6    6    0  502  0.45893864337E+03  0.32916450113E+03 -0.67045890420E+03  0.87663509478E+03  0.00000000000E+00 0.  1.
<mgrwt>
<rscale>  0 0.10256369E+04</rscale>
<asrwt>0</asrwt>
<pdfrwt beam="1">  1        1 0.32785358E+00 0.10256369E+04</pdfrwt>
<pdfrwt beam="2">  1       -2 0.85543574E-01 0.10256369E+04</pdfrwt>
<totfact> 0.25443011E+00</totfact>
</mgrwt>
</event>
<event>
12    3  0.2269558E-007  0.1035009E+04  0.7818608E-02  0.9270960E-01
         -2   -1    0    0    0  501 -0.00000000000E+00  0.00000000000E+00  0.18282766302E+04  0.18282766302E+04  0.00000000000E+00 0.  1.
          1   -1    0    0  501    0  0.00000000000E+00 -0.00000000000E+00 -0.66325565286E+03  0.66325565286E+03  0.00000000000E+00 0. -1.
        -24    2    1    2    0    0 -0.46701970300E+03 -0.88025385322E+03  0.77452316087E+03  0.12645848524E+04  0.79589402671E+02 0.  0.
    5000000    2    1    2    0    0  0.46701970300E+03  0.88025385322E+03  0.39049781644E+03  0.12269474307E+04  0.59996433553E+03 0.  0.
        -24    2    4    4    0    0  0.67715032912E+02  0.22373627381E+00 -0.97075219068E+02  0.14160002441E+03  0.77727684993E+02 0.  0.
         24    2    4    4    0    0  0.39930467009E+03  0.88003011694E+03  0.48757303551E+03  0.10853474063E+04  0.79713869948E+02 0.  0.
         11    1    3    3    0    0 -0.68696157649E+02 -0.19711887518E+03  0.15395245043E+03  0.25937688799E+03  0.00000000000E+00 0. -1.
        -12    1    3    3    0    0 -0.39832354535E+03 -0.68313497804E+03  0.62057071044E+03  0.10052079644E+04  0.00000000000E+00 0.  1.
         13    1    5    5    0    0  0.11082600994E+02  0.33869271783E+02 -0.22721965939E+02  0.42263924948E+02  0.00000000000E+00 0. -1.
        -14    1    5    5    0    0  0.56632431918E+02 -0.33645535509E+02 -0.74353253129E+02  0.99336099458E+02  0.00000000000E+00 0.  1.
          2    1    6    6  502    0  0.18815535983E+03  0.50001124420E+03  0.24849779222E+03  0.58920695557E+03  0.00000000000E+00 0. -1.
         -1    1    6    6    0  502  0.21114931026E+03  0.38001887274E+03  0.23907524329E+03  0.49614045070E+03  0.00000000000E+00 0.  1.
<mgrwt>
<rscale>  0 0.10350088E+04</rscale>
<asrwt>0</asrwt>
<pdfrwt beam="1">  1        1 0.10203933E+00 0.10350088E+04</pdfrwt>
<pdfrwt beam="2">  1       -2 0.28127333E+00 0.10350088E+04</pdfrwt>
<totfact> 0.10730474E+00</totfact>
</mgrwt>
</event>
<event>
12    3  0.2269558E-007  0.1356158E+04  0.7818608E-02  0.8986180E-01
         -2   -1    0    0    0  501 -0.00000000000E+00  0.00000000000E+00  0.16303325717E+04  0.16303325717E+04  0.00000000000E+00 0.  1.
          1   -1    0    0  501    0  0.00000000000E+00 -0.00000000000E+00 -0.18840529635E+04  0.18840529635E+04  0.00000000000E+00 0. -1.
        -24    2    1    2    0    0 -0.24635752686E+03 -0.13287800184E+04 -0.11578246723E+04  0.17813886421E+04  0.80244339654E+02 0.  0.
    5000000    2    1    2    0    0  0.24635752686E+03  0.13287800184E+04  0.90410428053E+03  0.17329968932E+04  0.59960429746E+03 0.  0.
        -24    2    4    4    0    0  0.13203606067E+03  0.79583251807E+03  0.85787114852E+03  0.11802127034E+04  0.78588800700E+02 0.  0.
         24    2    4    4    0    0  0.11432146619E+03  0.53294750028E+03  0.46233132013E+02  0.55278418982E+03  0.79563951255E+02 0.  0.
         11    1    3    3    0    0 -0.21613702616E+03 -0.10254181287E+04 -0.92493618621E+03  0.13977497992E+04  0.00000000000E+00 0. -1.
        -12    1    3    3    0    0 -0.30220500699E+02 -0.30336188965E+03 -0.23288848609E+03  0.38363884281E+03  0.00000000000E+00 0.  1.
         13    1    5    5    0    0 -0.73948623779E+01  0.12967841177E+03  0.13264474692E+03  0.18564967911E+03  0.00000000000E+00 0. -1.
        -14    1    5    5    0    0  0.13943092305E+03  0.66615410631E+03  0.72522640160E+03  0.99456302426E+03  0.00000000000E+00 0.  1.
          2    1    6    6  502    0  0.78184208565E+00  0.14000478555E+03  0.31471316069E+02  0.14350050519E+03  0.00000000000E+00 0. -1.
         -1    1    6    6    0  502  0.11353962411E+03  0.39294271473E+03  0.14761815944E+02  0.40928368464E+03  0.00000000000E+00 0.  1.
<mgrwt>
<rscale>  0 0.13561579E+04</rscale>
<asrwt>0</asrwt>
<pdfrwt beam="1">  1        1 0.28985430E+00 0.13561579E+04</pdfrwt>
<pdfrwt beam="2">  1       -2 0.25082040E+00 0.13561579E+04</pdfrwt>
<totfact> 0.19033289E-01</totfact>
</mgrwt>
</event>
<event>
12    3  0.2269558E-007  0.7073073E+03  0.7818608E-02  0.9704817E-01
          1   -1    0    0  501    0  0.00000000000E+00  0.00000000000E+00  0.19736645705E+04  0.19736645705E+04  0.00000000000E+00 0. -1.
         -2   -1    0    0    0  501 -0.00000000000E+00 -0.00000000000E+00 -0.32438620579E+03  0.32438620579E+03  0.00000000000E+00 0.  1.
        -24    2    1    2    0    0 -0.29459556305E+03 -0.53036853386E+03  0.25410990740E+03  0.66266012898E+03  0.80431797354E+02 0.  0.
    5000000    2    1    2    0    0  0.29459556305E+03  0.53036853386E+03  0.13951684574E+04  0.16353906473E+04  0.59994184515E+03 0.  0.
        -24    2    4    4    0    0 -0.11340056388E+03  0.32070858536E+03  0.84560897337E+03  0.91499677916E+03  0.80317404258E+02 0.  0.
         24    2    4    4    0    0  0.40799612693E+03  0.20965994850E+03  0.54955948398E+03  0.72039386818E+03  0.80830472499E+02 0.  0.
         13    1    5    5    0    0 -0.78218820265E+02  0.11729972340E+03  0.29487874746E+03  0.32684994211E+03  0.00000000000E+00 0. -1.
        -14    1    5    5    0    0 -0.35181743613E+02  0.20340886196E+03  0.55073022590E+03  0.58814683705E+03  0.00000000000E+00 0.  1.
         13    1    3    3    0    0 -0.17867669431E+03 -0.35968031041E+03  0.13123124914E+03  0.42251263595E+03  0.00000000000E+00 0. -1.
        -14    1    3    3    0    0 -0.11591886874E+03 -0.17068822345E+03  0.12287865825E+03  0.24014749303E+03  0.00000000000E+00 0.  1.
          2    1    6    6  502    0  0.20477827578E+02  0.53050867481E+01  0.54708853128E+01  0.21849850201E+02  0.00000000000E+00 0. -1.
         -1    1    6    6    0  502  0.38751829935E+03  0.20435486176E+03  0.54408859867E+03  0.69854401798E+03  0.00000000000E+00 0.  1.
<mgrwt>
<rscale>  0 0.70730731E+03</rscale>
<asrwt>0</asrwt>
<pdfrwt beam="1">  1        1 0.30364070E+00 0.70730731E+03</pdfrwt>
<pdfrwt beam="2">  1       -2 0.49905571E-01 0.70730731E+03</pdfrwt>
<totfact> 0.10847149E+01</totfact>
</mgrwt>
</event>
<event>
12    3  0.2269558E-007  0.8622465E+03  0.7818608E-02  0.9474046E-01
         -2   -1    0    0    0  501 -0.00000000000E+00  0.00000000000E+00  0.82953314409E+03  0.82953314409E+03  0.00000000000E+00 0.  1.
          1   -1    0    0  501    0  0.00000000000E+00 -0.00000000000E+00 -0.10281323429E+04  0.10281323429E+04  0.00000000000E+00 0. -1.
        -24    2    1    2    0    0 -0.81845963440E+03 -0.94986597731E+02 -0.10061210130E+03  0.83372331755E+03  0.77930407472E+02 0.  0.
    5000000    2    1    2    0    0  0.81845963440E+03  0.94986597731E+02 -0.97987097464E+02  0.10239421694E+04  0.59996455571E+03 0.  0.
        -24    2    4    4    0    0  0.26202418473E+03  0.19229497748E+03 -0.26740270478E+03  0.42845581527E+03  0.80225602914E+02 0.  0.
         24    2    4    4    0    0  0.55643544966E+03 -0.97308379745E+02  0.16941560732E+03  0.59548635413E+03  0.82541017319E+02 0.  0.
         11    1    3    3    0    0 -0.39340474090E+03 -0.50066610928E+02 -0.94636776829E+01  0.39669070683E+03  0.00000000000E+00 0. -1.
        -12    1    3    3    0    0 -0.42505489350E+03 -0.44919986803E+02 -0.91148423617E+02  0.43703261072E+03  0.00000000000E+00 0.  1.
         13    1    5    5    0    0  0.21018336337E+03  0.10952581956E+03 -0.19402066978E+03  0.30629556264E+03  0.00000000000E+00 0. -1.
        -14    1    5    5    0    0  0.51840821363E+02  0.82769157917E+02 -0.73382035001E+02  0.12216025263E+03  0.00000000000E+00 0.  1.
          4    1    6    6  502    0  0.53415188171E+03 -0.99812488352E+02  0.14515651351E+03  0.56245104585E+03  0.00000000000E+00 0. -1.
         -3    1    6    6    0  502  0.22283567955E+02  0.25041086068E+01  0.24259093807E+02  0.33035308279E+02  0.00000000000E+00 0.  1.
<mgrwt>
<rscale>  0 0.86224651E+03</rscale>
<asrwt>0</asrwt>
<pdfrwt beam="1">  1        1 0.15817421E+00 0.86224651E+03</pdfrwt>
<pdfrwt beam="2">  1       -2 0.12762048E+00 0.86224651E+03</pdfrwt>
<totfact> 0.58050130E+00</totfact>
</mgrwt>
</event>
<event>
12    3  0.2269558E-007  0.4674160E+03  0.7818608E-02  0.1022652E+00
          1   -1    0    0  501    0  0.00000000000E+00  0.00000000000E+00  0.50468477233E+03  0.50468477233E+03  0.00000000000E+00 0. -1.
         -2   -1    0    0    0  501 -0.00000000000E+00 -0.00000000000E+00 -0.62723754131E+03  0.62723754131E+03  0.00000000000E+00 0.  1.
        -24    2    1    2    0    0  0.35996006453E+01 -0.31398020916E+03  0.20079474818E+03  0.38153480044E+03  0.81570485957E+02 0.  0.
    5000000    2    1    2    0    0 -0.35996006453E+01  0.31398020916E+03 -0.32334751715E+03  0.75038751320E+03  0.59994272580E+03 0.  0.
        -24    2    4    4    0    0  0.25245703559E+03  0.16907369996E+03 -0.31634765327E+03  0.44567597491E+03  0.78935201559E+02 0.  0.
         24    2    4    4    0    0 -0.25605663624E+03  0.14490650920E+03 -0.69998638855E+01  0.30471153829E+03  0.78976110936E+02 0.  0.
         11    1    5    5    0    0  0.19070856725E+03  0.94622944493E+02 -0.18171172797E+03  0.27989714419E+03  0.00000000000E+00 0. -1.
        -12    1    5    5    0    0  0.61748468347E+02  0.74450755467E+02 -0.13463592530E+03  0.16577883072E+03  0.00000000000E+00 0.  1.
         13    1    3    3    0    0  0.33799866682E+02 -0.10247131568E+03  0.44036324230E+02  0.11654183530E+03  0.00000000000E+00 0. -1.
        -14    1    3    3    0    0 -0.30200266037E+02 -0.21150889349E+03  0.15675842395E+03  0.26499296514E+03  0.00000000000E+00 0.  1.
          4    1    6    6  502    0 -0.10886144222E+03  0.20160114169E+02 -0.14273050109E+02  0.11162868702E+03  0.00000000000E+00 0. -1.
         -3    1    6    6    0  502 -0.14719519402E+03  0.12474639503E+03  0.72731862233E+01  0.19308285127E+03  0.00000000000E+00 0.  1.
<mgrwt>
<rscale>  0 0.46741604E+03</rscale>
<asrwt>0</asrwt>
<pdfrwt beam="1">  1        1 0.77643811E-01 0.46741604E+03</pdfrwt>
<pdfrwt beam="2">  1       -2 0.96498083E-01 0.46741604E+03</pdfrwt>
<totfact> 0.35931965E+01</totfact>
</mgrwt>
</event>
<event>
12    3  0.2269558E-007  0.6461092E+03  0.7818608E-02  0.9814107E-01
          1   -1    0    0  501    0  0.00000000000E+00  0.00000000000E+00  0.11638416379E+04  0.11638416379E+04  0.00000000000E+00 0. -1.
         -2   -1    0    0    0  501 -0.00000000000E+00 -0.00000000000E+00 -0.41995271953E+03  0.41995271953E+03  0.00000000000E+00 0.  1.
        -24    2    1    2    0    0  0.51673156867E+03 -0.10344099089E+03  0.54155592831E+03  0.76000126325E+03  0.81286800841E+02 0.  0.
    5000000    2    1    2    0    0 -0.51673156867E+03  0.10344099089E+03  0.20233299004E+03  0.82379309418E+03  0.59998739195E+03 0.  0.
        -24    2    4    4    0    0 -0.20173284873E+03  0.31244418523E+03  0.21629352709E+03  0.43741059031E+03  0.78915293302E+02 0.  0.
         24    2    4    4    0    0 -0.31499871994E+03 -0.20900319434E+03 -0.13960537052E+02  0.38638250386E+03  0.78676641311E+02 0.  0.
         11    1    5    5    0    0 -0.14295163126E+03  0.27273991748E+03  0.16106441994E+03  0.34751112045E+03  0.00000000000E+00 0. -1.
        -12    1    5    5    0    0 -0.58781217469E+02  0.39704267749E+02  0.55229107155E+02  0.89899469864E+02  0.00000000000E+00 0.  1.
         13    1    3    3    0    0  0.16880630873E+03 -0.73078467551E+02  0.19015664161E+03  0.26456677916E+03  0.00000000000E+00 0. -1.
        -14    1    3    3    0    0  0.34792525994E+03 -0.30362523334E+02  0.35139928670E+03  0.49543448408E+03  0.00000000000E+00 0.  1.
          2    1    6    6  502    0 -0.11903422446E+03 -0.10272086728E+03 -0.39161972453E+02  0.16203204391E+03  0.00000000000E+00 0. -1.
         -1    1    6    6    0  502 -0.19596449548E+03 -0.10628232706E+03  0.25201435400E+02  0.22435045996E+03  0.00000000000E+00 0.  1.
<mgrwt>
<rscale>  0 0.64610923E+03</rscale>
<asrwt>0</asrwt>
<pdfrwt beam="1">  1        1 0.17905256E+00 0.64610923E+03</pdfrwt>
<pdfrwt beam="2">  1       -2 0.64608111E-01 0.64610923E+03</pdfrwt>
<totfact> 0.22874009E+01</totfact>
</mgrwt>
</event>
<event>
12    3  0.2269558E-007  0.3081682E+03  0.7818608E-02  0.1081227E+00
          1   -1    0    0  501    0  0.00000000000E+00  0.00000000000E+00  0.31832594275E+03  0.31832594275E+03  0.00000000000E+00 0. -1.
         -2   -1    0    0    0  501 -0.00000000000E+00 -0.00000000000E+00 -0.53714468574E+03  0.53714468574E+03  0.00000000000E+00 0.  1.
        -24    2    1    2    0    0  0.86086563487E+02  0.44281645479E+02 -0.21214143822E+03  0.24762817731E+03  0.83330449722E+02 0.  0.
    5000000    2    1    2    0    0 -0.86086563487E+02 -0.44281645479E+02 -0.66773047769E+01  0.60784245118E+03  0.60004674694E+03 0.  0.
        -24    2    4    4    0    0 -0.20429763101E+03  0.14646983838E+03  0.16716443887E+03  0.31161461238E+03  0.77257889123E+02 0.  0.
         24    2    4    4    0    0  0.11821106753E+03 -0.19075148386E+03 -0.17384174365E+03  0.29622783880E+03  0.84675826338E+02 0.  0.
         11    1    5    5    0    0 -0.23100505135E+00 -0.58890693712E+00 -0.61305605079E+01  0.61631117835E+01  0.00000000000E+00 0. -1.
        -12    1    5    5    0    0 -0.20406662596E+03  0.14705874532E+03  0.17329499938E+03  0.30545150059E+03  0.00000000000E+00 0.  1.
         11    1    3    3    0    0  0.10267259620E+03  0.42042393663E+02 -0.18660258422E+03  0.21709387213E+03  0.00000000000E+00 0. -1.
        -12    1    3    3    0    0 -0.16586032715E+02  0.22392518160E+01 -0.25538853992E+02  0.30534305185E+02  0.00000000000E+00 0.  1.
          2    1    6    6  502    0  0.38978066166E+02 -0.13258183900E+03 -0.12556642879E+03  0.18671947331E+03  0.00000000000E+00 0. -1.
         -1    1    6    6    0  502  0.79233001361E+02 -0.58169644863E+02 -0.48275314857E+02  0.10950836549E+03  0.00000000000E+00 0.  1.
<mgrwt>
<rscale>  0 0.30816816E+03</rscale>
<asrwt>0</asrwt>
<pdfrwt beam="1">  1        1 0.48973222E-01 0.30816816E+03</pdfrwt>
<pdfrwt beam="2">  1       -2 0.82637644E-01 0.30816816E+03</pdfrwt>
<totfact> 0.95139103E+01</totfact>
</mgrwt>
</event>
<event>
12    3  0.2269558E-007  0.5695012E+03  0.7818608E-02  0.9970783E-01
          1   -1    0    0  501    0  0.00000000000E+00  0.00000000000E+00  0.11504147630E+04  0.11504147630E+04  0.00000000000E+00 0. -1.
         -2   -1    0    0    0  501 -0.00000000000E+00 -0.00000000000E+00 -0.71648411912E+03  0.71648411912E+03  0.00000000000E+00 0.  1.
        -24    2    1    2    0    0 -0.41712559319E+03  0.31962684977E+02 -0.51535360783E+03  0.66830237510E+03  0.77610242545E+02 0.  0.
    5000000    2    1    2    0    0  0.41712559319E+03 -0.31962684977E+02  0.94928425172E+03  0.11985965070E+04  0.60039788675E+03 0.  0.
        -24    2    4    4    0    0  0.65136176647E+02 -0.26958740058E+03  0.47067017952E+03  0.55227369377E+03  0.80967443342E+02 0.  0.
         24    2    4    4    0    0  0.35198941654E+03  0.23762471560E+03  0.47861407221E+03  0.64632281328E+03  0.91102656560E+02 0.  0.
         11    1    5    5    0    0  0.33398049672E+02 -0.33886973011E+02  0.49938063374E+02  0.68975117508E+02  0.00000000000E+00 0. -1.
        -12    1    5    5    0    0  0.31738126976E+02 -0.23570042757E+03  0.42073211615E+03  0.48329857626E+03  0.00000000000E+00 0.  1.
         13    1    3    3    0    0 -0.24697208258E+03 -0.18779077408E+02 -0.31126261059E+03  0.39778420792E+03  0.00000000000E+00 0. -1.
        -14    1    3    3    0    0 -0.17015351061E+03  0.50741762386E+02 -0.20409099724E+03  0.27051816719E+03  0.00000000000E+00 0.  1.
          4    1    6    6  502    0  0.54221612275E+02  0.14104650386E+02  0.30763175128E+02  0.63916330810E+02  0.00000000000E+00 0. -1.
         -1    1    6    6    0  502  0.29776780426E+03  0.22352006521E+03  0.44785089708E+03  0.58240648247E+03  0.00000000000E+00 0.  1.
<mgrwt>
<rscale>  0 0.56950117E+03</rscale>
<asrwt>0</asrwt>
<pdfrwt beam="1">  1        1 0.17698689E+00 0.56950117E+03</pdfrwt>
<pdfrwt beam="2">  1       -2 0.11022833E+00 0.56950117E+03</pdfrwt>
<totfact> 0.70313874E+00</totfact>
</mgrwt>
</event>
<event>
12    3  0.2269558E-007  0.3667566E+03  0.7818608E-02  0.1055940E+00
         -2   -1    0    0    0  501 -0.00000000000E+00  0.00000000000E+00  0.10937272618E+03  0.10937272618E+03  0.00000000000E+00 0.  1.
          1   -1    0    0  501    0  0.00000000000E+00 -0.00000000000E+00 -0.18037411865E+04  0.18037411865E+04  0.00000000000E+00 0. -1.
        -24    2    1    2    0    0 -0.30421618903E+02  0.22683880614E+03 -0.39193934933E+03  0.46097097472E+03  0.80600664443E+02 0.  0.
    5000000    2    1    2    0    0  0.30421618903E+02 -0.22683880614E+03 -0.13024291109E+04  0.14521429379E+04  0.60001350339E+03 0.  0.
        -24    2    4    4    0    0  0.20667002835E+03 -0.21491708763E+02 -0.15902792106E+03  0.27440907849E+03  0.82680520777E+02 0.  0.
         24    2    4    4    0    0 -0.17624840945E+03 -0.20534709737E+03 -0.11434011899E+04  0.11777338594E+04  0.80373070120E+02 0.  0.
         11    1    5    5    0    0  0.62861720829E+01  0.18258375029E+02 -0.12457042753E+02  0.22979602527E+02  0.00000000000E+00 0. -1.
        -12    1    5    5    0    0  0.20038385627E+03 -0.39750083792E+02 -0.14657087831E+03  0.25142947596E+03  0.00000000000E+00 0.  1.
         13    1    3    3    0    0 -0.19689329382E+02  0.81616003047E+02 -0.22103052019E+03  0.23643885573E+03  0.00000000000E+00 0. -1.
        -14    1    3    3    0    0 -0.10732289521E+02  0.14522280309E+03 -0.17090882914E+03  0.22453211898E+03  0.00000000000E+00 0.  1.
          4    1    6    6  502    0 -0.14037135278E+03 -0.10960134254E+03 -0.79091240240E+03  0.81071511596E+03  0.00000000000E+00 0. -1.
         -3    1    6    6    0  502 -0.35877056664E+02 -0.95745754836E+02 -0.35248878748E+03  0.36701874347E+03  0.00000000000E+00 0.  1.
<mgrwt>
<rscale>  0 0.36675657E+03</rscale>
<asrwt>0</asrwt>
<pdfrwt beam="1">  1        1 0.27749862E+00 0.36675657E+03</pdfrwt>
<pdfrwt beam="2">  1       -2 0.16826575E-01 0.36675657E+03</pdfrwt>
<totfact> 0.11057571E+02</totfact>
</mgrwt>
</event>
<event>
12    3  0.2269558E-007  0.1043896E+04  0.7818608E-02  0.9261669E-01
          1   -1    0    0  501    0  0.00000000000E+00  0.00000000000E+00  0.10379342154E+04  0.10379342154E+04  0.00000000000E+00 0. -1.
         -2   -1    0    0    0  501 -0.00000000000E+00 -0.00000000000E+00 -0.11635736153E+04  0.11635736153E+04  0.00000000000E+00 0.  1.
        -24    2    1    2    0    0 -0.94127724715E+03  0.32601384909E+03  0.14107239474E+03  0.10083997637E+04  0.68416204028E+02 0.  0.
    5000000    2    1    2    0    0  0.94127724715E+03 -0.32601384909E+03 -0.26671179456E+03  0.11931080670E+04  0.60006982297E+03 0.  0.
        -24    2    4    4    0    0  0.13646145969E+03 -0.23697787686E+03  0.98508529300E+02  0.30133053955E+03  0.79472760237E+02 0.  0.
         24    2    4    4    0    0  0.80481578747E+03 -0.89035972231E+02 -0.36522032386E+03  0.89177752748E+03  0.78901314607E+02 0.  0.
         11    1    5    5    0    0  0.11398630356E+03 -0.22947468938E+03  0.72797094923E+02  0.26636615305E+03  0.00000000000E+00 0. -1.
        -12    1    5    5    0    0  0.22475156129E+02 -0.75031874857E+01  0.25711434377E+02  0.34964386498E+02  0.00000000000E+00 0.  1.
         13    1    3    3    0    0 -0.24928772609E+03  0.59844632614E+02  0.19815717079E+02  0.25713500943E+03  0.00000000000E+00 0. -1.
        -14    1    3    3    0    0 -0.69198952107E+03  0.26616921648E+03  0.12125667766E+03  0.75126475423E+03  0.00000000000E+00 0.  1.
          2    1    6    6  502    0  0.17155388289E+03 -0.90446542155E+01 -0.11207361083E+03  0.20511712447E+03  0.00000000000E+00 0. -1.
         -1    1    6    6    0  502  0.63326190457E+03 -0.79991318016E+02 -0.25314671302E+03  0.68666040301E+03  0.00000000000E+00 0.  1.
<mgrwt>
<rscale>  0 0.10438955E+04</rscale>
<asrwt>0</asrwt>
<pdfrwt beam="1">  1        1 0.15968219E+00 0.10438955E+04</pdfrwt>
<pdfrwt beam="2">  1       -2 0.17901132E+00 0.10438955E+04</pdfrwt>
<totfact> 0.22631026E+00</totfact>
</mgrwt>
</event>
<event>
12    3  0.2269558E-007  0.6908940E+03  0.7818608E-02  0.9732933E-01
         -2   -1    0    0    0  501 -0.00000000000E+00  0.00000000000E+00  0.49172315745E+03  0.49172315745E+03  0.00000000000E+00 0.  1.
          1   -1    0    0  501    0  0.00000000000E+00 -0.00000000000E+00 -0.11479164726E+04  0.11479164726E+04  0.00000000000E+00 0. -1.
        -24    2    1    2    0    0 -0.40000717943E+03 -0.45507736959E+03 -0.94155769246E+02  0.61846367585E+03  0.80813696611E+02 0.  0.
    5000000    2    1    2    0    0  0.40000717943E+03  0.45507736959E+03 -0.56203754594E+03  0.10211759542E+04  0.59984412189E+03 0.  0.
        -24    2    4    4    0    0 -0.56141624430E+02 -0.47300831996E+02  0.34292331185E+02  0.11425887074E+03  0.80559759575E+02 0.  0.
         24    2    4    4    0    0  0.45614880386E+03  0.50237820159E+03 -0.59632987713E+03  0.90691708351E+03  0.80210256871E+02 0.  0.
         13    1    5    5    0    0 -0.34643427335E+01 -0.37957348751E+02 -0.15525759384E+02  0.41155937594E+02  0.00000000000E+00 0. -1.
        -14    1    5    5    0    0 -0.52677281697E+02 -0.93434832454E+01  0.49818090570E+02  0.73102933143E+02  0.00000000000E+00 0.  1.
         13    1    3    3    0    0 -0.23150217125E+03 -0.20287328024E+03 -0.41250729211E+02  0.31056794070E+03  0.00000000000E+00 0. -1.
        -14    1    3    3    0    0 -0.16850500818E+03 -0.25220408935E+03 -0.52905040034E+02  0.30789573516E+03  0.00000000000E+00 0.  1.
          4    1    6    6  502    0  0.11031375976E+03  0.10577249437E+03 -0.17855069827E+03  0.23502616452E+03  0.00000000000E+00 0. -1.
         -3    1    6    6    0  502  0.34583504410E+03  0.39660570722E+03 -0.41777917886E+03  0.67189091899E+03  0.00000000000E+00 0.  1.
<mgrwt>
<rscale>  0 0.69089399E+03</rscale>
<asrwt>0</asrwt>
<pdfrwt beam="1">  1        1 0.17660253E+00 0.69089399E+03</pdfrwt>
<pdfrwt beam="2">  1       -2 0.75649717E-01 0.69089399E+03</pdfrwt>
<totfact> 0.16566580E+01</totfact>
</mgrwt>
</event>
<event>
12    3  0.2269558E-007  0.7306716E+03  0.7818608E-02  0.9666171E-01
         -2   -1    0    0    0  501 -0.00000000000E+00  0.00000000000E+00  0.46128817408E+03  0.46128817408E+03  0.00000000000E+00 0.  1.
          1   -1    0    0  501    0  0.00000000000E+00 -0.00000000000E+00 -0.12930585935E+04  0.12930585935E+04  0.00000000000E+00 0. -1.
        -24    2    1    2    0    0  0.23679932501E+03 -0.59330663086E+03 -0.50838165710E+03  0.82016425113E+03  0.78299495580E+02 0.  0.
    5000000    2    1    2    0    0 -0.23679932501E+03  0.59330663086E+03 -0.32338876229E+03  0.93418251643E+03  0.60002500272E+03 0.  0.
        -24    2    4    4    0    0  0.71212567146E+02  0.47868978440E+03 -0.37660625846E+02  0.49217550476E+03  0.81260478292E+02 0.  0.
         24    2    4    4    0    0 -0.30801189215E+03  0.11461684645E+03 -0.28572813644E+03  0.44200701168E+03  0.75639164571E+02 0.  0.
         11    1    5    5    0    0  0.94673774192E+01  0.31839653271E+03 -0.34182006817E+02  0.32036602951E+03  0.00000000000E+00 0. -1.
        -12    1    5    5    0    0  0.61745189727E+02  0.16029325170E+03 -0.34786190292E+01  0.17180947525E+03  0.00000000000E+00 0.  1.
         13    1    3    3    0    0  0.77081799649E+02 -0.19423374906E+03 -0.12074511577E+03  0.24134567759E+03  0.00000000000E+00 0. -1.
        -14    1    3    3    0    0  0.15971752536E+03 -0.39907288180E+03 -0.38763654133E+03  0.57881857353E+03  0.00000000000E+00 0.  1.
          2    1    6    6  502    0 -0.80584796516E+02  0.78294911100E+01 -0.10460477190E+03  0.13227761967E+03  0.00000000000E+00 0. -1.
         -1    1    6    6    0  502 -0.22742709564E+03  0.10678735534E+03 -0.18112336455E+03  0.30972939201E+03  0.00000000000E+00 0.  1.
<mgrwt>
<rscale>  0 0.73067155E+03</rscale>
<asrwt>0</asrwt>
<pdfrwt beam="1">  1        1 0.19893209E+00 0.73067155E+03</pdfrwt>
<pdfrwt beam="2">  1       -2 0.70967413E-01 0.73067155E+03</pdfrwt>
<totfact> 0.14920780E+01</totfact>
</mgrwt>
</event>
<event>
12    3  0.2269558E-007  0.1572667E+04  0.7818608E-02  0.8837518E-01
         -2   -1    0    0    0  501 -0.00000000000E+00  0.00000000000E+00  0.11875120772E+04  0.11875120772E+04  0.00000000000E+00 0.  1.
          1   -1    0    0  501    0  0.00000000000E+00 -0.00000000000E+00 -0.25397560958E+04  0.25397560958E+04  0.00000000000E+00 0. -1.
        -24    2    1    2    0    0  0.15489343655E+04 -0.22997942507E+03 -0.13209143566E+04  0.20500084682E+04  0.75045171382E+02 0.  0.
    5000000    2    1    2    0    0 -0.15489343655E+04  0.22997942507E+03 -0.31329662009E+02  0.16772597047E+04  0.60010862763E+03 0.  0.
        -24    2    4    4    0    0 -0.55499275935E+03  0.16300968752E+03  0.25567001990E+03  0.63750821252E+03  0.80376867323E+02 0.  0.
         24    2    4    4    0    0 -0.99394160611E+03  0.66969737552E+02 -0.28699968191E+03  0.10397514922E+04  0.79432273344E+02 0.  0.
         13    1    5    5    0    0 -0.51415760966E+03  0.13077213199E+03  0.24514583546E+03  0.58442782166E+03  0.00000000000E+00 0. -1.
        -14    1    5    5    0    0 -0.40835149684E+02  0.32237555527E+02  0.10524184433E+02  0.53080390861E+02  0.00000000000E+00 0.  1.
         13    1    3    3    0    0  0.48288042974E+03 -0.50395017739E+02 -0.37366802284E+03  0.61265076392E+03  0.00000000000E+00 0. -1.
        -14    1    3    3    0    0  0.10660539357E+04 -0.17958440733E+03 -0.94724633380E+03  0.14373577043E+04  0.00000000000E+00 0.  1.
          4    1    6    6  502    0 -0.33279552483E+03  0.20694046548E+02 -0.57388569436E+02  0.33834088256E+03  0.00000000000E+00 0. -1.
         -3    1    6    6    0  502 -0.66114608128E+03  0.46275691004E+02 -0.22961111247E+03  0.70141060966E+03  0.00000000000E+00 0.  1.
<mgrwt>
<rscale>  0 0.15726666E+04</rscale>
<asrwt>0</asrwt>
<pdfrwt beam="1">  1        1 0.39073170E+00 0.15726666E+04</pdfrwt>
<pdfrwt beam="2">  1       -2 0.18269417E+00 0.15726666E+04</pdfrwt>
<totfact> 0.18124326E-01</totfact>
</mgrwt>
</event>
<event>
12    3  0.2269558E-007  0.6375039E+03  0.7818608E-02  0.9830514E-01
         -2   -1    0    0    0  501 -0.00000000000E+00  0.00000000000E+00  0.22184575003E+03  0.22184575003E+03  0.00000000000E+00 0.  1.
          1   -1    0    0  501    0  0.00000000000E+00 -0.00000000000E+00 -0.18684567100E+04  0.18684567100E+04  0.00000000000E+00 0. -1.
        -24    2    1    2    0    0  0.28951742368E+03  0.40773312973E+03 -0.64000950962E+03  0.81624337362E+03  0.81082851950E+02 0.  0.
    5000000    2    1    2    0    0 -0.28951742368E+03 -0.40773312973E+03 -0.10066014503E+04  0.12740590864E+04  0.59992785574E+03 0.  0.
        -24    2    4    4    0    0 -0.43996915056E+03 -0.40858638818E+03 -0.84597489911E+03  0.10403943217E+04  0.78937472697E+02 0.  0.
         24    2    4    4    0    0  0.15045172687E+03  0.85325844897E+00 -0.16062655121E+03  0.23366476470E+03  0.78497663275E+02 0.  0.
         11    1    3    3    0    0  0.43480687803E+02  0.58778892683E+02 -0.14604428043E+03  0.16332317742E+03  0.00000000000E+00 0. -1.
        -12    1    3    3    0    0  0.24603673588E+03  0.34895423705E+03 -0.49396522919E+03  0.65292019620E+03  0.00000000000E+00 0.  1.
         11    1    5    5    0    0 -0.31006835849E+03 -0.33427898048E+03 -0.63715085490E+03  0.78348327080E+03  0.00000000000E+00 0. -1.
        -12    1    5    5    0    0 -0.12990079206E+03 -0.74307407696E+02 -0.20882404421E+03  0.25691105087E+03  0.00000000000E+00 0.  1.
          2    1    6    6  502    0  0.79316693435E+02  0.39245308337E+02 -0.91653173970E+02  0.12740343945E+03  0.00000000000E+00 0. -1.
         -1    1    6    6    0  502  0.71135033439E+02 -0.38392049888E+02 -0.68973377240E+02  0.10626132525E+03  0.00000000000E+00 0.  1.
<mgrwt>
<rscale>  0 0.63750393E+03</rscale>
<asrwt>0</asrwt>
<pdfrwt beam="1">  1        1 0.28745489E+00 0.63750393E+03</pdfrwt>
<pdfrwt beam="2">  1       -2 0.34130114E-01 0.63750393E+03</pdfrwt>
<totfact> 0.27125392E+01</totfact>
</mgrwt>
</event>
<event>
12    3  0.2269558E-007  0.4550262E+03  0.7818608E-02  0.1026234E+00
         -2   -1    0    0    0  501 -0.00000000000E+00  0.00000000000E+00  0.27951457356E+03  0.27951457356E+03  0.00000000000E+00 0.  1.
          1   -1    0    0  501    0  0.00000000000E+00 -0.00000000000E+00 -0.16112706419E+04  0.16112706419E+04  0.00000000000E+00 0. -1.
        -24    2    1    2    0    0 -0.35957491590E+03 -0.16565589555E+03 -0.31915847798E+02  0.40556086360E+03  0.82006078237E+02 0.  0.
    5000000    2    1    2    0    0  0.35957491590E+03  0.16565589555E+03 -0.12998402206E+04  0.14852243519E+04  0.59964221046E+03 0.  0.
        -24    2    4    4    0    0  0.35777471527E+03  0.23441467006E+03 -0.43950475584E+03  0.61848237112E+03  0.80018926200E+02 0.  0.
         24    2    4    4    0    0  0.18002006263E+01 -0.68758774514E+02 -0.86033546475E+03  0.86674198079E+03  0.79583538247E+02 0.  0.
         13    1    3    3    0    0 -0.20985766624E+03 -0.82003154318E+02  0.20464613814E+02  0.22623783463E+03  0.00000000000E+00 0. -1.
        -14    1    3    3    0    0 -0.14971724966E+03 -0.83652741227E+02 -0.52380461612E+02  0.17932302897E+03  0.00000000000E+00 0.  1.
         13    1    5    5    0    0  0.44888066504E+02  0.18958049527E+01 -0.37674498125E+02  0.58633611519E+02  0.00000000000E+00 0. -1.
        -14    1    5    5    0    0  0.31288664877E+03  0.23251886511E+03 -0.40183025772E+03  0.55984875960E+03  0.00000000000E+00 0.  1.
          2    1    6    6  502    0  0.17835459241E+02 -0.18350481975E+02 -0.68209448982E+02  0.72851717382E+02  0.00000000000E+00 0. -1.
         -1    1    6    6    0  502 -0.16035258615E+02 -0.50408292539E+02 -0.79212601577E+03  0.79389026341E+03  0.00000000000E+00 0.  1.
<mgrwt>
<rscale>  0 0.45502619E+03</rscale>
<asrwt>0</asrwt>
<pdfrwt beam="1">  1        1 0.24788780E+00 0.45502619E+03</pdfrwt>
<pdfrwt beam="2">  1       -2 0.43002241E-01 0.45502619E+03</pdfrwt>
<totfact> 0.26605521E+01</totfact>
</mgrwt>
</event>
<event>
12    3  0.2269558E-007  0.1057454E+04  0.7818608E-02  0.9247682E-01
         -2   -1    0    0    0  501 -0.00000000000E+00  0.00000000000E+00  0.70360647359E+03  0.70360647359E+03  0.00000000000E+00 0.  1.
          1   -1    0    0  501    0  0.00000000000E+00 -0.00000000000E+00 -0.16368938473E+04  0.16368938473E+04  0.00000000000E+00 0. -1.
        -24    2    1    2    0    0  0.36282670833E+03  0.91709074625E+03 -0.37682560452E+03  0.10588841479E+04  0.80866836960E+02 0.  0.
    5000000    2    1    2    0    0 -0.36282670833E+03 -0.91709074625E+03 -0.55646176916E+03  0.12816161730E+04  0.60015969302E+03 0.  0.
        -24    2    4    4    0    0 -0.48822242318E+03 -0.82753806086E+03 -0.38038338756E+03  0.10364432326E+04  0.79640920149E+02 0.  0.
         24    2    4    4    0    0  0.12539571485E+03 -0.89552685398E+02 -0.17607838160E+03  0.24517294039E+03  0.73228447123E+02 0.  0.
         11    1    5    5    0    0 -0.39764895096E+03 -0.63677449281E+03 -0.32542950483E+03  0.81823639952E+03  0.00000000000E+00 0. -1.
        -12    1    5    5    0    0 -0.90573472219E+02 -0.19076356805E+03 -0.54953882731E+02  0.21820683306E+03  0.00000000000E+00 0.  1.
         13    1    3    3    0    0  0.23127439573E+03  0.60093891193E+03 -0.28632875626E+03  0.70469821814E+03  0.00000000000E+00 0. -1.
        -14    1    3    3    0    0  0.13155231260E+03  0.31615183432E+03 -0.90496848263E+02  0.35418592976E+03  0.00000000000E+00 0.  1.
          4    1    6    6  502    0  0.76251253005E+02 -0.89420390796E+02 -0.98497989491E+02  0.15333660296E+03  0.00000000000E+00 0. -1.
         -3    1    6    6    0  502  0.49144461841E+02 -0.13229460200E+00 -0.77580392113E+02  0.91836337426E+02  0.00000000000E+00 0.  1.
<mgrwt>
<rscale>  0 0.10574542E+04</rscale>
<asrwt>0</asrwt>
<pdfrwt beam="1">  1        1 0.25182982E+00 0.10574542E+04</pdfrwt>
<pdfrwt beam="2">  1       -2 0.10824715E+00 0.10574542E+04</pdfrwt>
<totfact> 0.31386436E+00</totfact>
</mgrwt>
</event>
<event>
12    3  0.2269558E-007  0.1156465E+04  0.7818608E-02  0.9151840E-01
          1   -1    0    0  501    0  0.00000000000E+00  0.00000000000E+00  0.31522190446E+04  0.31522190446E+04  0.00000000000E+00 0. -1.
         -2   -1    0    0    0  501 -0.00000000000E+00 -0.00000000000E+00 -0.62823606896E+03  0.62823606896E+03  0.00000000000E+00 0.  1.
        -24    2    1    2    0    0  0.10518663146E+04  0.28097797666E+03  0.22597404881E+04  0.25095671566E+04  0.78287118440E+02 0.  0.
    5000000    2    1    2    0    0 -0.10518663146E+04 -0.28097797666E+03  0.26424248749E+03  0.12708879569E+04  0.59996728225E+03 0.  0.
        -24    2    4    4    0    0 -0.29855268527E+03 -0.35754505023E+03  0.17682128363E+03  0.50429450823E+03  0.77942388122E+02 0.  0.
         24    2    4    4    0    0 -0.75331362929E+03  0.76567073567E+02  0.87421203865E+02  0.76659344868E+03  0.81725808981E+02 0.  0.
         11    1    3    3    0    0  0.86685270059E+03  0.24724679931E+03  0.18083808875E+04  0.20205954614E+04  0.00000000000E+00 0. -1.
        -12    1    3    3    0    0  0.18501361396E+03  0.33731177354E+02  0.45135960064E+03  0.48897169526E+03  0.00000000000E+00 0.  1.
         11    1    5    5    0    0 -0.13105482931E+03 -0.17209183393E+03  0.42011221773E+02  0.22035405679E+03  0.00000000000E+00 0. -1.
        -12    1    5    5    0    0 -0.16749785596E+03 -0.18545321630E+03  0.13481006185E+03  0.28394045144E+03  0.00000000000E+00 0.  1.
          2    1    6    6  502    0 -0.22178542587E+03  0.19011118631E+02 -0.11448886414E+02  0.22289296705E+03  0.00000000000E+00 0. -1.
         -3    1    6    6    0  502 -0.53152820341E+03  0.57555954936E+02  0.98870090279E+02  0.54370048163E+03  0.00000000000E+00 0.  1.
<mgrwt>
<rscale>  0 0.11564650E+04</rscale>
<asrwt>0</asrwt>
<pdfrwt beam="1">  1        1 0.48495677E+00 0.11564650E+04</pdfrwt>
<pdfrwt beam="2">  1       -2 0.96651705E-01 0.11564650E+04</pdfrwt>
<totfact> 0.36311279E-01</totfact>
</mgrwt>
</event>
<event>
12    3  0.2269558E-007  0.8688826E+03  0.7818608E-02  0.9465338E-01
         -2   -1    0    0    0  501 -0.00000000000E+00  0.00000000000E+00  0.44398672504E+03  0.44398672504E+03  0.00000000000E+00 0.  1.
          1   -1    0    0  501    0  0.00000000000E+00 -0.00000000000E+00 -0.33527541311E+04  0.33527541311E+04  0.00000000000E+00 0. -1.
        -24    2    1    2    0    0  0.19954398133E+03  0.81726501541E+03 -0.25761608465E+04  0.27112294140E+04  0.80126913257E+02 0.  0.
    5000000    2    1    2    0    0 -0.19954398133E+03 -0.81726501541E+03 -0.33260655954E+03  0.10855114422E+04  0.59997338417E+03 0.  0.
        -24    2    4    4    0    0  0.58558256385E+02 -0.17172370433E+03  0.13831216439E+03  0.24200369254E+03  0.80730616022E+02 0.  0.
         24    2    4    4    0    0 -0.25810223771E+03 -0.64554131107E+03 -0.47091872393E+03  0.84350774962E+03  0.80003310588E+02 0.  0.
         11    1    5    5    0    0  0.29452306523E+02 -0.16636088270E+03  0.11940679529E+03  0.20688490620E+03  0.00000000000E+00 0. -1.
        -12    1    5    5    0    0  0.29105949862E+02 -0.53628216379E+01  0.18905369095E+02  0.35118786339E+02  0.00000000000E+00 0.  1.
         13    1    3    3    0    0  0.11788083540E+03  0.55714107898E+03 -0.18451302299E+04  0.19310120762E+04  0.00000000000E+00 0. -1.
        -14    1    3    3    0    0  0.81663145930E+02  0.26012393643E+03 -0.73103061664E+03  0.78021733778E+03  0.00000000000E+00 0.  1.
          4    1    6    6  502    0 -0.19226075256E+03 -0.41548516905E+03 -0.27347117098E+03  0.53327160438E+03  0.00000000000E+00 0. -1.
         -3    1    6    6    0  502 -0.65841485151E+02 -0.23005614202E+03 -0.19744755295E+03  0.31023614524E+03  0.00000000000E+00 0.  1.
<mgrwt>
<rscale>  0 0.86888264E+03</rscale>
<asrwt>0</asrwt>
<pdfrwt beam="1">  1        1 0.51580832E+00 0.86888264E+03</pdfrwt>
<pdfrwt beam="2">  1       -2 0.68305651E-01 0.86888264E+03</pdfrwt>
<totfact> 0.59237365E-01</totfact>
</mgrwt>
</event>
<event>
12    3  0.2269558E-007  0.1437531E+04  0.7818608E-02  0.8927091E-01
         -2   -1    0    0    0  501 -0.00000000000E+00  0.00000000000E+00  0.12961355689E+04  0.12961355689E+04  0.00000000000E+00 0.  1.
          1   -1    0    0  501    0  0.00000000000E+00 -0.00000000000E+00 -0.16374999610E+04  0.16374999610E+04  0.00000000000E+00 0. -1.
        -24    2    1    2    0    0  0.75940142134E+03  0.11603888356E+04 -0.30632211108E+03  0.14221377624E+04  0.73822836813E+02 0.  0.
    5000000    2    1    2    0    0 -0.75940142134E+03 -0.11603888356E+04 -0.35042281006E+02  0.15114977674E+04  0.60017061823E+03 0.  0.
        -24    2    4    4    0    0 -0.15418908653E+03  0.23205511589E+02  0.31660168592E+02  0.17807173614E+03  0.79965034647E+02 0.  0.
         24    2    4    4    0    0 -0.60521233481E+03 -0.11835943471E+04 -0.66702449598E+02  0.13334260313E+04  0.79988844540E+02 0.  0.
         13    1    3    3    0    0  0.38315410423E+03  0.65248139455E+03 -0.16918477223E+03  0.77534671275E+03  0.00000000000E+00 0. -1.
        -14    1    3    3    0    0  0.37624731711E+03  0.50790744100E+03 -0.13713733885E+03  0.64679104970E+03  0.00000000000E+00 0.  1.
         13    1    5    5    0    0 -0.95582380070E+02  0.22417192435E+02 -0.19709120436E+02  0.10013476582E+03  0.00000000000E+00 0. -1.
        -14    1    5    5    0    0 -0.58606706457E+02  0.78831915357E+00  0.51369289028E+02  0.77936970329E+02  0.00000000000E+00 0.  1.
          4    1    6    6  502    0 -0.38481170280E+03 -0.77498863539E+03 -0.80168792331E+02  0.86897322563E+03  0.00000000000E+00 0. -1.
         -3    1    6    6    0  502 -0.22040063201E+03 -0.40860571175E+03  0.13466342733E+02  0.46445280563E+03  0.00000000000E+00 0.  1.
<mgrwt>
<rscale>  0 0.14375307E+04</rscale>
<asrwt>0</asrwt>
<pdfrwt beam="1">  1        1 0.25192307E+00 0.14375307E+04</pdfrwt>
<pdfrwt beam="2">  1       -2 0.19940547E+00 0.14375307E+04</pdfrwt>
<totfact> 0.58740877E-01</totfact>
</mgrwt>
</event>
<event>
12    3  0.2269558E-007  0.1706320E+04  0.7818608E-02  0.8757768E-01
          1   -1    0    0  501    0  0.00000000000E+00  0.00000000000E+00  0.16256371475E+04  0.16256371475E+04  0.00000000000E+00 0. -1.
         -2   -1    0    0    0  501 -0.00000000000E+00 -0.00000000000E+00 -0.19909359097E+04  0.19909359097E+04  0.00000000000E+00 0.  1.
        -24    2    1    2    0    0 -0.14322670238E+04 -0.86826333683E+03  0.32483675225E+03  0.17082395070E+04  0.85400515695E+02 0.  0.
    5000000    2    1    2    0    0  0.14322670238E+04  0.86826333683E+03 -0.69013551438E+03  0.19083335502E+04  0.60014986542E+03 0.  0.
        -24    2    4    4    0    0  0.13712856080E+04  0.67230549311E+03 -0.46794445828E+03  0.15992126024E+04  0.78038688212E+02 0.  0.
         24    2    4    4    0    0  0.60981415804E+02  0.19595784372E+03 -0.22219105610E+03  0.30912094778E+03  0.63786247389E+02 0.  0.
         13    1    5    5    0    0  0.70539217798E+03  0.36316742391E+03 -0.20563980792E+03  0.81960748724E+03  0.00000000000E+00 0. -1.
        -14    1    5    5    0    0  0.66589343005E+03  0.30913806920E+03 -0.26230465037E+03  0.77960511518E+03  0.00000000000E+00 0.  1.
         13    1    3    3    0    0 -0.13248928296E+04 -0.80072301912E+03  0.27688955245E+03  0.15726303404E+04  0.00000000000E+00 0. -1.
        -14    1    3    3    0    0 -0.10737419423E+03 -0.67540317711E+02  0.47947199797E+02  0.13560916662E+03  0.00000000000E+00 0.  1.
          2    1    6    6  502    0 -0.21204715541E+01  0.62739829738E+02 -0.38670753549E+02  0.73730657227E+02  0.00000000000E+00 0. -1.
         -1    1    6    6    0  502  0.63101887358E+02  0.13321801398E+03 -0.18352030255E+03  0.23539029055E+03  0.00000000000E+00 0.  1.
<mgrwt>
<rscale>  0 0.17063195E+04</rscale>
<asrwt>0</asrwt>
<pdfrwt beam="1">  1        1 0.25009802E+00 0.17063195E+04</pdfrwt>
<pdfrwt beam="2">  1       -2 0.30629783E+00 0.17063195E+04</pdfrwt>
<totfact> 0.12583393E-01</totfact>
</mgrwt>
</event>
<event>
12    3  0.2269558E-007  0.1118553E+04  0.7818608E-02  0.9187296E-01
         -2   -1    0    0    0  501 -0.00000000000E+00  0.00000000000E+00  0.27046548699E+04  0.27046548699E+04  0.00000000000E+00 0.  1.
          1   -1    0    0  501    0  0.00000000000E+00 -0.00000000000E+00 -0.51979714572E+03  0.51979714572E+03  0.00000000000E+00 0. -1.
        -24    2    1    2    0    0 -0.68980527611E+03  0.86707960551E+03  0.98345734834E+03  0.14836203245E+04  0.79262539260E+02 0.  0.
    5000000    2    1    2    0    0  0.68980527611E+03 -0.86707960551E+03  0.12014003758E+04  0.17408316910E+04  0.59956129988E+03 0.  0.
        -24    2    4    4    0    0  0.45985357441E+03 -0.66713286411E+03  0.11681856931E+04  0.14239340870E+04  0.79993139116E+02 0.  0.
         24    2    4    4    0    0  0.22995170170E+03 -0.19994674140E+03  0.33214682735E+02  0.31689760406E+03  0.80401441518E+02 0.  0.
         11    1    3    3    0    0 -0.45073308206E+03  0.62520410329E+03  0.68121938190E+03  0.10286400383E+04  0.00000000000E+00 0. -1.
        -12    1    3    3    0    0 -0.23907219405E+03  0.24187550222E+03  0.30223796644E+03  0.45498028627E+03  0.00000000000E+00 0.  1.
         13    1    5    5    0    0  0.41722561240E+03 -0.57776042620E+03  0.10597807683E+04  0.12771137767E+04  0.00000000000E+00 0. -1.
        -14    1    5    5    0    0  0.42627962006E+02 -0.89372437911E+02  0.10840492476E+03  0.14682031030E+03  0.00000000000E+00 0.  1.
          2    1    6    6  502    0  0.19819599473E+03 -0.12794460120E+03  0.33005902985E+02  0.23820340664E+03  0.00000000000E+00 0. -1.
         -1    1    6    6    0  502  0.31755706969E+02 -0.72002140196E+02  0.20877975023E+00  0.78694197415E+02  0.00000000000E+00 0.  1.
<mgrwt>
<rscale>  0 0.11185525E+04</rscale>
<asrwt>0</asrwt>
<pdfrwt beam="1">  1        1 0.79968793E-01 0.11185525E+04</pdfrwt>
<pdfrwt beam="2">  1       -2 0.41610074E+00 0.11185525E+04</pdfrwt>
<totfact> 0.21531296E-01</totfact>
</mgrwt>
</event>
<event>
12    3  0.2269558E-007  0.6347331E+03  0.7818608E-02  0.9835856E-01
          1   -1    0    0  501    0  0.00000000000E+00  0.00000000000E+00  0.63171463711E+03  0.63171463711E+03  0.00000000000E+00 0. -1.
         -2   -1    0    0    0  501 -0.00000000000E+00 -0.00000000000E+00 -0.91270449672E+03  0.91270449672E+03  0.00000000000E+00 0.  1.
        -24    2    1    2    0    0 -0.40478725868E+03  0.36390127238E+03 -0.45708237515E+03  0.71537174330E+03  0.80966490615E+02 0.  0.
    5000000    2    1    2    0    0  0.40478725868E+03 -0.36390127238E+03  0.17609251554E+03  0.82904739054E+03  0.60002845007E+03 0.  0.
        -24    2    4    4    0    0  0.20868687131E+03  0.82951598709E+02  0.23293249198E+03  0.33132747165E+03  0.71338416447E+02 0.  0.
         24    2    4    4    0    0  0.19610038737E+03 -0.44685287109E+03 -0.56839976441E+02  0.49771991889E+03  0.79758914288E+02 0.  0.
         11    1    5    5    0    0  0.62606109252E+02  0.14939935677E+02  0.11449395268E+03  0.13134531509E+03  0.00000000000E+00 0. -1.
        -12    1    5    5    0    0  0.14608076206E+03  0.68011663032E+02  0.11843853930E+03  0.19998215656E+03  0.00000000000E+00 0.  1.
         13    1    3    3    0    0 -0.33465091215E+03  0.33543787464E+03 -0.40683903176E+03  0.62452205606E+03  0.00000000000E+00 0. -1.
        -14    1    3    3    0    0 -0.70136346528E+02  0.28463397746E+02 -0.50243343394E+02  0.90849687236E+02  0.00000000000E+00 0.  1.
          2    1    6    6  502    0  0.73601674030E+02 -0.85075748915E+02 -0.11299408722E+02  0.11306089559E+03  0.00000000000E+00 0. -1.
         -1    1    6    6    0  502  0.12249871334E+03 -0.36177712217E+03 -0.45540567719E+02  0.38465902330E+03  0.00000000000E+00 0.  1.
<mgrwt>
<rscale>  0 0.63473314E+03</rscale>
<asrwt>0</asrwt>
<pdfrwt beam="1">  1        1 0.97186868E-01 0.63473314E+03</pdfrwt>
<pdfrwt beam="2">  1       -2 0.14041608E+00 0.63473314E+03</pdfrwt>
<totfact> 0.10251729E+01</totfact>
</mgrwt>
</event>
<event>
12    3  0.2269558E-007  0.7023069E+03  0.7818608E-02  0.9713295E-01
          1   -1    0    0  501    0  0.00000000000E+00  0.00000000000E+00  0.18910470624E+04  0.18910470624E+04  0.00000000000E+00 0. -1.
         -2   -1    0    0    0  501 -0.00000000000E+00 -0.00000000000E+00 -0.33659764713E+03  0.33659764713E+03  0.00000000000E+00 0.  1.
        -24    2    1    2    0    0  0.66510256845E+03  0.11874842893E+03  0.80168589467E+03  0.10514495618E+04  0.79895503381E+02 0.  0.
    5000000    2    1    2    0    0 -0.66510256845E+03 -0.11874842893E+03  0.75276352060E+03  0.11761951477E+04  0.60026618391E+03 0.  0.
        -24    2    4    4    0    0 -0.52582047121E+03 -0.17730705831E+03  0.19646914853E+03  0.59404114591E+03  0.79748328142E+02 0.  0.
         24    2    4    4    0    0 -0.13928209724E+03  0.58558629383E+02  0.55629437207E+03  0.58215400177E+03  0.81309517828E+02 0.  0.
         11    1    3    3    0    0  0.18029221327E+03  0.56446679651E+02  0.26612281387E+03  0.32636308289E+03  0.00000000000E+00 0. -1.
        -12    1    3    3    0    0  0.48481035518E+03  0.62301749275E+02  0.53556308080E+03  0.72508647896E+03  0.00000000000E+00 0.  1.
         13    1    5    5    0    0 -0.39048982931E+03 -0.12178504490E+03  0.10787264885E+03  0.42302530932E+03  0.00000000000E+00 0. -1.
        -14    1    5    5    0    0 -0.13533064190E+03 -0.55522013404E+02  0.88596499670E+02  0.17101583659E+03  0.00000000000E+00 0.  1.
          4    1    6    6  502    0 -0.25150026125E+01  0.32194084900E+02  0.10330965088E+03  0.10823894080E+03  0.00000000000E+00 0. -1.
         -3    1    6    6    0  502 -0.13676709463E+03  0.26364544482E+02  0.45298472119E+03  0.47391506096E+03  0.00000000000E+00 0.  1.
<mgrwt>
<rscale>  0 0.70230695E+03</rscale>
<asrwt>0</asrwt>
<pdfrwt beam="1">  1        1 0.29093031E+00 0.70230695E+03</pdfrwt>
<pdfrwt beam="2">  1       -2 0.51784254E-01 0.70230695E+03</pdfrwt>
<totfact> 0.11429860E+01</totfact>
</mgrwt>
</event>
<event>
12    3  0.2269558E-007  0.5379632E+03  0.7818608E-02  0.1004319E+00
         -2   -1    0    0    0  501 -0.00000000000E+00  0.00000000000E+00  0.92264575052E+03  0.92264575052E+03  0.00000000000E+00 0.  1.
          1   -1    0    0  501    0  0.00000000000E+00 -0.00000000000E+00 -0.42985959189E+03  0.42985959189E+03  0.00000000000E+00 0. -1.
        -24    2    1    2    0    0  0.40829600288E+03  0.36340493982E+02 -0.82365635457E+02  0.42561962651E+03  0.79634861104E+02 0.  0.
    5000000    2    1    2    0    0 -0.40829600288E+03 -0.36340493982E+02  0.57515179409E+03  0.92688571590E+03  0.60024268977E+03 0.  0.
        -24    2    4    4    0    0 -0.26932677588E+03 -0.27547396390E+03  0.48983213605E+03  0.62795989146E+03  0.77299979158E+02 0.  0.
         24    2    4    4    0    0 -0.13896922700E+03  0.23913346992E+03  0.85319658035E+02  0.29892582444E+03  0.74699009221E+02 0.  0.
         13    1    3    3    0    0  0.31197196903E+03  0.49052498748E+02 -0.35642486835E+02  0.31780976065E+03  0.00000000000E+00 0. -1.
        -14    1    3    3    0    0  0.96324033842E+02 -0.12712004766E+02 -0.46723148622E+02  0.10780986587E+03  0.00000000000E+00 0.  1.
         13    1    5    5    0    0 -0.16040731249E+03 -0.16389544394E+03  0.35045393981E+03  0.41881999281E+03  0.00000000000E+00 0. -1.
        -14    1    5    5    0    0 -0.10891946338E+03 -0.11157851996E+03  0.13937819624E+03  0.20913989865E+03  0.00000000000E+00 0.  1.
          2    1    6    6  502    0 -0.42642055844E+02  0.52116975347E+02  0.53841145757E+02  0.86217127198E+02  0.00000000000E+00 0. -1.
         -1    1    6    6    0  502 -0.96327171156E+02  0.18701649457E+03  0.31478512278E+02  0.21270869724E+03  0.00000000000E+00 0.  1.
<mgrwt>
<rscale>  0 0.53796317E+03</rscale>
<asrwt>0</asrwt>
<pdfrwt beam="1">  1        1 0.66132245E-01 0.53796317E+03</pdfrwt>
<pdfrwt beam="2">  1       -2 0.14194550E+00 0.53796317E+03</pdfrwt>
<totfact> 0.17174637E+01</totfact>
</mgrwt>
</event>
<event>
12    3  0.2269558E-007  0.6750926E+03  0.7818608E-02  0.9760801E-01
          1   -1    0    0  501    0  0.00000000000E+00  0.00000000000E+00  0.18647348280E+04  0.18647348280E+04  0.00000000000E+00 0. -1.
         -2   -1    0    0    0  501 -0.00000000000E+00 -0.00000000000E+00 -0.27617256989E+03  0.27617256989E+03  0.00000000000E+00 0.  1.
        -24    2    1    2    0    0  0.51877631101E+03  0.27788597400E+03  0.70177496293E+03  0.91929534092E+03  0.79160279384E+02 0.  0.
    5000000    2    1    2    0    0 -0.51877631101E+03 -0.27788597400E+03  0.88678729524E+03  0.12216120570E+04  0.59966226782E+03 0.  0.
        -24    2    4    4    0    0  0.75257937854E+02 -0.24536252379E+02  0.38092676977E+03  0.39714274605E+03  0.79695494982E+02 0.  0.
         24    2    4    4    0    0 -0.59403424886E+03 -0.25334972163E+03  0.50586052546E+03  0.82446931096E+03  0.82413610722E+02 0.  0.
         11    1    5    5    0    0 -0.66712957097E+01  0.18551607808E+02  0.62807507594E+02  0.65828955247E+02  0.00000000000E+00 0. -1.
        -12    1    5    5    0    0  0.81929233564E+02 -0.43087860187E+02  0.31811926218E+03  0.33131379080E+03  0.00000000000E+00 0.  1.
         13    1    3    3    0    0  0.10141469531E+03  0.27976019125E+02  0.96458045299E+02  0.14272964854E+03  0.00000000000E+00 0. -1.
        -14    1    3    3    0    0  0.41736161570E+03  0.24990995488E+03  0.60531691763E+03  0.77656569238E+03  0.00000000000E+00 0.  1.
          2    1    6    6  502    0 -0.31417553571E+03 -0.14681229560E+03  0.32104095821E+03  0.47257530006E+03  0.00000000000E+00 0. -1.
         -1    1    6    6    0  502 -0.27985871315E+03 -0.10653742603E+03  0.18481956725E+03  0.35189401090E+03  0.00000000000E+00 0.  1.
<mgrwt>
<rscale>  0 0.67509262E+03</rscale>
<asrwt>0</asrwt>
<pdfrwt beam="1">  1        1 0.28688227E+00 0.67509262E+03</pdfrwt>
<pdfrwt beam="2">  1       -2 0.42488089E-01 0.67509262E+03</pdfrwt>
<totfact> 0.17779390E+01</totfact>
</mgrwt>
</event>
<event>
12    3  0.2269558E-007  0.1151401E+04  0.7818608E-02  0.9156492E-01
         -2   -1    0    0    0  501 -0.00000000000E+00  0.00000000000E+00  0.67570855673E+03  0.67570855673E+03  0.00000000000E+00 0.  1.
          1   -1    0    0  501    0  0.00000000000E+00 -0.00000000000E+00 -0.21101670521E+04  0.21101670521E+04  0.00000000000E+00 0. -1.
        -24    2    1    2    0    0  0.10725848520E+04 -0.30747860702E+03 -0.73916942169E+03  0.13407259185E+04  0.78696861822E+02 0.  0.
    5000000    2    1    2    0    0 -0.10725848520E+04  0.30747860702E+03 -0.69528907371E+03  0.14451496904E+04  0.60004114277E+03 0.  0.
        -24    2    4    4    0    0 -0.10588251764E+04  0.27001428233E+03 -0.75498604901E+03  0.13305375571E+04  0.79421596634E+02 0.  0.
         24    2    4    4    0    0 -0.13759675637E+02  0.37464324690E+02  0.59696975303E+02  0.11461213322E+03  0.89326971974E+02 0.  0.
         11    1    5    5    0    0 -0.53258947750E+03  0.96843955921E+02 -0.38802899090E+03  0.66603063077E+03  0.00000000000E+00 0. -1.
        -12    1    5    5    0    0 -0.52623569886E+03  0.17317032641E+03 -0.36695705811E+03  0.66450692637E+03  0.00000000000E+00 0.  1.
         13    1    3    3    0    0  0.62450713522E+03 -0.15628789339E+03 -0.46449373868E+03  0.79384475865E+03  0.00000000000E+00 0. -1.
        -14    1    3    3    0    0  0.44807771677E+03 -0.15119071363E+03 -0.27467568301E+03  0.54688115985E+03  0.00000000000E+00 0.  1.
          2    1    6    6  502    0 -0.40719075451E+02  0.47033567213E+02  0.59382902826E+02  0.86003073772E+02  0.00000000000E+00 0. -1.
         -1    1    6    6    0  502  0.26959399814E+02 -0.95692425225E+01  0.31407247785E+00  0.28609059445E+02  0.00000000000E+00 0.  1.
<mgrwt>
<rscale>  0 0.11514007E+04</rscale>
<asrwt>0</asrwt>
<pdfrwt beam="1">  1        1 0.32464108E+00 0.11514007E+04</pdfrwt>
<pdfrwt beam="2">  1       -2 0.10395516E+00 0.11514007E+04</pdfrwt>
<totfact> 0.16380407E+00</totfact>
</mgrwt>
</event>
<event>
12    3  0.2269558E-007  0.6975879E+03  0.7818608E-02  0.9721366E-01
          1   -1    0    0  501    0  0.00000000000E+00  0.00000000000E+00  0.50416166333E+03  0.50416166333E+03  0.00000000000E+00 0. -1.
         -2   -1    0    0    0  501 -0.00000000000E+00 -0.00000000000E+00 -0.11265183887E+04  0.11265183887E+04  0.00000000000E+00 0.  1.
        -24    2    1    2    0    0 -0.60805233844E+03  0.16637825289E+03 -0.29558487026E+03  0.70105823659E+03  0.81871034203E+02 0.  0.
    5000000    2    1    2    0    0  0.60805233844E+03 -0.16637825289E+03 -0.32677185511E+03  0.92962181544E+03  0.60000625423E+03 0.  0.
        -24    2    4    4    0    0  0.62042518957E+03 -0.53478396576E+02 -0.42395627013E+03  0.75761419714E+03  0.80330554350E+02 0.  0.
         24    2    4    4    0    0 -0.12372851130E+02 -0.11289985631E+03  0.97184415020E+02  0.17200761830E+03  0.85101969596E+02 0.  0.
         11    1    5    5    0    0  0.24542965631E+02 -0.52726132895E+01 -0.39611791924E+02  0.46896179720E+02  0.00000000000E+00 0. -1.
        -12    1    5    5    0    0  0.59588222394E+03 -0.48205783286E+02 -0.38434447821E+03  0.71071801742E+03  0.00000000000E+00 0.  1.
         13    1    3    3    0    0 -0.18135468810E+03  0.71713374425E+02 -0.12631617185E+03  0.23235340806E+03  0.00000000000E+00 0. -1.
        -14    1    3    3    0    0 -0.42669765034E+03  0.94664878465E+02 -0.16926869841E+03  0.46870482852E+03  0.00000000000E+00 0.  1.
          2    1    6    6  502    0  0.17855526505E+02  0.49166880455E+01  0.23029639522E+02  0.29552630079E+02  0.00000000000E+00 0. -1.
         -1    1    6    6    0  502 -0.30228377635E+02 -0.11781654436E+03  0.74154775498E+02  0.14245498822E+03  0.00000000000E+00 0.  1.
<mgrwt>
<rscale>  0 0.69758791E+03</rscale>
<asrwt>0</asrwt>
<pdfrwt beam="1">  1        1 0.77563333E-01 0.69758791E+03</pdfrwt>
<pdfrwt beam="2">  1       -2 0.17331052E+00 0.69758791E+03</pdfrwt>
<totfact> 0.79568798E+00</totfact>
</mgrwt>
</event>
<event>
12    3  0.2656349E-007  0.1268721E+04  0.7818608E-02  0.9054744E-01
          1   -1    0    0  501    0  0.00000000000E+00  0.00000000000E+00  0.24901432167E+04  0.24901432167E+04  0.00000000000E+00 0. -1.
         -2   -1    0    0    0  501 -0.00000000000E+00 -0.00000000000E+00 -0.69751883592E+03  0.69751883592E+03  0.00000000000E+00 0.  1.
        -24    2    1    2    0    0  0.10810792660E+04 -0.52325710421E+03  0.12619836428E+04  0.17440037987E+04  0.80100927107E+02 0.  0.
    5000000    2    1    2    0    0 -0.10810792660E+04  0.52325710421E+03  0.53064073794E+03  0.14436582540E+04  0.60003265332E+03 0.  0.
        -24    2    4    4    0    0 -0.10980678584E+04  0.36040654530E+03  0.42838994522E+03  0.12350653354E+04  0.78883064683E+02 0.  0.
         24    2    4    4    0    0  0.16988592469E+02  0.16285055891E+03  0.10225079272E+03  0.20859291857E+03  0.79037106818E+02 0.  0.
         11    1    3    3    0    0  0.69515930282E+03 -0.37865474406E+03  0.82791773109E+03  0.11454578303E+04  0.00000000000E+00 0. -1.
        -12    1    3    3    0    0  0.38591996316E+03 -0.14460236015E+03  0.43406591174E+03  0.59854596838E+03  0.00000000000E+00 0.  1.
         13    1    5    5    0    0 -0.48221605399E+03  0.19386619381E+03  0.21355134927E+03  0.56189020511E+03  0.00000000000E+00 0. -1.
        -14    1    5    5    0    0 -0.61585180445E+03  0.16654035149E+03  0.21483859595E+03  0.67317513028E+03  0.00000000000E+00 0.  1.
          2    1    6    6  502    0 -0.20565447787E+02  0.10540434153E+03  0.87185158558E+02  0.13832665950E+03  0.00000000000E+00 0. -1.
         -1    1    6    6    0  502  0.37554040256E+02  0.57446217376E+02  0.15065634163E+02  0.70266259065E+02  0.00000000000E+00 0.  1.
<mgrwt>
<rscale>  0 0.12687212E+04</rscale>
<asrwt>0</asrwt>
<pdfrwt beam="1">  1        1 0.38309895E+00 0.12687212E+04</pdfrwt>
<pdfrwt beam="2">  1       -2 0.10731059E+00 0.12687212E+04</pdfrwt>
<totfact> 0.82347011E-01</totfact>
</mgrwt>
</event>
<event>
12    3  0.2269558E-007  0.5961761E+03  0.7818608E-02  0.9913371E-01
          1   -1    0    0  501    0  0.00000000000E+00  0.00000000000E+00  0.10435029823E+04  0.10435029823E+04  0.00000000000E+00 0. -1.
         -2   -1    0    0    0  501 -0.00000000000E+00 -0.00000000000E+00 -0.11585865232E+04  0.11585865232E+04  0.00000000000E+00 0.  1.
        -24    2    1    2    0    0 -0.20479030180E+02 -0.58344350086E+03  0.77924657808E+03  0.97709238703E+03  0.81600208098E+02 0.  0.
    5000000    2    1    2    0    0  0.20479030180E+02  0.58344350086E+03 -0.89433011903E+03  0.12249971185E+04  0.59997155700E+03 0.  0.
        -24    2    4    4    0    0  0.18922451502E+02  0.31358571246E+03 -0.40988671314E+02  0.32651261661E+03  0.78970623642E+02 0.  0.
         24    2    4    4    0    0  0.15565786787E+01  0.26985778840E+03 -0.85334144771E+03  0.89848450191E+03  0.79101990414E+02 0.  0.
         11    1    3    3    0    0  0.18307817360E+02 -0.43290522052E+03  0.59448777173E+03  0.73563429560E+03  0.00000000000E+00 0. -1.
        -12    1    3    3    0    0 -0.38786847541E+02 -0.15053828034E+03  0.18475880635E+03  0.24145809142E+03  0.00000000000E+00 0.  1.
         11    1    5    5    0    0  0.44273589234E+02  0.13647365555E+03 -0.34052017969E+02  0.14746100939E+03  0.00000000000E+00 0. -1.
        -12    1    5    5    0    0 -0.25351137733E+02  0.17711205692E+03 -0.69366533444E+01  0.17905160722E+03  0.00000000000E+00 0.  1.
          4    1    6    6  502    0 -0.10188064964E+02  0.26926013806E+03 -0.81669277644E+03  0.85999529632E+03  0.00000000000E+00 0. -1.
         -3    1    6    6    0  502  0.11744643643E+02  0.59765034197E+00 -0.36648671277E+02  0.38489205586E+02  0.00000000000E+00 0.  1.
<mgrwt>
<rscale>  0 0.59617614E+03</rscale>
<asrwt>0</asrwt>
<pdfrwt beam="1">  1        1 0.16053892E+00 0.59617614E+03</pdfrwt>
<pdfrwt beam="2">  1       -2 0.17824408E+00 0.59617614E+03</pdfrwt>
<totfact> 0.24199417E+00</totfact>
</mgrwt>
</event>
<event>
12    3  0.2269558E-007  0.1314449E+04  0.7818608E-02  0.9018185E-01
          1   -1    0    0  501    0  0.00000000000E+00  0.00000000000E+00  0.18776733051E+04  0.18776733051E+04  0.00000000000E+00 0. -1.
         -2   -1    0    0    0  501 -0.00000000000E+00 -0.00000000000E+00 -0.95407837355E+03  0.95407837355E+03  0.00000000000E+00 0.  1.
        -24    2    1    2    0    0 -0.22922013826E+03  0.12476403242E+04  0.50176721219E+03  0.13664614766E+04  0.79362343403E+02 0.  0.
    5000000    2    1    2    0    0  0.22922013826E+03 -0.12476403242E+04  0.42182771933E+03  0.14652902020E+04  0.59999041734E+03 0.  0.
        -24    2    4    4    0    0  0.25652572881E+03 -0.12831372981E+04  0.40426146293E+03  0.13721249649E+04  0.83981031493E+02 0.  0.
         24    2    4    4    0    0 -0.27305590543E+02  0.35496973897E+02  0.17566256404E+02  0.93165237066E+02  0.79784444617E+02 0.  0.
         13    1    3    3    0    0 -0.13990239271E+03  0.86673937136E+03  0.31313595491E+03  0.93212871623E+03  0.00000000000E+00 0. -1.
        -14    1    3    3    0    0 -0.89317745557E+02  0.38090095284E+03  0.18863125728E+03  0.43433276041E+03  0.00000000000E+00 0.  1.
         13    1    5    5    0    0  0.14865549367E+03 -0.93315520020E+03  0.28496293580E+03  0.98695539830E+03  0.00000000000E+00 0. -1.
        -14    1    5    5    0    0  0.10787023513E+03 -0.34998209790E+03  0.11929852713E+03  0.38516956662E+03  0.00000000000E+00 0.  1.
          4    1    6    6  502    0 -0.17010669642E+01  0.16717720712E+02 -0.30929138427E+02  0.35199253095E+02  0.00000000000E+00 0. -1.
         -3    1    6    6    0  502 -0.25604523578E+02  0.18779253185E+02  0.48495394831E+02  0.57965983971E+02  0.00000000000E+00 0.  1.
<mgrwt>
<rscale>  0 0.13144491E+04</rscale>
<asrwt>0</asrwt>
<pdfrwt beam="1">  1        1 0.28887282E+00 0.13144491E+04</pdfrwt>
<pdfrwt beam="2">  1       -2 0.14678129E+00 0.13144491E+04</pdfrwt>
<totfact> 0.96896392E-01</totfact>
</mgrwt>
</event>
<event>
12    3  0.2269558E-007  0.4339044E+03  0.7818608E-02  0.1032634E+00
         -2   -1    0    0    0  501 -0.00000000000E+00  0.00000000000E+00  0.32524018703E+03  0.32524018703E+03  0.00000000000E+00 0.  1.
          1   -1    0    0  501    0  0.00000000000E+00 -0.00000000000E+00 -0.78906112479E+03  0.78906112479E+03  0.00000000000E+00 0. -1.
        -24    2    1    2    0    0  0.66789791538E+02 -0.30345975839E+03 -0.24595154414E+03  0.40436981921E+03  0.80461713899E+02 0.  0.
    5000000    2    1    2    0    0 -0.66789791538E+02  0.30345975839E+03 -0.21786939361E+03  0.70993149261E+03  0.59998912516E+03 0.  0.
        -24    2    4    4    0    0 -0.20629449433E+03  0.28256617974E+01 -0.28640641398E+03  0.36203640166E+03  0.80475582650E+02 0.  0.
         24    2    4    4    0    0  0.13950470279E+03  0.30063409659E+03  0.68537020374E+02  0.34789509095E+03  0.80568287850E+02 0.  0.
         11    1    3    3    0    0 -0.15028604891E+02 -0.10851059094E+03 -0.84754468422E+02  0.13850533285E+03  0.00000000000E+00 0. -1.
        -12    1    3    3    0    0  0.81818396429E+02 -0.19494916745E+03 -0.16119707572E+03  0.26586448636E+03  0.00000000000E+00 0.  1.
         13    1    5    5    0    0 -0.95913254233E+02 -0.61606775449E+01 -0.69873252196E+02  0.11882582908E+03  0.00000000000E+00 0. -1.
        -14    1    5    5    0    0 -0.11038124010E+03  0.89863393423E+01 -0.21653316179E+03  0.24321057258E+03  0.00000000000E+00 0.  1.
          2    1    6    6  502    0  0.36019898867E+01  0.85123738010E+02  0.29366188749E+02  0.90118800178E+02  0.00000000000E+00 0. -1.
         -1    1    6    6    0  502  0.13590271291E+03  0.21551035858E+03  0.39170831626E+02  0.25777629077E+03  0.00000000000E+00 0.  1.
<mgrwt>
<rscale>  0 0.43390439E+03</rscale>
<asrwt>0</asrwt>
<pdfrwt beam="1">  1        1 0.12139402E+00 0.43390439E+03</pdfrwt>
<pdfrwt beam="2">  1       -2 0.50036952E-01 0.43390439E+03</pdfrwt>
<totfact> 0.78444094E+01</totfact>
</mgrwt>
</event>
<event>
12    3  0.2269558E-007  0.3721127E+03  0.7818608E-02  0.1053888E+00
         -2   -1    0    0    0  501 -0.00000000000E+00  0.00000000000E+00  0.28935292322E+03  0.28935292322E+03  0.00000000000E+00 0.  1.
          1   -1    0    0  501    0  0.00000000000E+00 -0.00000000000E+00 -0.10580023097E+04  0.10580023097E+04  0.00000000000E+00 0. -1.
        -24    2    1    2    0    0 -0.26464008669E+03  0.25562886181E+03 -0.41151550486E+03  0.55765731485E+03  0.79096015066E+02 0.  0.
    5000000    2    1    2    0    0  0.26464008669E+03 -0.25562886181E+03 -0.35713388162E+03  0.78969791808E+03  0.60058113685E+03 0.  0.
        -24    2    4    4    0    0  0.19383305741E+03 -0.20606520480E+03  0.10551996247E+03  0.31291732894E+03  0.82150286063E+02 0.  0.
         24    2    4    4    0    0  0.70807029284E+02 -0.49563657005E+02 -0.46265384410E+03  0.47678058913E+03  0.76164028427E+02 0.  0.
         11    1    3    3    0    0 -0.17388908757E+03  0.17122588570E+03 -0.21453479781E+03  0.32493214396E+03  0.00000000000E+00 0. -1.
        -12    1    3    3    0    0 -0.90750999120E+02  0.84402976109E+02 -0.19698070705E+03  0.23272517089E+03  0.00000000000E+00 0.  1.
         13    1    5    5    0    0  0.85951958257E+02 -0.67697899019E+02  0.24680493340E+01  0.10943873139E+03  0.00000000000E+00 0. -1.
        -14    1    5    5    0    0  0.10788109915E+03 -0.13836730578E+03  0.10305191314E+03  0.20347859756E+03  0.00000000000E+00 0.  1.
          2    1    6    6  502    0  0.61736775713E+02 -0.27602433834E+02 -0.16699327906E+03  0.18016680904E+03  0.00000000000E+00 0. -1.
         -1    1    6    6    0  502  0.90702535708E+01 -0.21961223171E+02 -0.29566056504E+03  0.29661378010E+03  0.00000000000E+00 0.  1.
<mgrwt>
<rscale>  0 0.37211268E+03</rscale>
<asrwt>0</asrwt>
<pdfrwt beam="1">  1        1 0.16276959E+00 0.37211268E+03</pdfrwt>
<pdfrwt beam="2">  1       -2 0.44515835E-01 0.37211268E+03</pdfrwt>
<totfact> 0.61175552E+01</totfact>
</mgrwt>
</event>
<event>
12    3  0.2269558E-007  0.8973336E+03  0.7818608E-02  0.9428921E-01
          1   -1    0    0  501    0  0.00000000000E+00  0.00000000000E+00  0.10933827198E+04  0.10933827198E+04  0.00000000000E+00 0. -1.
         -2   -1    0    0    0  501 -0.00000000000E+00 -0.00000000000E+00 -0.81745889734E+03  0.81745889734E+03  0.00000000000E+00 0.  1.
        -24    2    1    2    0    0 -0.51069541075E+03  0.62828863613E+03  0.37946027411E+03  0.89770548466E+03  0.79552653675E+02 0.  0.
    5000000    2    1    2    0    0  0.51069541075E+03 -0.62828863613E+03 -0.10353645167E+03  0.10131361325E+04  0.60014049456E+03 0.  0.
        -24    2    4    4    0    0  0.61606969597E+03 -0.46917668990E+03 -0.16804617722E+03  0.79633423617E+03  0.78994059143E+02 0.  0.
         24    2    4    4    0    0 -0.10537428522E+03 -0.15911194623E+03  0.64509725544E+02  0.21680189628E+03  0.80132428668E+02 0.  0.
         11    1    3    3    0    0 -0.50322104371E+03  0.60098441760E+03  0.35582950303E+03  0.86083002054E+03  0.00000000000E+00 0. -1.
        -12    1    3    3    0    0 -0.74743670392E+01  0.27304218528E+02  0.23630771089E+02  0.36875464124E+02  0.00000000000E+00 0.  1.
         11    1    5    5    0    0  0.33373149402E+03 -0.22512623205E+03 -0.11992505117E+03  0.42004826908E+03  0.00000000000E+00 0. -1.
        -12    1    5    5    0    0  0.28233820195E+03 -0.24405045785E+03 -0.48121126044E+02  0.37628596709E+03  0.00000000000E+00 0.  1.
          2    1    6    6  502    0 -0.94772840357E+02 -0.72060784354E+02  0.42190706172E+02  0.12631192975E+03  0.00000000000E+00 0. -1.
         -1    1    6    6    0  502 -0.10601444865E+02 -0.87051161873E+02  0.22319019372E+02  0.90489966529E+02  0.00000000000E+00 0.  1.
<mgrwt>
<rscale>  0 0.89733357E+03</rscale>
<asrwt>0</asrwt>
<pdfrwt beam="1">  1        1 0.16821273E+00 0.89733357E+03</pdfrwt>
<pdfrwt beam="2">  1       -2 0.12576291E+00 0.89733357E+03</pdfrwt>
<totfact> 0.53522542E+00</totfact>
</mgrwt>
</event>
<event>
12    3  0.2269558E-007  0.3272572E+03  0.7818608E-02  0.1072357E+00
         -2   -1    0    0    0  501 -0.00000000000E+00  0.00000000000E+00  0.15364080809E+04  0.15364080809E+04  0.00000000000E+00 0.  1.
          1   -1    0    0  501    0  0.00000000000E+00 -0.00000000000E+00 -0.14787636061E+03  0.14787636061E+03  0.00000000000E+00 0. -1.
        -24    2    1    2    0    0 -0.16656673444E+03  0.22198465308E+03  0.36370408139E+03  0.46453749471E+03  0.80577676460E+02 0.  0.
    5000000    2    1    2    0    0  0.16656673444E+03 -0.22198465308E+03  0.10248276389E+04  0.12197469468E+04  0.60040757951E+03 0.  0.
        -24    2    4    4    0    0  0.74497165975E+01  0.14908994251E+02  0.89195863559E+03  0.89569046348E+03  0.79958879283E+02 0.  0.
         24    2    4    4    0    0  0.15911701785E+03 -0.23689364733E+03  0.13286900326E+03  0.32405648327E+03  0.76951977309E+02 0.  0.
         11    1    3    3    0    0 -0.11724073704E+03  0.89140383238E+02  0.18441292068E+03  0.23600746526E+03  0.00000000000E+00 0. -1.
        -12    1    3    3    0    0 -0.49325997399E+02  0.13284426984E+03  0.17929116071E+03  0.22853002944E+03  0.00000000000E+00 0.  1.
         11    1    5    5    0    0 -0.22983663003E+02  0.28835261796E+02  0.23458985514E+03  0.23747025334E+03  0.00000000000E+00 0. -1.
        -12    1    5    5    0    0  0.30433379600E+02 -0.13926267545E+02  0.65736878045E+03  0.65822021014E+03  0.00000000000E+00 0.  1.
          4    1    6    6  502    0  0.13488508246E+03 -0.23489862389E+03  0.12630740245E+03  0.29887273025E+03  0.00000000000E+00 0. -1.
         -3    1    6    6    0  502  0.24231935381E+02 -0.19950234361E+01  0.65616008155E+01  0.25183753019E+02  0.00000000000E+00 0.  1.
<mgrwt>
<rscale>  0 0.32725719E+03</rscale>
<asrwt>0</asrwt>
<pdfrwt beam="1">  1        1 0.22750210E-01 0.32725719E+03</pdfrwt>
<pdfrwt beam="2">  1       -2 0.23637046E+00 0.32725719E+03</pdfrwt>
<totfact> 0.16272224E+01</totfact>
</mgrwt>
</event>
<event>
12    3  0.2269558E-007  0.7285549E+03  0.7818608E-02  0.9669608E-01
         -4   -1    0    0    0  501 -0.00000000000E+00  0.00000000000E+00  0.13656102658E+03  0.13656102658E+03  0.00000000000E+00 0.  1.
          3   -1    0    0  501    0  0.00000000000E+00 -0.00000000000E+00 -0.44200854753E+04  0.44200854753E+04  0.00000000000E+00 0. -1.
        -24    2    1    2    0    0 -0.37008899284E+03  0.54093838147E+03 -0.16470438319E+04  0.17744882711E+04  0.80467665420E+02 0.  0.
    5000000    2    1    2    0    0  0.37008899284E+03 -0.54093838147E+03 -0.26364806169E+04  0.27821582308E+04  0.59982846102E+03 0.  0.
        -24    2    4    4    0    0  0.30867257133E+03 -0.74600026487E+02 -0.53470523518E+03  0.62709125027E+03  0.80559464940E+02 0.  0.
         24    2    4    4    0    0  0.61416421508E+02 -0.46633835498E+03 -0.21017753817E+04  0.21550669805E+04  0.74903251872E+02 0.  0.
         11    1    5    5    0    0  0.28595776447E+03 -0.90286836668E+02 -0.48433068204E+03  0.56964880892E+03  0.00000000000E+00 0. -1.
        -12    1    5    5    0    0  0.22714806862E+02  0.15686810181E+02 -0.50374553144E+02  0.57442441355E+02  0.00000000000E+00 0.  1.
         13    1    3    3    0    0 -0.35137031189E+03  0.51625190347E+03 -0.15109951862E+04  0.16349567507E+04  0.00000000000E+00 0. -1.
        -14    1    3    3    0    0 -0.18718680948E+02  0.24686478000E+02 -0.13604864567E+03  0.13953152046E+03  0.00000000000E+00 0.  1.
          4    1    6    6  502    0  0.38933065803E+02 -0.10261781585E+03 -0.57736820293E+03  0.58770761566E+03  0.00000000000E+00 0. -1.
         -3    1    6    6    0  502  0.22483355704E+02 -0.36372053913E+03 -0.15244071788E+04  0.15673593648E+04  0.00000000000E+00 0.  1.
<mgrwt>
<rscale>  0 0.72855494E+03</rscale>
<asrwt>0</asrwt>
<pdfrwt beam="1">  1        3 0.68001309E+00 0.72855494E+03</pdfrwt>
<pdfrwt beam="2">  1       -4 0.21009390E-01 0.72855494E+03</pdfrwt>
<totfact> 0.22803178E-02</totfact>
</mgrwt>
</event>
<event>
12    3  0.2269558E-007  0.7768373E+03  0.7818608E-02  0.9594163E-01
         -4   -1    0    0    0  501 -0.00000000000E+00  0.00000000000E+00  0.12217060371E+04  0.12217060371E+04  0.00000000000E+00 0.  1.
          3   -1    0    0  501    0  0.00000000000E+00 -0.00000000000E+00 -0.65425990583E+03  0.65425990583E+03  0.00000000000E+00 0. -1.
        -24    2    1    2    0    0 -0.60256312532E+03  0.28224993720E+03 -0.19789607533E+03  0.69760095013E+03  0.68825009564E+02 0.  0.
    5000000    2    1    2    0    0  0.60256312532E+03 -0.28224993720E+03  0.76534220664E+03  0.11783649928E+04  0.60004001204E+03 0.  0.
        -24    2    4    4    0    0 -0.35881315856E+02  0.10537101531E+03  0.17783765165E+03  0.22478356507E+03  0.80690154832E+02 0.  0.
         24    2    4    4    0    0  0.63844444118E+03 -0.38762095251E+03  0.58750455498E+03  0.95358142777E+03  0.79338704076E+02 0.  0.
         11    1    3    3    0    0 -0.85239428751E+02  0.15783535716E+02 -0.33169276365E+02  0.92817461224E+02  0.00000000000E+00 0. -1.
        -12    1    3    3    0    0 -0.51732369657E+03  0.26646640149E+03 -0.16472679897E+03  0.60478348891E+03  0.00000000000E+00 0.  1.
         13    1    5    5    0    0 -0.55523017871E+02  0.46784097693E+02  0.11935884895E+03  0.13970716565E+03  0.00000000000E+00 0. -1.
        -14    1    5    5    0    0  0.19641702015E+02  0.58586917614E+02  0.58478802701E+02  0.85076399423E+02  0.00000000000E+00 0.  1.
          4    1    6    6  502    0  0.87900796650E+02 -0.85746716488E+02  0.10829833323E+03  0.16373020009E+03  0.00000000000E+00 0. -1.
         -3    1    6    6    0  502  0.55054364453E+03 -0.30187423602E+03  0.47920622175E+03  0.78985122768E+03  0.00000000000E+00 0.  1.
<mgrwt>
<rscale>  0 0.77683729E+03</rscale>
<asrwt>0</asrwt>
<pdfrwt beam="1">  1        3 0.10065537E+00 0.77683729E+03</pdfrwt>
<pdfrwt beam="2">  1       -4 0.18795477E+00 0.77683729E+03</pdfrwt>
<totfact> 0.30755095E-01</totfact>
</mgrwt>
</event>
<event>
12    3  0.2269558E-007  0.5492912E+03  0.7818608E-02  0.1001658E+00
         -2   -1    0    0    0  501 -0.00000000000E+00  0.00000000000E+00  0.10995163043E+03  0.10995163043E+03  0.00000000000E+00 0.  1.
          1   -1    0    0  501    0  0.00000000000E+00 -0.00000000000E+00 -0.35347784562E+04  0.35347784562E+04  0.00000000000E+00 0. -1.
        -24    2    1    2    0    0  0.28529722475E+03 -0.31267121222E+03 -0.19524686094E+04  0.19993987759E+04  0.79397739782E+02 0.  0.
    5000000    2    1    2    0    0 -0.28529722475E+03  0.31267121222E+03 -0.14723582164E+04  0.16453313107E+04  0.60009883456E+03 0.  0.
        -24    2    4    4    0    0  0.12407290340E+03 -0.31057592967E+02 -0.13179416289E+03  0.19992992274E+03  0.79016537503E+02 0.  0.
         24    2    4    4    0    0 -0.40937012815E+03  0.34372880519E+03 -0.13405640535E+04  0.14454013879E+04  0.79622845102E+02 0.  0.
         11    1    5    5    0    0  0.11629785171E+03 -0.91767817544E+01 -0.75302783357E+02  0.13885212572E+03  0.00000000000E+00 0. -1.
        -12    1    5    5    0    0  0.77750516879E+01 -0.21880811213E+02 -0.56491379529E+02  0.61077797023E+02  0.00000000000E+00 0.  1.
         13    1    3    3    0    0  0.92916415737E+02 -0.88833073048E+02 -0.76965645170E+03  0.78031777426E+03  0.00000000000E+00 0. -1.
        -14    1    3    3    0    0  0.19238080901E+03 -0.22383813917E+03 -0.11828121577E+04  0.12190810017E+04  0.00000000000E+00 0.  1.
          2    1    6    6  502    0 -0.37030046722E+03  0.30196546393E+03 -0.11225220462E+04  0.12199841481E+04  0.00000000000E+00 0. -1.
         -1    1    6    6    0  502 -0.39069660922E+02  0.41763341257E+02 -0.21804200727E+03  0.22541723983E+03  0.00000000000E+00 0.  1.
<mgrwt>
<rscale>  0 0.54929123E+03</rscale>
<asrwt>0</asrwt>
<pdfrwt beam="1">  1        1 0.54381208E+00 0.54929123E+03</pdfrwt>
<pdfrwt beam="2">  1       -2 0.16915635E-01 0.54929123E+03</pdfrwt>
<totfact> 0.66173441E+00</totfact>
</mgrwt>
</event>
<event>
12    3  0.2269558E-007  0.1572176E+04  0.7818608E-02  0.8837826E-01
          1   -1    0    0  501    0  0.00000000000E+00  0.00000000000E+00  0.12099517684E+04  0.12099517684E+04  0.00000000000E+00 0. -1.
         -2   -1    0    0    0  501 -0.00000000000E+00 -0.00000000000E+00 -0.27766494297E+04  0.27766494297E+04  0.00000000000E+00 0.  1.
        -24    2    1    2    0    0 -0.12117444714E+04  0.95451322415E+03  0.20949432223E+03  0.15588023992E+04  0.80974623990E+02 0.  0.
    5000000    2    1    2    0    0  0.12117444714E+04 -0.95451322415E+03 -0.17761919836E+04  0.24277987989E+04  0.59994073569E+03 0.  0.
        -24    2    4    4    0    0  0.65607374949E+02 -0.24307354469E+03 -0.11827382637E+03  0.28894518769E+03  0.78176388443E+02 0.  0.
         24    2    4    4    0    0  0.11461370964E+04 -0.71143967946E+03 -0.16579181572E+04  0.21388536112E+04  0.78901792002E+02 0.  0.
         11    1    5    5    0    0  0.66709501835E+01 -0.40466759392E+02  0.97279076303E+01  0.42150828924E+02  0.00000000000E+00 0. -1.
        -12    1    5    5    0    0  0.58936424766E+02 -0.20260678530E+03 -0.12800173400E+03  0.24679435877E+03  0.00000000000E+00 0.  1.
         13    1    3    3    0    0 -0.27334058729E+03  0.19991597713E+03  0.14564483848E+02  0.33895958279E+03  0.00000000000E+00 0. -1.
        -14    1    3    3    0    0 -0.93840388408E+03  0.75459724702E+03  0.19492983838E+03  0.12198428164E+04  0.00000000000E+00 0.  1.
          4    1    6    6  502    0  0.39375536644E+03 -0.26567996594E+03 -0.63654607409E+03  0.79424180029E+03  0.00000000000E+00 0. -1.
         -3    1    6    6    0  502  0.75238172999E+03 -0.44575971352E+03 -0.10213720832E+04  0.13446118109E+04  0.00000000000E+00 0.  1.
<mgrwt>
<rscale>  0 0.15721764E+04</rscale>
<asrwt>0</asrwt>
<pdfrwt beam="1">  1        1 0.18614642E+00 0.15721764E+04</pdfrwt>
<pdfrwt beam="2">  1       -2 0.42717684E+00 0.15721764E+04</pdfrwt>
<totfact> 0.42506748E-02</totfact>
</mgrwt>
</event>
<event>
12    3  0.2269558E-007  0.7545650E+03  0.7818608E-02  0.9628216E-01
         -2   -1    0    0    0  501 -0.00000000000E+00  0.00000000000E+00  0.24715418579E+03  0.24715418579E+03  0.00000000000E+00 0.  1.
          1   -1    0    0  501    0  0.00000000000E+00 -0.00000000000E+00 -0.29313855007E+04  0.29313855007E+04  0.00000000000E+00 0. -1.
        -24    2    1    2    0    0 -0.73660505211E+03 -0.73066859115E+02 -0.10432564424E+04  0.12809869687E+04  0.67954695715E+02 0.  0.
    5000000    2    1    2    0    0  0.73660505211E+03  0.73066859115E+02 -0.16409748725E+04  0.18975527178E+04  0.59998501307E+03 0.  0.
        -24    2    4    4    0    0  0.13276900626E+03  0.51330618326E+02 -0.18056820075E+02  0.16390966881E+03  0.79233133080E+02 0.  0.
         24    2    4    4    0    0  0.60383604585E+03  0.21736240789E+02 -0.16229180524E+04  0.17336430490E+04  0.81023342010E+02 0.  0.
         13    1    3    3    0    0 -0.46049496033E+03 -0.47107864826E+02 -0.59466044645E+03  0.75358861854E+03  0.00000000000E+00 0. -1.
        -14    1    3    3    0    0 -0.27611009178E+03 -0.25958994289E+02 -0.44859599599E+03  0.52739835019E+03  0.00000000000E+00 0.  1.
         13    1    5    5    0    0  0.81929078267E+02 -0.10793286619E+02 -0.90954289306E+01  0.83136007416E+02  0.00000000000E+00 0. -1.
        -14    1    5    5    0    0  0.50839927993E+02  0.62123904945E+02 -0.89613911443E+01  0.80773661395E+02  0.00000000000E+00 0.  1.
          4    1    6    6  502    0  0.45868886113E+03 -0.33046616432E+01 -0.13048325446E+04  0.13831103938E+04  0.00000000000E+00 0. -1.
         -3    1    6    6    0  502  0.14514718472E+03  0.25040902432E+02 -0.31808550783E+03  0.35053265514E+03  0.00000000000E+00 0.  1.
<mgrwt>
<rscale>  0 0.75456502E+03</rscale>
<asrwt>0</asrwt>
<pdfrwt beam="1">  1        1 0.45098238E+00 0.75456502E+03</pdfrwt>
<pdfrwt beam="2">  1       -2 0.38023721E-01 0.75456502E+03</pdfrwt>
<totfact> 0.40899317E+00</totfact>
</mgrwt>
</event>
<event>
12    3  0.2269558E-007  0.6509295E+03  0.7818608E-02  0.9805037E-01
          1   -1    0    0  501    0  0.00000000000E+00  0.00000000000E+00  0.15280427185E+04  0.15280427185E+04  0.00000000000E+00 0. -1.
         -2   -1    0    0    0  501 -0.00000000000E+00 -0.00000000000E+00 -0.40379464682E+03  0.40379464682E+03  0.00000000000E+00 0.  1.
        -24    2    1    2    0    0 -0.56807221215E+03 -0.29350173638E+03  0.72035818411E+03  0.96643465302E+03  0.78934895132E+02 0.  0.
    5000000    2    1    2    0    0  0.56807221215E+03  0.29350173638E+03  0.40388988752E+03  0.96540271226E+03  0.60002170637E+03 0.  0.
        -24    2    4    4    0    0  0.11404884659E+03  0.12342730001E+03 -0.13957624786E+03  0.23331966460E+03  0.81945708426E+02 0.  0.
         24    2    4    4    0    0  0.45402336555E+03  0.17007443637E+03  0.54346613537E+03  0.73208304765E+03  0.74347952122E+02 0.  0.
         11    1    3    3    0    0 -0.99793945110E+02 -0.21125500177E+02  0.12887008471E+03  0.16435515499E+03  0.00000000000E+00 0. -1.
        -12    1    3    3    0    0 -0.46827826704E+03 -0.27237623620E+03  0.59148809940E+03  0.80207949803E+03  0.00000000000E+00 0.  1.
         13    1    5    5    0    0  0.62659403709E+02  0.37590509833E+02 -0.10407222839E+03  0.12716240020E+03  0.00000000000E+00 0. -1.
        -14    1    5    5    0    0  0.51389442883E+02  0.85836790173E+02 -0.35504019463E+02  0.10615726440E+03  0.00000000000E+00 0.  1.
          4    1    6    6  502    0  0.22933502286E+03  0.78951107184E+02  0.32640220558E+03  0.40665246814E+03  0.00000000000E+00 0. -1.
         -3    1    6    6    0  502  0.22468834269E+03  0.91123329188E+02  0.21706392979E+03  0.32543057951E+03  0.00000000000E+00 0.  1.
<mgrwt>
<rscale>  0 0.65092954E+03</rscale>
<asrwt>0</asrwt>
<pdfrwt beam="1">  1        1 0.23508349E+00 0.65092954E+03</pdfrwt>
<pdfrwt beam="2">  1       -2 0.62122254E-01 0.65092954E+03</pdfrwt>
<totfact> 0.13818789E+01</totfact>
</mgrwt>
</event>
<event>
12    3  0.2269558E-007  0.4411946E+03  0.7818608E-02  0.1030381E+00
          1   -1    0    0  501    0  0.00000000000E+00  0.00000000000E+00  0.64588343513E+03  0.64588343513E+03  0.00000000000E+00 0. -1.
         -2   -1    0    0    0  501 -0.00000000000E+00 -0.00000000000E+00 -0.44838857943E+03  0.44838857943E+03  0.00000000000E+00 0.  1.
        -24    2    1    2    0    0  0.20947897435E+03  0.29540834276E+03  0.11732717768E+03  0.38876396255E+03  0.78893740465E+02 0.  0.
    5000000    2    1    2    0    0 -0.20947897435E+03 -0.29540834276E+03  0.80167678021E+02  0.70550805201E+03  0.60013933814E+03 0.  0.
        -24    2    4    4    0    0  0.83527528797E+02 -0.66027218616E+02 -0.19281583197E+03  0.23618221022E+03  0.85250511449E+02 0.  0.
         24    2    4    4    0    0 -0.29300650315E+03 -0.22938112415E+03  0.27298350999E+03  0.46932584179E+03  0.85312590161E+02 0.  0.
         11    1    3    3    0    0  0.17077585784E+03  0.20715901003E+03  0.55148123206E+02  0.27408131011E+03  0.00000000000E+00 0. -1.
        -12    1    3    3    0    0  0.38703116513E+02  0.88249332729E+02  0.62179054472E+02  0.11468265244E+03  0.00000000000E+00 0.  1.
         11    1    5    5    0    0  0.46423359244E+02 -0.83031206486E+02 -0.12583794977E+03  0.15774821437E+03  0.00000000000E+00 0. -1.
        -12    1    5    5    0    0  0.37104169552E+02  0.17003987870E+02 -0.66977882198E+02  0.78433995853E+02  0.00000000000E+00 0.  1.
          2    1    6    6  502    0 -0.17875262201E+03 -0.18972154168E+03  0.18009437310E+03  0.31682920710E+03  0.00000000000E+00 0. -1.
         -1    1    6    6    0  502 -0.11425388114E+03 -0.39659582468E+02  0.92889136893E+02  0.15249663469E+03  0.00000000000E+00 0.  1.
<mgrwt>
<rscale>  0 0.44119461E+03</rscale>
<asrwt>0</asrwt>
<pdfrwt beam="1">  1        1 0.99366682E-01 0.44119461E+03</pdfrwt>
<pdfrwt beam="2">  1       -2 0.68982859E-01 0.44119461E+03</pdfrwt>
<totfact> 0.54154671E+01</totfact>
</mgrwt>
</event>
<event>
12    3  0.2269558E-007  0.2093117E+04  0.7818608E-02  0.8564281E-01
         -2   -1    0    0    0  501 -0.00000000000E+00  0.00000000000E+00  0.20807725996E+04  0.20807725996E+04  0.00000000000E+00 0.  1.
          1   -1    0    0  501    0  0.00000000000E+00 -0.00000000000E+00 -0.21095074894E+04  0.21095074894E+04  0.00000000000E+00 0. -1.
        -24    2    1    2    0    0  0.15324623700E+04 -0.13636515259E+04 -0.13267116051E+00  0.20528652568E+04  0.79179198111E+02 0.  0.
    5000000    2    1    2    0    0 -0.15324623700E+04  0.13636515259E+04 -0.28602218621E+02  0.21374148322E+04  0.59978135872E+03 0.  0.
        -24    2    4    4    0    0 -0.58960281598E+03  0.90805657651E+03 -0.52584040743E+02  0.10869049859E+04  0.79994626924E+02 0.  0.
         24    2    4    4    0    0 -0.94285955402E+03  0.45559494943E+03  0.23981822121E+02  0.10505098463E+04  0.80280213882E+02 0.  0.
         11    1    5    5    0    0 -0.28343136637E+02  0.77163135553E+02 -0.14606377819E+02  0.83491491517E+02  0.00000000000E+00 0. -1.
        -12    1    5    5    0    0 -0.56125967934E+03  0.83089344096E+03 -0.37977662924E+02  0.10034134944E+04  0.00000000000E+00 0.  1.
         13    1    3    3    0    0  0.61062523608E+03 -0.51292845927E+03 -0.31241036161E+02  0.79808194167E+03  0.00000000000E+00 0. -1.
        -14    1    3    3    0    0  0.92183713391E+03 -0.85072306667E+03  0.31108365000E+02  0.12547833152E+04  0.00000000000E+00 0.  1.
          2    1    6    6  502    0 -0.58155933818E+03  0.31824637925E+03 -0.42305812535E+01  0.66295544311E+03  0.00000000000E+00 0. -1.
         -1    1    6    6    0  502 -0.36130021584E+03  0.13734857018E+03  0.28212403375E+02  0.38755440315E+03  0.00000000000E+00 0.  1.
<mgrwt>
<rscale>  0 0.20931172E+04</rscale>
<asrwt>0</asrwt>
<pdfrwt beam="1">  1        1 0.32453961E+00 0.20931172E+04</pdfrwt>
<pdfrwt beam="2">  1       -2 0.32011886E+00 0.20931172E+04</pdfrwt>
<totfact> 0.46368742E-02</totfact>
</mgrwt>
</event>
<event>
12    3  0.2269558E-007  0.4599943E+03  0.7818608E-02  0.1024783E+00
          1   -1    0    0  501    0  0.00000000000E+00  0.00000000000E+00  0.48777189088E+03  0.48777189088E+03  0.00000000000E+00 0. -1.
         -2   -1    0    0    0  501 -0.00000000000E+00 -0.00000000000E+00 -0.59552522694E+03  0.59552522694E+03  0.00000000000E+00 0.  1.
        -24    2    1    2    0    0 -0.17545079494E+03 -0.26673452428E+03  0.14392844210E+03  0.35839975028E+03  0.76188559954E+02 0.  0.
    5000000    2    1    2    0    0  0.17545079494E+03  0.26673452428E+03 -0.25168177816E+03  0.72489736754E+03  0.60016846645E+03 0.  0.
        -24    2    4    4    0    0  0.34201603927E+03  0.11889821125E+03  0.13301247675E+02  0.36931575385E+03  0.71452411391E+02 0.  0.
         24    2    4    4    0    0 -0.16656524434E+03  0.14783631303E+03 -0.26498302583E+03  0.35558161369E+03  0.81380120069E+02 0.  0.
         11    1    5    5    0    0  0.15182080929E+03  0.15649831914E+02  0.28853335007E+01  0.15265254836E+03  0.00000000000E+00 0. -1.
        -12    1    5    5    0    0  0.19019522998E+03  0.10324837934E+03  0.10415914174E+02  0.21666320549E+03  0.00000000000E+00 0.  1.
         13    1    3    3    0    0 -0.36228428507E+02 -0.12252605998E+03  0.57607014738E+02  0.14015599364E+03  0.00000000000E+00 0. -1.
        -14    1    3    3    0    0 -0.13922236643E+03 -0.14420846430E+03  0.86321427361E+02  0.21824375664E+03  0.00000000000E+00 0.  1.
          2    1    6    6  502    0 -0.14269656708E+03  0.12508859334E+03 -0.16905014945E+03  0.25414055062E+03  0.00000000000E+00 0. -1.
         -1    1    6    6    0  502 -0.23868677254E+02  0.22747719691E+02 -0.95932876387E+02  0.10144106307E+03  0.00000000000E+00 0.  1.
<mgrwt>
<rscale>  0 0.45999430E+03</rscale>
<asrwt>0</asrwt>
<pdfrwt beam="1">  1        1 0.75041830E-01 0.45999430E+03</pdfrwt>
<pdfrwt beam="2">  1       -2 0.91619265E-01 0.45999430E+03</pdfrwt>
<totfact> 0.42467268E+01</totfact>
</mgrwt>
</event>
<event>
12    3  0.2269558E-007  0.4508520E+03  0.7818608E-02  0.1027468E+00
         -2   -1    0    0    0  501 -0.00000000000E+00  0.00000000000E+00  0.22004654250E+03  0.22004654250E+03  0.00000000000E+00 0.  1.
          1   -1    0    0  501    0  0.00000000000E+00 -0.00000000000E+00 -0.11686523812E+04  0.11686523812E+04  0.00000000000E+00 0. -1.
        -24    2    1    2    0    0 -0.31048174885E+03  0.81628382342E+02 -0.36153652335E+03  0.49007123278E+03  0.79994039178E+02 0.  0.
    5000000    2    1    2    0    0  0.31048174885E+03 -0.81628382342E+02 -0.58706931532E+03  0.89862769090E+03  0.59984934500E+03 0.  0.
        -24    2    4    4    0    0 -0.81120238445E+02  0.10717389298E+03 -0.37984953358E+03  0.41068020620E+03  0.79409238647E+02 0.  0.
         24    2    4    4    0    0  0.39160198730E+03 -0.18880227532E+03 -0.20721978174E+03  0.48794748470E+03  0.78449310144E+02 0.  0.
         13    1    5    5    0    0 -0.51232463859E+01  0.24331113894E+02 -0.17720142539E+03  0.17893740782E+03  0.00000000000E+00 0. -1.
        -14    1    5    5    0    0 -0.75996992059E+02  0.82842779083E+02 -0.20264810819E+03  0.23174279838E+03  0.00000000000E+00 0.  1.
         13    1    3    3    0    0 -0.15569058428E+03  0.63929968373E+02 -0.23665035670E+03  0.29039626412E+03  0.00000000000E+00 0. -1.
        -14    1    3    3    0    0 -0.15479116457E+03  0.17698413969E+02 -0.12488616666E+03  0.19967496866E+03  0.00000000000E+00 0.  1.
          4    1    6    6  502    0  0.26030173376E+03 -0.16110514793E+03 -0.16197947272E+03  0.34633684596E+03  0.00000000000E+00 0. -1.
         -3    1    6    6    0  502  0.13130025354E+03 -0.27697127391E+02 -0.45240309020E+02  0.14161063874E+03  0.00000000000E+00 0.  1.
<mgrwt>
<rscale>  0 0.45085201E+03</rscale>
<asrwt>0</asrwt>
<pdfrwt beam="1">  1        1 0.17979267E+00 0.45085201E+03</pdfrwt>
<pdfrwt beam="2">  1       -2 0.33853315E-01 0.45085201E+03</pdfrwt>
<totfact> 0.84929959E+01</totfact>
</mgrwt>
</event>
<event>
12    3  0.2269558E-007  0.2642565E+03  0.7818608E-02  0.1104612E+00
         -2   -1    0    0    0  501 -0.00000000000E+00  0.00000000000E+00  0.20805854191E+03  0.20805854191E+03  0.00000000000E+00 0.  1.
          1   -1    0    0  501    0  0.00000000000E+00 -0.00000000000E+00 -0.16050940702E+04  0.16050940702E+04  0.00000000000E+00 0. -1.
        -24    2    1    2    0    0 -0.10362120292E+03 -0.17832815361E+03  0.55143838791E+02  0.22844907073E+03  0.81300989527E+02 0.  0.
    5000000    2    1    2    0    0  0.10362120292E+03  0.17832815361E+03 -0.14521793670E+04  0.15847035413E+04  0.59993509300E+03 0.  0.
        -24    2    4    4    0    0 -0.53129662070E+02  0.67984573808E+02 -0.13462022363E+04  0.13513919393E+04  0.80963257911E+02 0.  0.
         24    2    4    4    0    0  0.15675086499E+03  0.11034357980E+03 -0.10597713069E+03  0.23331160206E+03  0.80353046905E+02 0.  0.
         13    1    5    5    0    0  0.89217594097E+00 -0.17218586928E+02 -0.22532304111E+03  0.22598174388E+03  0.00000000000E+00 0. -1.
        -14    1    5    5    0    0 -0.54021838011E+02  0.85203160735E+02 -0.11208791952E+04  0.11254101954E+04  0.00000000000E+00 0.  1.
         13    1    3    3    0    0 -0.85834691387E+02 -0.92045790284E+02  0.26224949298E+01  0.12588446780E+03  0.00000000000E+00 0. -1.
        -14    1    3    3    0    0 -0.17786511538E+02 -0.86282363322E+02  0.52521343862E+02  0.10256460293E+03  0.00000000000E+00 0.  1.
          2    1    6    6  502    0  0.14508798128E+03  0.11365944759E+03 -0.11583490866E+03  0.21768490624E+03  0.00000000000E+00 0. -1.
         -1    1    6    6    0  502  0.11662883712E+02 -0.33158677900E+01  0.98577779749E+01  0.15626695821E+02  0.00000000000E+00 0.  1.
<mgrwt>
<rscale>  0 0.26425653E+03</rscale>
<asrwt>0</asrwt>
<pdfrwt beam="1">  1        1 0.24693754E+00 0.26425653E+03</pdfrwt>
<pdfrwt beam="2">  1       -2 0.32009008E-01 0.26425653E+03</pdfrwt>
<totfact> 0.49327038E+01</totfact>
</mgrwt>
</event>
<event>
12    3  0.2269558E-007  0.1148929E+04  0.7818608E-02  0.9158773E-01
         -2   -1    0    0    0  501 -0.00000000000E+00  0.00000000000E+00  0.76684245512E+03  0.76684245512E+03  0.00000000000E+00 0.  1.
          1   -1    0    0  501    0  0.00000000000E+00 -0.00000000000E+00 -0.19849370517E+04  0.19849370517E+04  0.00000000000E+00 0. -1.
        -24    2    1    2    0    0  0.58713387952E+02 -0.11059920548E+04 -0.19153830148E+03  0.11268276816E+04  0.79925064811E+02 0.  0.
    5000000    2    1    2    0    0 -0.58713387952E+02  0.11059920548E+04 -0.10265562951E+04  0.16249518252E+04  0.59998743320E+03 0.  0.
        -24    2    4    4    0    0 -0.23178814277E+03  0.49172499653E+03 -0.73917993555E+03  0.92109743464E+03  0.80711161811E+02 0.  0.
         24    2    4    4    0    0  0.17307475482E+03  0.61426705825E+03 -0.28737635951E+03  0.70385439052E+03  0.74477791577E+02 0.  0.
         11    1    3    3    0    0  0.31508358432E+02 -0.10096120157E+04 -0.18004868850E+03  0.10260247215E+04  0.00000000000E+00 0. -1.
        -12    1    3    3    0    0  0.27205029520E+02 -0.96380039105E+02 -0.11489612986E+02  0.10080296015E+03  0.00000000000E+00 0.  1.
         13    1    5    5    0    0 -0.36850729275E+02  0.12327917296E+03 -0.22486968302E+03  0.25907934128E+03  0.00000000000E+00 0. -1.
        -14    1    5    5    0    0 -0.19493741350E+03  0.36844582356E+03 -0.51431025252E+03  0.66201809336E+03  0.00000000000E+00 0.  1.
          4    1    6    6  502    0  0.11236889875E+03  0.26881115139E+03 -0.11784085000E+03  0.31428119646E+03  0.00000000000E+00 0. -1.
         -3    1    6    6    0  502  0.60705856073E+02  0.34545590686E+03 -0.16953550952E+03  0.38957319407E+03  0.00000000000E+00 0.  1.
<mgrwt>
<rscale>  0 0.11489285E+04</rscale>
<asrwt>0</asrwt>
<pdfrwt beam="1">  1        1 0.30537492E+00 0.11489285E+04</pdfrwt>
<pdfrwt beam="2">  1       -2 0.11797577E+00 0.11489285E+04</pdfrwt>
<totfact> 0.14622040E+00</totfact>
</mgrwt>
</event>
<event>
12    3  0.2269558E-007  0.5261996E+03  0.7818608E-02  0.1007158E+00
         -2   -1    0    0    0  501 -0.00000000000E+00  0.00000000000E+00  0.44700339028E+03  0.44700339028E+03  0.00000000000E+00 0.  1.
          1   -1    0    0  501    0  0.00000000000E+00 -0.00000000000E+00 -0.11364238821E+04  0.11364238821E+04  0.00000000000E+00 0. -1.
        -24    2    1    2    0    0  0.45253386827E+03  0.75077758048E+01  0.12357197612E+03  0.47610661843E+03  0.81019813624E+02 0.  0.
    5000000    2    1    2    0    0 -0.45253386827E+03 -0.75077758048E+01 -0.81299246796E+03  0.11073206540E+04  0.60029909971E+03 0.  0.
        -24    2    4    4    0    0 -0.30293457161E+03  0.16605464263E+03 -0.12398928617E+03  0.37639561537E+03  0.83407536618E+02 0.  0.
         24    2    4    4    0    0 -0.14959929666E+03 -0.17356241843E+03 -0.68900318179E+03  0.73092503860E+03  0.83798358482E+02 0.  0.
         11    1    3    3    0    0  0.16678000258E+03 -0.25312393683E+02  0.74114017129E+02  0.18425301644E+03  0.00000000000E+00 0. -1.
        -12    1    3    3    0    0  0.28575386569E+03  0.32820169488E+02  0.49457958993E+02  0.29185360199E+03  0.00000000000E+00 0.  1.
         13    1    5    5    0    0 -0.22583453377E+03  0.87110516235E+02 -0.62159976053E+02  0.24990666519E+03  0.00000000000E+00 0. -1.
        -14    1    5    5    0    0 -0.77100037840E+02  0.78944126395E+02 -0.61829310120E+02  0.12648895018E+03  0.00000000000E+00 0.  1.
          2    1    6    6  502    0 -0.15101480079E+03 -0.12763561324E+03 -0.54429198283E+03  0.57909419131E+03  0.00000000000E+00 0. -1.
         -1    1    6    6    0  502  0.14155041389E+01 -0.45926805190E+02 -0.14471119895E+03  0.15183084729E+03  0.00000000000E+00 0.  1.
<mgrwt>
<rscale>  0 0.52619956E+03</rscale>
<asrwt>0</asrwt>
<pdfrwt beam="1">  1        1 0.17483444E+00 0.52619956E+03</pdfrwt>
<pdfrwt beam="2">  1       -2 0.68769754E-01 0.52619956E+03</pdfrwt>
<totfact> 0.21296754E+01</totfact>
</mgrwt>
</event>
<event>
12    3  0.2269558E-007  0.9107822E+03  0.7818608E-02  0.9412203E-01
         -2   -1    0    0    0  501 -0.00000000000E+00  0.00000000000E+00  0.35762902850E+03  0.35762902850E+03  0.00000000000E+00 0.  1.
          1   -1    0    0  501    0  0.00000000000E+00 -0.00000000000E+00 -0.29565761178E+04  0.29565761178E+04  0.00000000000E+00 0. -1.
        -24    2    1    2    0    0  0.88162533393E+03  0.17043173886E+03 -0.16326882134E+04  0.18650653114E+04  0.80545680072E+02 0.  0.
    5000000    2    1    2    0    0 -0.88162533393E+03 -0.17043173886E+03 -0.96625887589E+03  0.14491398349E+04  0.60003319808E+03 0.  0.
        -24    2    4    4    0    0 -0.10635183225E+03 -0.27730169355E+02 -0.52680725883E+03  0.54322252050E+03  0.74061760089E+02 0.  0.
         24    2    4    4    0    0 -0.77527350168E+03 -0.14270156951E+03 -0.43945161706E+03  0.90591731440E+03  0.78458373893E+02 0.  0.
         13    1    5    5    0    0  0.80106165030E+01  0.93169991735E+01 -0.52401831500E+02  0.53823121379E+02  0.00000000000E+00 0. -1.
        -14    1    5    5    0    0 -0.11436244876E+03 -0.37047168528E+02 -0.47440542733E+03  0.48939939912E+03  0.00000000000E+00 0.  1.
         13    1    3    3    0    0  0.30956643688E+03  0.94542320293E+02 -0.62482261103E+03  0.70368524528E+03  0.00000000000E+00 0. -1.
        -14    1    3    3    0    0  0.57205889706E+03  0.75889418569E+02 -0.10078656024E+04  0.11613800661E+04  0.00000000000E+00 0.  1.
          2    1    6    6  502    0 -0.22613403696E+03 -0.43824693074E+02 -0.88529168841E+02  0.24676835318E+03  0.00000000000E+00 0. -1.
         -1    1    6    6    0  502 -0.54913946472E+03 -0.98876876434E+02 -0.35092244822E+03  0.65914896122E+03  0.00000000000E+00 0.  1.
<mgrwt>
<rscale>  0 0.91078223E+03</rscale>
<asrwt>0</asrwt>
<pdfrwt beam="1">  1        1 0.45485786E+00 0.91078223E+03</pdfrwt>
<pdfrwt beam="2">  1       -2 0.55019850E-01 0.91078223E+03</pdfrwt>
<totfact> 0.18219693E+00</totfact>
</mgrwt>
</event>
<event>
12    3  0.2269558E-007  0.8476521E+03  0.7818608E-02  0.9493494E-01
         -2   -1    0    0    0  501 -0.00000000000E+00  0.00000000000E+00  0.14495346334E+04  0.14495346334E+04  0.00000000000E+00 0.  1.
          1   -1    0    0  501    0  0.00000000000E+00 -0.00000000000E+00 -0.76768838411E+03  0.76768838411E+03  0.00000000000E+00 0. -1.
        -24    2    1    2    0    0  0.81100856449E+03  0.12195924884E+03  0.85385612691E+03  0.11865401196E+04  0.78728773897E+02 0.  0.
    5000000    2    1    2    0    0 -0.81100856449E+03 -0.12195924884E+03 -0.17200987759E+03  0.10306828980E+04  0.60009239965E+03 0.  0.
        -24    2    4    4    0    0 -0.74741132386E+03 -0.52387655618E+02 -0.33731037483E+03  0.82522873459E+03  0.76524649158E+02 0.  0.
         24    2    4    4    0    0 -0.63597240625E+02 -0.69571593226E+02  0.16530049723E+03  0.20545416337E+03  0.77474791141E+02 0.  0.
         13    1    3    3    0    0  0.25414448153E+03  0.15413872524E+02  0.22435105408E+03  0.33935291428E+03  0.00000000000E+00 0. -1.
        -14    1    3    3    0    0  0.55686408296E+03  0.10654537632E+03  0.62950507282E+03  0.84718720529E+03  0.00000000000E+00 0.  1.
         13    1    5    5    0    0 -0.34877513557E+03 -0.57594103421E+02 -0.17949488361E+03  0.39645881146E+03  0.00000000000E+00 0. -1.
        -14    1    5    5    0    0 -0.39863618829E+03  0.52064478024E+01 -0.15781549122E+03  0.42876992314E+03  0.00000000000E+00 0.  1.
          2    1    6    6  502    0 -0.76282679576E+02 -0.33486567017E+02  0.10483090962E+03  0.13390263995E+03  0.00000000000E+00 0. -1.
         -1    1    6    6    0  502  0.12685438951E+02 -0.36085026210E+02  0.60469587616E+02  0.71551523425E+02  0.00000000000E+00 0.  1.
<mgrwt>
<rscale>  0 0.84765211E+03</rscale>
<asrwt>0</asrwt>
<pdfrwt beam="1">  1        1 0.11810591E+00 0.84765211E+03</pdfrwt>
<pdfrwt beam="2">  1       -2 0.22300533E+00 0.84765211E+03</pdfrwt>
<totfact> 0.19923646E+00</totfact>
</mgrwt>
</event>
<event>
12    3  0.2269558E-007  0.6310387E+03  0.7818608E-02  0.9843024E-01
          1   -1    0    0  501    0  0.00000000000E+00  0.00000000000E+00  0.26880618803E+04  0.26880618803E+04  0.00000000000E+00 0. -1.
         -2   -1    0    0    0  501 -0.00000000000E+00 -0.00000000000E+00 -0.10630243647E+04  0.10630243647E+04  0.00000000000E+00 0.  1.
        -24    2    1    2    0    0  0.32911671963E+03 -0.46731516428E+03 -0.91369005842E+03  0.10804902004E+04  0.76995274617E+02 0.  0.
    5000000    2    1    2    0    0 -0.32911671963E+03  0.46731516428E+03  0.25387275740E+04  0.26705960447E+04  0.60020351632E+03 0.  0.
        -24    2    4    4    0    0  0.83068526180E+02  0.45571432551E+02  0.11927094835E+04  0.11989135717E+04  0.76555240683E+02 0.  0.
         24    2    4    4    0    0 -0.41218524581E+03  0.42174373173E+03  0.13460180905E+04  0.14716824730E+04  0.79499366154E+02 0.  0.
         13    1    5    5    0    0  0.59685521324E+02  0.19992881682E+02  0.35845959076E+03  0.36394416464E+03  0.00000000000E+00 0. -1.
        -14    1    5    5    0    0  0.23383004856E+02  0.25578550869E+02  0.83424989271E+03  0.83496940702E+03  0.00000000000E+00 0.  1.
         13    1    3    3    0    0  0.14943725938E+03 -0.26267631678E+03 -0.43329488089E+03  0.52827530294E+03  0.00000000000E+00 0. -1.
        -14    1    3    3    0    0  0.17967946026E+03 -0.20463884750E+03 -0.48039517752E+03  0.55221489742E+03  0.00000000000E+00 0.  1.
          4    1    6    6  502    0 -0.12735305578E+03  0.14120496378E+03  0.34789064721E+03  0.39646632269E+03  0.00000000000E+00 0. -1.
         -3    1    6    6    0  502 -0.28483219004E+03  0.28053876795E+03  0.99812744329E+03  0.10752161503E+04  0.00000000000E+00 0.  1.
<mgrwt>
<rscale>  0 0.63103867E+03</rscale>
<asrwt>0</asrwt>
<pdfrwt beam="1">  1        1 0.41354798E+00 0.63103867E+03</pdfrwt>
<pdfrwt beam="2">  1       -2 0.16354221E+00 0.63103867E+03</pdfrwt>
<totfact> 0.22927211E-01</totfact>
</mgrwt>
</event>
<event>
12    3  0.2269558E-007  0.5716604E+03  0.7818608E-02  0.9966011E-01
          3   -1    0    0  501    0  0.00000000000E+00  0.00000000000E+00  0.64963816624E+03  0.64963816624E+03  0.00000000000E+00 0. -1.
         -4   -1    0    0    0  501 -0.00000000000E+00 -0.00000000000E+00 -0.62084498363E+03  0.62084498363E+03  0.00000000000E+00 0.  1.
        -24    2    1    2    0    0 -0.45487502512E+03  0.16890255875E+03  0.77583904310E+02  0.49725471377E+03  0.76181528842E+02 0.  0.
    5000000    2    1    2    0    0  0.45487502512E+03 -0.16890255875E+03 -0.48790721700E+02  0.77322843609E+03  0.60005192861E+03 0.  0.
        -24    2    4    4    0    0  0.16608384529E+02 -0.19847055495E+03 -0.20840197030E+03  0.29909844990E+03  0.79762785126E+02 0.  0.
         24    2    4    4    0    0  0.43826664059E+03  0.29567996202E+02  0.15961124860E+03  0.47412998619E+03  0.79822167790E+02 0.  0.
         11    1    5    5    0    0 -0.24273535943E+02 -0.24280896578E+02 -0.22314915441E+02  0.40947795264E+02  0.00000000000E+00 0. -1.
        -12    1    5    5    0    0  0.40881920471E+02 -0.17418965837E+03 -0.18608705486E+03  0.25815065464E+03  0.00000000000E+00 0.  1.
         13    1    3    3    0    0 -0.27261921428E+03  0.10373689771E+03  0.84159395051E+02  0.30358752233E+03  0.00000000000E+00 0. -1.
        -14    1    3    3    0    0 -0.18225581084E+03  0.65165661038E+02 -0.65754907407E+01  0.19366719145E+03  0.00000000000E+00 0.  1.
          4    1    6    6  502    0  0.67397745088E+02  0.30433037139E+02  0.11780220517E+02  0.74882570655E+02  0.00000000000E+00 0. -1.
         -3    1    6    6    0  502  0.37086889550E+03 -0.86504093779E+00  0.14783102808E+03  0.39924741553E+03  0.00000000000E+00 0.  1.
<mgrwt>
<rscale>  0 0.57166037E+03</rscale>
<asrwt>0</asrwt>
<pdfrwt beam="1">  1        3 0.99944333E-01 0.57166037E+03</pdfrwt>
<pdfrwt beam="2">  1       -4 0.95514613E-01 0.57166037E+03</pdfrwt>
<totfact> 0.18228377E+00</totfact>
</mgrwt>
</event>
<event>
12    3  0.2269558E-007  0.1780432E+04  0.7818608E-02  0.8716775E-01
          1   -1    0    0  501    0  0.00000000000E+00  0.00000000000E+00  0.42972929418E+04  0.42972929418E+04  0.00000000000E+00 0. -1.
         -2   -1    0    0    0  501 -0.00000000000E+00 -0.00000000000E+00 -0.79171776242E+03  0.79171776242E+03  0.00000000000E+00 0.  1.
        -24    2    1    2    0    0 -0.16881547188E+04 -0.52996058420E+03  0.21227737583E+04  0.27645916834E+04  0.77936971463E+02 0.  0.
    5000000    2    1    2    0    0  0.16881547188E+04  0.52996058420E+03  0.13828014210E+04  0.23244190208E+04  0.60004953040E+03 0.  0.
        -24    2    4    4    0    0  0.47653995631E+03  0.26076490012E+03  0.14222893194E+03  0.56776494243E+03  0.83900522510E+02 0.  0.
         24    2    4    4    0    0  0.12116147625E+04  0.26919568407E+03  0.12405724891E+04  0.17566540784E+04  0.79604028881E+02 0.  0.
         11    1    3    3    0    0 -0.13617596678E+04 -0.44761815879E+03  0.16811308420E+04  0.22092877397E+04  0.00000000000E+00 0. -1.
        -12    1    3    3    0    0 -0.32639505095E+03 -0.82342425412E+02  0.44164291635E+03  0.55530394369E+03  0.00000000000E+00 0.  1.
         13    1    5    5    0    0  0.44268631751E+02 -0.71791836791E+00  0.75141531833E+01  0.44907567981E+02  0.00000000000E+00 0. -1.
        -14    1    5    5    0    0  0.43227132456E+03  0.26148281849E+03  0.13471477876E+03  0.52285737445E+03  0.00000000000E+00 0.  1.
          2    1    6    6  502    0  0.10264626185E+04  0.23545496831E+03  0.10117437888E+04  0.14603732548E+04  0.00000000000E+00 0. -1.
         -3    1    6    6    0  502  0.18515214401E+03  0.33740715769E+02  0.22882870031E+03  0.29628082357E+03  0.00000000000E+00 0.  1.
<mgrwt>
<rscale>  0 0.17804318E+04</rscale>
<asrwt>0</asrwt>
<pdfrwt beam="1">  1        1 0.66112198E+00 0.17804318E+04</pdfrwt>
<pdfrwt beam="2">  1       -2 0.12180274E+00 0.17804318E+04</pdfrwt>
<totfact> 0.21456224E-02</totfact>
</mgrwt>
</event>
<event>
12    3  0.2269558E-007  0.1493408E+04  0.7818608E-02  0.8888848E-01
         -2   -1    0    0    0  501 -0.00000000000E+00  0.00000000000E+00  0.75479312226E+03  0.75479312226E+03  0.00000000000E+00 0.  1.
          1   -1    0    0  501    0  0.00000000000E+00 -0.00000000000E+00 -0.33996456005E+04  0.33996456005E+04  0.00000000000E+00 0. -1.
        -24    2    1    2    0    0 -0.47903771450E+03  0.13889030476E+04 -0.65848916337E+03  0.16119831819E+04  0.79705664936E+02 0.  0.
    5000000    2    1    2    0    0  0.47903771450E+03 -0.13889030476E+04 -0.19863633148E+04  0.25424555408E+04  0.59992678796E+03 0.  0.
        -24    2    4    4    0    0  0.52914611160E+03 -0.13355169834E+04 -0.16517102068E+04  0.21904455552E+04  0.79397120929E+02 0.  0.
         24    2    4    4    0    0 -0.50108397097E+02 -0.53386064230E+02 -0.33465310801E+03  0.35200998558E+03  0.80977799002E+02 0.  0.
         13    1    5    5    0    0  0.15924148490E+03 -0.50587140183E+03 -0.60788133770E+03  0.80671150136E+03  0.00000000000E+00 0. -1.
        -14    1    5    5    0    0  0.36990462670E+03 -0.82964558152E+03 -0.10438288691E+04  0.13837340539E+04  0.00000000000E+00 0.  1.
         13    1    3    3    0    0 -0.22699627700E+03  0.77948890861E+03 -0.36071447808E+03  0.88839473384E+03  0.00000000000E+00 0. -1.
        -14    1    3    3    0    0 -0.25204143750E+03  0.60941413897E+03 -0.29777468529E+03  0.72358844808E+03  0.00000000000E+00 0.  1.
          4    1    6    6  502    0 -0.29849190248E+02 -0.15128812640E+02 -0.32084708222E+02  0.46360367040E+02  0.00000000000E+00 0. -1.
         -3    1    6    6    0  502 -0.20259206849E+02 -0.38257251590E+02 -0.30256839979E+03  0.30564961854E+03  0.00000000000E+00 0.  1.
<mgrwt>
<rscale>  0 0.14934081E+04</rscale>
<asrwt>0</asrwt>
<pdfrwt beam="1">  1        1 0.52302240E+00 0.14934081E+04</pdfrwt>
<pdfrwt beam="2">  1       -2 0.11612202E+00 0.14934081E+04</pdfrwt>
<totfact> 0.14492307E-01</totfact>
</mgrwt>
</event>
<event>
12    3  0.2269558E-007  0.5015036E+03  0.7818608E-02  0.1013387E+00
         -2   -1    0    0    0  501 -0.00000000000E+00  0.00000000000E+00  0.10379516237E+04  0.10379516237E+04  0.00000000000E+00 0.  1.
          1   -1    0    0  501    0  0.00000000000E+00 -0.00000000000E+00 -0.48772812614E+03  0.48772812614E+03  0.00000000000E+00 0. -1.
        -24    2    1    2    0    0 -0.41454180205E+03  0.10559976436E+03  0.64970707549E+03  0.78201977750E+03  0.80246075139E+02 0.  0.
    5000000    2    1    2    0    0  0.41454180205E+03 -0.10559976436E+03 -0.99483577963E+02  0.74365997231E+03  0.60011411935E+03 0.  0.
        -24    2    4    4    0    0  0.10384017483E+03 -0.21318180459E+03 -0.26677494142E+03  0.36639895544E+03  0.82765098096E+02 0.  0.
         24    2    4    4    0    0  0.31070162722E+03  0.10758204022E+03  0.16729136345E+03  0.37726101687E+03  0.78930843324E+02 0.  0.
         11    1    3    3    0    0 -0.32684373082E+03  0.51026266021E+02  0.47002672931E+03  0.57476571789E+03  0.00000000000E+00 0. -1.
        -12    1    3    3    0    0 -0.87698071230E+02  0.54573498340E+02  0.17968034618E+03  0.20725405961E+03  0.00000000000E+00 0.  1.
         13    1    5    5    0    0  0.13190936640E+02 -0.49636903680E+02 -0.11364298610E+03  0.12470986852E+03  0.00000000000E+00 0. -1.
        -14    1    5    5    0    0  0.90649238192E+02 -0.16354490091E+03 -0.15313195532E+03  0.24168908692E+03  0.00000000000E+00 0.  1.
          4    1    6    6  502    0  0.29288690417E+03  0.10941467144E+03  0.13546493992E+03  0.34074192420E+03  0.00000000000E+00 0. -1.
         -3    1    6    6    0  502  0.17814723048E+02 -0.18326312123E+01  0.31826423532E+02  0.36519092668E+02  0.00000000000E+00 0.  1.
<mgrwt>
<rscale>  0 0.50150364E+03</rscale>
<asrwt>0</asrwt>
<pdfrwt beam="1">  1        1 0.75035097E-01 0.50150364E+03</pdfrwt>
<pdfrwt beam="2">  1       -2 0.15968486E+00 0.50150364E+03</pdfrwt>
<totfact> 0.10689569E+01</totfact>
</mgrwt>
</event>
<event>
12    3  0.2269558E-007  0.7169472E+03  0.7818608E-02  0.9688681E-01
         -2   -1    0    0    0  501 -0.00000000000E+00  0.00000000000E+00  0.33919206495E+03  0.33919206495E+03  0.00000000000E+00 0.  1.
          1   -1    0    0  501    0  0.00000000000E+00 -0.00000000000E+00 -0.19184867899E+04  0.19184867899E+04  0.00000000000E+00 0. -1.
        -24    2    1    2    0    0  0.52251489353E+03 -0.30763942741E+03 -0.11505196852E+04  0.13029282465E+04  0.79136832969E+02 0.  0.
    5000000    2    1    2    0    0 -0.52251489353E+03  0.30763942741E+03 -0.42877503976E+03  0.95475060833E+03  0.60003071433E+03 0.  0.
        -24    2    4    4    0    0 -0.97906206979E+01 -0.13413448966E+03 -0.15637316937E+03  0.22073686442E+03  0.78640178300E+02 0.  0.
         24    2    4    4    0    0 -0.51272427283E+03  0.44177391708E+03 -0.27240187039E+03  0.73401374392E+03  0.80765237002E+02 0.  0.
         13    1    3    3    0    0  0.27927779604E+03 -0.12323987389E+03 -0.61254578543E+03  0.68439498327E+03  0.00000000000E+00 0. -1.
        -14    1    3    3    0    0  0.24323709749E+03 -0.18439955352E+03 -0.53797389979E+03  0.61853326328E+03  0.00000000000E+00 0.  1.
         13    1    5    5    0    0  0.15792496399E+02 -0.22300894447E+02 -0.75721886188E+02  0.80501781866E+02  0.00000000000E+00 0. -1.
        -14    1    5    5    0    0 -0.25583117097E+02 -0.11183359522E+03 -0.80651283180E+02  0.14023508255E+03  0.00000000000E+00 0.  1.
          4    1    6    6  502    0 -0.40666990239E+03  0.38952268887E+03 -0.21761560812E+03  0.60370927403E+03  0.00000000000E+00 0. -1.
         -3    1    6    6    0  502 -0.10605437044E+03  0.52251228208E+02 -0.54786262270E+02  0.13030446989E+03  0.00000000000E+00 0.  1.
<mgrwt>
<rscale>  0 0.71694716E+03</rscale>
<asrwt>0</asrwt>
<pdfrwt beam="1">  1        1 0.29515181E+00 0.71694716E+03</pdfrwt>
<pdfrwt beam="2">  1       -2 0.52183395E-01 0.71694716E+03</pdfrwt>
<totfact> 0.10762493E+01</totfact>
</mgrwt>
</event>
<event>
12    3  0.2269558E-007  0.1110011E+04  0.7818608E-02  0.9195489E-01
          1   -1    0    0  501    0  0.00000000000E+00  0.00000000000E+00  0.11356723410E+04  0.11356723410E+04  0.00000000000E+00 0. -1.
         -2   -1    0    0    0  501 -0.00000000000E+00 -0.00000000000E+00 -0.14163757140E+04  0.14163757140E+04  0.00000000000E+00 0.  1.
        -24    2    1    2    0    0  0.99375020857E+03  0.47995915444E+03 -0.59632782246E+03  0.12568221973E+04  0.78069819997E+02 0.  0.
    5000000    2    1    2    0    0 -0.99375020857E+03 -0.47995915444E+03  0.31562444946E+03  0.12952258577E+04  0.60007579713E+03 0.  0.
        -24    2    4    4    0    0 -0.68824652300E+03 -0.26570187850E+03 -0.79207836333E+02  0.74610768714E+03  0.78243433054E+02 0.  0.
         24    2    4    4    0    0 -0.30550368557E+03 -0.21425727594E+03  0.39483228580E+03  0.54911817052E+03  0.79997181835E+02 0.  0.
         11    1    3    3    0    0  0.85209684550E+02  0.18576587198E+02 -0.41462116715E+02  0.96565454773E+02  0.00000000000E+00 0. -1.
        -12    1    3    3    0    0  0.90854052402E+03  0.46138256724E+03 -0.55486570575E+03  0.11602567425E+04  0.00000000000E+00 0.  1.
         13    1    5    5    0    0 -0.16720909950E+02  0.34006788344E+01 -0.89442517197E+01  0.19265333760E+02  0.00000000000E+00 0. -1.
        -14    1    5    5    0    0 -0.67152561305E+03 -0.26910255734E+03 -0.70263584613E+02  0.72684235338E+03  0.00000000000E+00 0.  1.
          4    1    6    6  502    0 -0.29538355660E+02 -0.16617257189E+02  0.86794141212E+01  0.34985424409E+02  0.00000000000E+00 0. -1.
         -3    1    6    6    0  502 -0.27596532991E+03 -0.19764001875E+03  0.38615287168E+03  0.51413274612E+03  0.00000000000E+00 0.  1.
<mgrwt>
<rscale>  0 0.11100112E+04</rscale>
<asrwt>0</asrwt>
<pdfrwt beam="1">  1        1 0.17471882E+00 0.11100112E+04</pdfrwt>
<pdfrwt beam="2">  1       -2 0.21790395E+00 0.11100112E+04</pdfrwt>
<totfact> 0.10491647E+00</totfact>
</mgrwt>
</event>
<event>
12    3  0.2833139E-007  0.1709943E+04  0.7818608E-02  0.8755714E-01
         -2   -1    0    0    0  501 -0.00000000000E+00  0.00000000000E+00  0.10548777141E+04  0.10548777141E+04  0.00000000000E+00 0.  1.
          1   -1    0    0  501    0  0.00000000000E+00 -0.00000000000E+00 -0.28720679669E+04  0.28720679669E+04  0.00000000000E+00 0. -1.
        -24    2    1    2    0    0  0.69392998938E+03  0.15151588926E+04 -0.11839847259E+04  0.20458964042E+04  0.81406177880E+02 0.  0.
    5000000    2    1    2    0    0 -0.69392998938E+03 -0.15151588926E+04 -0.63320552703E+03  0.18810492768E+04  0.60012652186E+03 0.  0.
        -24    2    4    4    0    0  0.62237946827E+02 -0.72216119987E+02  0.16424019629E+02  0.12531573464E+03  0.79658991438E+02 0.  0.
         24    2    4    4    0    0 -0.75616793620E+03 -0.14429427726E+04 -0.64962954666E+03  0.17557335421E+04  0.81901955577E+02 0.  0.
         11    1    5    5    0    0  0.54315492274E+02 -0.88489034365E+02  0.22471783967E+02  0.10623305972E+03  0.00000000000E+00 0. -1.
        -12    1    5    5    0    0  0.79224545532E+01  0.16272914379E+02 -0.60477643377E+01  0.19082674917E+02  0.00000000000E+00 0.  1.
         13    1    3    3    0    0  0.38696409445E+03  0.75544915976E+03 -0.62251315984E+03  0.10526002458E+04  0.00000000000E+00 0. -1.
        -14    1    3    3    0    0  0.30696589493E+03  0.75970973284E+03 -0.56147156601E+03  0.99329615838E+03  0.00000000000E+00 0.  1.
          4    1    6    6  502    0 -0.49908172111E+03 -0.10005816881E+04 -0.41241984716E+03  0.11917786746E+04  0.00000000000E+00 0. -1.
         -3    1    6    6    0  502 -0.25708621509E+03 -0.44236108451E+03 -0.23720969950E+03  0.56395486753E+03  0.00000000000E+00 0.  1.
<mgrwt>
<rscale>  0 0.17099427E+04</rscale>
<asrwt>0</asrwt>
<pdfrwt beam="1">  1        1 0.44185660E+00 0.17099427E+04</pdfrwt>
<pdfrwt beam="2">  1       -2 0.16228888E+00 0.17099427E+04</pdfrwt>
<totfact> 0.14550561E-01</totfact>
</mgrwt>
</event>
<event>
12    3  0.2269558E-007  0.9002447E+03  0.7818608E-02  0.9425276E-01
         -2   -1    0    0    0  501 -0.00000000000E+00  0.00000000000E+00  0.78704194843E+03  0.78704194843E+03  0.00000000000E+00 0.  1.
          1   -1    0    0  501    0  0.00000000000E+00 -0.00000000000E+00 -0.10679539080E+04  0.10679539080E+04  0.00000000000E+00 0. -1.
        -24    2    1    2    0    0 -0.73404127168E+03  0.35519198547E+03 -0.89033545717E+02  0.82453890171E+03  0.83423576419E+02 0.  0.
    5000000    2    1    2    0    0  0.73404127168E+03 -0.35519198547E+03 -0.19187841388E+03  0.10304569547E+04  0.60003856109E+03 0.  0.
        -24    2    4    4    0    0  0.34013474090E+03  0.11374178572E+03 -0.18858544328E+03  0.41289964560E+03  0.79327247129E+02 0.  0.
         24    2    4    4    0    0  0.39390653078E+03 -0.46893377118E+03 -0.32929706020E+01  0.61755730915E+03  0.79403713222E+02 0.  0.
         11    1    3    3    0    0 -0.46211081316E+03  0.20839025906E+03 -0.93526577993E+02  0.51548047927E+03  0.00000000000E+00 0. -1.
        -12    1    3    3    0    0 -0.27193045852E+03  0.14680172641E+03  0.44930322758E+01  0.30905842245E+03  0.00000000000E+00 0.  1.
         13    1    5    5    0    0  0.94464132462E+02 -0.42561839017E+01 -0.42413953516E+02  0.10363653254E+03  0.00000000000E+00 0. -1.
        -14    1    5    5    0    0  0.24567060844E+03  0.11799796962E+03 -0.14617148976E+03  0.30926311307E+03  0.00000000000E+00 0.  1.
          2    1    6    6  502    0  0.92159841372E+02 -0.62980094694E+02 -0.50582287539E+01  0.11173859838E+03  0.00000000000E+00 0. -1.
         -1    1    6    6    0  502  0.30174668941E+03 -0.40595367649E+03  0.17652581519E+01  0.50581871077E+03  0.00000000000E+00 0.  1.
<mgrwt>
<rscale>  0 0.90024474E+03</rscale>
<asrwt>0</asrwt>
<pdfrwt beam="1">  1        1 0.16430060E+00 0.90024474E+03</pdfrwt>
<pdfrwt beam="2">  1       -2 0.12108338E+00 0.90024474E+03</pdfrwt>
<totfact> 0.61502892E+00</totfact>
</mgrwt>
</event>
<event>
12    3  0.2269558E-007  0.7240584E+03  0.7818608E-02  0.9676951E-01
         -2   -1    0    0    0  501 -0.00000000000E+00  0.00000000000E+00  0.24928994154E+03  0.24928994154E+03  0.00000000000E+00 0.  1.
          1   -1    0    0  501    0  0.00000000000E+00 -0.00000000000E+00 -0.26622838589E+04  0.26622838589E+04  0.00000000000E+00 0. -1.
        -24    2    1    2    0    0 -0.51933281352E+03 -0.34903432453E+03 -0.16131251781E+04  0.17320943534E+04  0.80289962102E+02 0.  0.
    5000000    2    1    2    0    0  0.51933281352E+03  0.34903432453E+03 -0.79986873929E+03  0.11794794471E+04  0.59987518289E+03 0.  0.
        -24    2    4    4    0    0  0.10794454329E+03  0.38748550950E+03 -0.22659737659E+03  0.46820555908E+03  0.77929647638E+02 0.  0.
         24    2    4    4    0    0  0.41138827022E+03 -0.38451184967E+02 -0.57327136270E+03  0.71127388797E+03  0.80942485255E+02 0.  0.
         11    1    5    5    0    0  0.41954040874E+02  0.19170005909E+03 -0.15317012707E+03  0.24893802849E+03  0.00000000000E+00 0. -1.
        -12    1    5    5    0    0  0.65990502419E+02  0.19578545041E+03 -0.73427249517E+02  0.21926753060E+03  0.00000000000E+00 0.  1.
         11    1    3    3    0    0 -0.21405220884E+03 -0.18174464776E+03 -0.65326627407E+03  0.71105997633E+03  0.00000000000E+00 0. -1.
        -12    1    3    3    0    0 -0.30528060468E+03 -0.16728967677E+03 -0.95985890403E+03  0.10210343771E+04  0.00000000000E+00 0.  1.
          2    1    6    6  502    0  0.32218041742E+03 -0.86226847377E+01 -0.48470717006E+03  0.58207869980E+03  0.00000000000E+00 0. -1.
         -1    1    6    6    0  502  0.89207852806E+02 -0.29828500229E+02 -0.88564192644E+02  0.12919518817E+03  0.00000000000E+00 0.  1.
<mgrwt>
<rscale>  0 0.72405844E+03</rscale>
<asrwt>0</asrwt>
<pdfrwt beam="1">  1        1 0.40958212E+00 0.72405844E+03</pdfrwt>
<pdfrwt beam="2">  1       -2 0.38352299E-01 0.72405844E+03</pdfrwt>
<totfact> 0.62431756E+00</totfact>
</mgrwt>
</event>
<event>
12    3  0.2269558E-007  0.8793456E+03  0.7818608E-02  0.9451775E-01
         -2   -1    0    0    0  501 -0.00000000000E+00  0.00000000000E+00  0.57501055857E+03  0.57501055857E+03  0.00000000000E+00 0.  1.
          1   -1    0    0  501    0  0.00000000000E+00 -0.00000000000E+00 -0.14482675774E+04  0.14482675774E+04  0.00000000000E+00 0. -1.
        -24    2    1    2    0    0 -0.80507267450E+03  0.26519753411E+02 -0.50155668433E+03  0.95230754594E+03  0.80531024562E+02 0.  0.
    5000000    2    1    2    0    0  0.80507267450E+03 -0.26519753411E+02 -0.37170033447E+03  0.10709705900E+04  0.59997629740E+03 0.  0.
        -24    2    4    4    0    0  0.75516830681E+03 -0.17478983333E+03 -0.16031102305E+03  0.79583261384E+03  0.82578857421E+02 0.  0.
         24    2    4    4    0    0  0.49904367691E+02  0.14827007992E+03 -0.21138931142E+03  0.27513797616E+03  0.80876463980E+02 0.  0.
         11    1    3    3    0    0 -0.67488959828E+03 -0.75036748649E+01 -0.41473907357E+03  0.79217471189E+03  0.00000000000E+00 0. -1.
        -12    1    3    3    0    0 -0.13018307622E+03  0.34023428275E+02 -0.86817610762E+02  0.16013283406E+03  0.00000000000E+00 0.  1.
         13    1    5    5    0    0  0.11226793690E+03 -0.10523692814E+02  0.17543356142E+01  0.11277373568E+03  0.00000000000E+00 0. -1.
        -14    1    5    5    0    0  0.64290036992E+03 -0.16426614052E+03 -0.16206535867E+03  0.68305887817E+03  0.00000000000E+00 0.  1.
          4    1    6    6  502    0  0.64652091105E+02  0.79076161612E+02 -0.14996684161E+03  0.18144692282E+03  0.00000000000E+00 0. -1.
         -3    1    6    6    0  502 -0.14747723415E+02  0.69193918312E+02 -0.61422469813E+02  0.93691053336E+02  0.00000000000E+00 0.  1.
<mgrwt>
<rscale>  0 0.87934557E+03</rscale>
<asrwt>0</asrwt>
<pdfrwt beam="1">  1        1 0.22281039E+00 0.87934557E+03</pdfrwt>
<pdfrwt beam="2">  1       -2 0.88463165E-01 0.87934557E+03</pdfrwt>
<totfact> 0.69580981E+00</totfact>
</mgrwt>
</event>
<event>
12    3  0.2269558E-007  0.5457764E+03  0.7818608E-02  0.1002476E+00
         -2   -1    0    0    0  501 -0.00000000000E+00  0.00000000000E+00  0.54986350420E+03  0.54986350420E+03  0.00000000000E+00 0.  1.
          1   -1    0    0  501    0  0.00000000000E+00 -0.00000000000E+00 -0.84179514637E+03  0.84179514637E+03  0.00000000000E+00 0. -1.
        -24    2    1    2    0    0  0.19534501360E+03  0.43985974944E+03  0.14321938253E+03  0.50771534845E+03  0.75012065685E+02 0.  0.
    5000000    2    1    2    0    0 -0.19534501360E+03 -0.43985974944E+03 -0.43515102470E+03  0.88394330213E+03  0.60030248505E+03 0.  0.
        -24    2    4    4    0    0  0.88097074415E+02 -0.20113095892E+03 -0.43958248543E+03  0.49805802133E+03  0.81328186742E+02 0.  0.
         24    2    4    4    0    0 -0.28344208801E+03 -0.23872879053E+03  0.44314607273E+01  0.38588528080E+03  0.10750329952E+03 0.  0.
         13    1    3    3    0    0  0.20028117772E+02  0.11408538994E+03  0.18454684145E+02  0.11729099312E+03  0.00000000000E+00 0. -1.
        -14    1    3    3    0    0  0.17531689583E+03  0.32577435950E+03  0.12476469838E+03  0.39042435533E+03  0.00000000000E+00 0.  1.
         13    1    5    5    0    0  0.92829628186E+02 -0.15365913382E+03 -0.38954960862E+03  0.42892582908E+03  0.00000000000E+00 0. -1.
        -14    1    5    5    0    0 -0.47325537707E+01 -0.47471825099E+02 -0.50032876805E+02  0.69132192246E+02  0.00000000000E+00 0.  1.
          4    1    6    6  502    0 -0.22222234664E+03 -0.22409242179E+03  0.31909363239E+02  0.31720402316E+03  0.00000000000E+00 0. -1.
         -3    1    6    6    0  502 -0.61219741372E+02 -0.14636368740E+02 -0.27477902512E+02  0.68681257632E+02  0.00000000000E+00 0.  1.
<mgrwt>
<rscale>  0 0.54577637E+03</rscale>
<asrwt>0</asrwt>
<pdfrwt beam="1">  1        1 0.12950695E+00 0.54577637E+03</pdfrwt>
<pdfrwt beam="2">  1       -2 0.84594385E-01 0.54577637E+03</pdfrwt>
<totfact> 0.22709618E+01</totfact>
</mgrwt>
</event>
<event>
12    3  0.3260134E-007  0.1425032E+04  0.7818608E-02  0.8935896E-01
          1   -1    0    0  501    0  0.00000000000E+00  0.00000000000E+00  0.13670848785E+04  0.13670848785E+04  0.00000000000E+00 0. -1.
         -2   -1    0    0    0  501 -0.00000000000E+00 -0.00000000000E+00 -0.15193323532E+04  0.15193323532E+04  0.00000000000E+00 0.  1.
        -24    2    1    2    0    0  0.84416462331E+03 -0.10883101927E+04 -0.48296252431E+02  0.13805794378E+04  0.81449796653E+02 0.  0.
    5000000    2    1    2    0    0 -0.84416462331E+03  0.10883101927E+04 -0.10395122219E+03  0.15058377939E+04  0.59975713263E+03 0.  0.
        -24    2    4    4    0    0 -0.56088704567E+03  0.10299877117E+04  0.34198554411E+02  0.11757137195E+04  0.75261177045E+02 0.  0.
         24    2    4    4    0    0 -0.28327757764E+03  0.58322480987E+02 -0.13814977660E+03  0.33012407442E+03  0.79049642321E+02 0.  0.
         11    1    3    3    0    0  0.44702521124E+03 -0.61581678078E+03  0.58281306144E+01  0.76098345191E+03  0.00000000000E+00 0. -1.
        -12    1    3    3    0    0  0.39713941207E+03 -0.47249341192E+03 -0.54124383045E+02  0.61959598592E+03  0.00000000000E+00 0.  1.
         13    1    5    5    0    0 -0.35338019696E+03  0.59607047121E+03  0.47224817630E+02  0.69455579593E+03  0.00000000000E+00 0. -1.
        -14    1    5    5    0    0 -0.20750684871E+03  0.43391724050E+03 -0.13026263218E+02  0.48115792355E+03  0.00000000000E+00 0.  1.
          2    1    6    6  502    0 -0.17335473789E+03 -0.32677945998E+00 -0.62019146100E+02  0.18411503582E+03  0.00000000000E+00 0. -1.
         -1    1    6    6    0  502 -0.10992283975E+03  0.58649260447E+02 -0.76130630500E+02  0.14600903859E+03  0.00000000000E+00 0.  1.
<mgrwt>
<rscale>  0 0.14250320E+04</rscale>
<asrwt>0</asrwt>
<pdfrwt beam="1">  1        1 0.21032075E+00 0.14250320E+04</pdfrwt>
<pdfrwt beam="2">  1       -2 0.23374344E+00 0.14250320E+04</pdfrwt>
<totfact> 0.54744060E-01</totfact>
</mgrwt>
</event>
<event>
12    3  0.2269558E-007  0.9418661E+03  0.7818608E-02  0.9374709E-01
         -2   -1    0    0    0  501 -0.00000000000E+00  0.00000000000E+00  0.63231484735E+03  0.63231484735E+03  0.00000000000E+00 0.  1.
          1   -1    0    0  501    0  0.00000000000E+00 -0.00000000000E+00 -0.14685872084E+04  0.14685872084E+04  0.00000000000E+00 0. -1.
        -24    2    1    2    0    0 -0.49648756237E+03  0.68983014145E+03 -0.18311463664E+03  0.87238844995E+03  0.71868726268E+02 0.  0.
    5000000    2    1    2    0    0  0.49648756237E+03 -0.68983014145E+03 -0.65315772444E+03  0.12285136058E+04  0.60022091189E+03 0.  0.
        -24    2    4    4    0    0  0.19585992779E+03 -0.69095045117E+03 -0.38903040282E+03  0.82028590452E+03  0.75833195605E+02 0.  0.
         24    2    4    4    0    0  0.30062763458E+03  0.11203097219E+01 -0.26412732162E+03  0.40822770131E+03  0.80674558065E+02 0.  0.
         13    1    3    3    0    0 -0.30147404299E+03  0.35896089856E+03 -0.10813150597E+03  0.48107374473E+03  0.00000000000E+00 0. -1.
        -14    1    3    3    0    0 -0.19501351938E+03  0.33086924289E+03 -0.74983130678E+02  0.39131470522E+03  0.00000000000E+00 0.  1.
         13    1    5    5    0    0  0.18746193562E+02 -0.18167596039E+03 -0.10933903265E+03  0.21286756074E+03  0.00000000000E+00 0. -1.
        -14    1    5    5    0    0  0.17711373423E+03 -0.50927449078E+03 -0.27969137017E+03  0.60741834378E+03  0.00000000000E+00 0.  1.
          2    1    6    6  502    0  0.12492434661E+02  0.16299241657E+02 -0.68510252661E+01  0.21648620038E+02  0.00000000000E+00 0. -1.
         -1    1    6    6    0  502  0.28813519992E+03 -0.15178931935E+02 -0.25727629635E+03  0.38657908127E+03  0.00000000000E+00 0.  1.
<mgrwt>
<rscale>  0 0.94186609E+03</rscale>
<asrwt>0</asrwt>
<pdfrwt beam="1">  1        1 0.22593649E+00 0.94186609E+03</pdfrwt>
<pdfrwt beam="2">  1       -2 0.97279209E-01 0.94186609E+03</pdfrwt>
<totfact> 0.53595522E+00</totfact>
</mgrwt>
</event>
<event>
12    3  0.2269558E-007  0.1370942E+04  0.7818608E-02  0.8975125E-01
         -2   -1    0    0    0  501 -0.00000000000E+00  0.00000000000E+00  0.22033647871E+04  0.22033647871E+04  0.00000000000E+00 0.  1.
          1   -1    0    0  501    0  0.00000000000E+00 -0.00000000000E+00 -0.91704474151E+03  0.91704474151E+03  0.00000000000E+00 0. -1.
        -24    2    1    2    0    0 -0.57457832122E+03 -0.11739862919E+04  0.10152903882E+04  0.16569580998E+04  0.79445022079E+02 0.  0.
    5000000    2    1    2    0    0  0.57457832122E+03  0.11739862919E+04  0.27102965740E+03  0.14634514288E+04  0.59987411058E+03 0.  0.
        -24    2    4    4    0    0  0.67950057003E+03  0.87142509940E+03  0.21955309389E+03  0.11295281653E+04  0.80793481744E+02 0.  0.
         24    2    4    4    0    0 -0.10492224881E+03  0.30256119247E+03  0.51476563513E+02  0.33392326347E+03  0.79391157005E+02 0.  0.
         11    1    3    3    0    0 -0.34195213827E+03 -0.78440300290E+03  0.65974824686E+03  0.10805031629E+04  0.00000000000E+00 0. -1.
        -12    1    3    3    0    0 -0.23262618295E+03 -0.38958328896E+03  0.35554214136E+03  0.57645493693E+03  0.00000000000E+00 0.  1.
         13    1    5    5    0    0  0.57893719153E+03  0.77495886763E+03  0.20990668826E+03  0.98984359170E+03  0.00000000000E+00 0. -1.
        -14    1    5    5    0    0  0.10056337850E+03  0.96466231775E+02  0.96464056236E+01  0.13968457363E+03  0.00000000000E+00 0.  1.
          4    1    6    6  502    0 -0.14468291883E+02  0.13108271710E+03  0.46983561033E+02  0.13999808998E+03  0.00000000000E+00 0. -1.
         -3    1    6    6    0  502 -0.90453956931E+02  0.17147847537E+03  0.44930024799E+01  0.19392517348E+03  0.00000000000E+00 0.  1.
<mgrwt>
<rscale>  0 0.13709417E+04</rscale>
<asrwt>0</asrwt>
<pdfrwt beam="1">  1        1 0.14108381E+00 0.13709417E+04</pdfrwt>
<pdfrwt beam="2">  1       -2 0.33897920E+00 0.13709417E+04</pdfrwt>
<totfact> 0.27200315E-01</totfact>
</mgrwt>
</event>
<event>
12    3  0.2269558E-007  0.7930455E+03  0.7818608E-02  0.9570138E-01
         -2   -1    0    0    0  501 -0.00000000000E+00  0.00000000000E+00  0.11479491917E+04  0.11479491917E+04  0.00000000000E+00 0.  1.
          1   -1    0    0  501    0  0.00000000000E+00 -0.00000000000E+00 -0.57802115234E+03  0.57802115234E+03  0.00000000000E+00 0. -1.
        -24    2    1    2    0    0 -0.59553024312E+02 -0.69065063839E+03  0.36206062804E+03  0.78591453496E+03  0.77645932774E+02 0.  0.
    5000000    2    1    2    0    0  0.59553024312E+02  0.69065063839E+03  0.20786741127E+03  0.94005580903E+03  0.59995932897E+03 0.  0.
        -24    2    4    4    0    0  0.26861051383E+03  0.57763781977E+03  0.24308386684E+03  0.68668181567E+03  0.81394660032E+02 0.  0.
         24    2    4    4    0    0 -0.20905748952E+03  0.11301281862E+03 -0.35216455564E+02  0.25337399337E+03  0.80506215150E+02 0.  0.
         11    1    3    3    0    0 -0.28205383178E+02 -0.41189449030E+03  0.25732633782E+03  0.48648685380E+03  0.00000000000E+00 0. -1.
        -12    1    3    3    0    0 -0.31347641134E+02 -0.27875614809E+03  0.10473429023E+03  0.29942768117E+03  0.00000000000E+00 0.  1.
         13    1    5    5    0    0  0.12392463492E+03  0.35871976481E+03  0.15373573102E+03  0.40947754492E+03  0.00000000000E+00 0. -1.
        -14    1    5    5    0    0  0.14468587891E+03  0.21891805496E+03  0.89348135813E+02  0.27720427074E+03  0.00000000000E+00 0.  1.
          4    1    6    6  502    0 -0.94446887517E+01  0.35362532916E+02 -0.22884577686E+01  0.36673531584E+02  0.00000000000E+00 0. -1.
         -3    1    6    6    0  502 -0.19961280076E+03  0.77650285704E+02 -0.32927997795E+02  0.21670046178E+03  0.00000000000E+00 0.  1.
<mgrwt>
<rscale>  0 0.79304550E+03</rscale>
<asrwt>0</asrwt>
<pdfrwt beam="1">  1        1 0.88926331E-01 0.79304550E+03</pdfrwt>
<pdfrwt beam="2">  1       -2 0.17660757E+00 0.79304550E+03</pdfrwt>
<totfact> 0.61653553E+00</totfact>
</mgrwt>
</event>
<event>
12    3  0.2269558E-007  0.8717871E+03  0.7818608E-02  0.9461553E-01
          1   -1    0    0  501    0  0.00000000000E+00  0.00000000000E+00  0.51404912333E+03  0.51404912333E+03  0.00000000000E+00 0. -1.
         -2   -1    0    0    0  501 -0.00000000000E+00 -0.00000000000E+00 -0.20722107730E+04  0.20722107730E+04  0.00000000000E+00 0.  1.
        -24    2    1    2    0    0  0.62356741594E+03  0.46384160862E+03 -0.45152165029E+02  0.78261564736E+03  0.80393863970E+02 0.  0.
    5000000    2    1    2    0    0 -0.62356741594E+03 -0.46384160862E+03 -0.15130094847E+04  0.18036442490E+04  0.59995792867E+03 0.  0.
        -24    2    4    4    0    0  0.44894864547E+02 -0.24091212710E+03 -0.27208234153E+03  0.37458900391E+03  0.78955173580E+02 0.  0.
         24    2    4    4    0    0 -0.66846228049E+03 -0.22292948153E+03 -0.12409271432E+04  0.14290552451E+04  0.75890347121E+02 0.  0.
         11    1    3    3    0    0  0.82698223270E+02  0.98419843341E+02 -0.94175829782E+01  0.12889589817E+03  0.00000000000E+00 0. -1.
        -12    1    3    3    0    0  0.54086919267E+03  0.36542176528E+03 -0.35734582051E+02  0.65371974919E+03  0.00000000000E+00 0.  1.
         13    1    5    5    0    0 -0.18568530322E+02 -0.49919228787E+02 -0.35626972905E+02  0.64078084548E+02  0.00000000000E+00 0. -1.
        -14    1    5    5    0    0  0.63463394869E+02 -0.19099289831E+03 -0.23645536862E+03  0.31051091936E+03  0.00000000000E+00 0.  1.
          4    1    6    6  502    0 -0.44920974573E+03 -0.11666613644E+03 -0.77766412382E+03  0.90562788856E+03  0.00000000000E+00 0. -1.
         -3    1    6    6    0  502 -0.21925253476E+03 -0.10626334508E+03 -0.46326301934E+03  0.52342735656E+03  0.00000000000E+00 0.  1.
<mgrwt>
<rscale>  0 0.87178711E+03</rscale>
<asrwt>0</asrwt>
<pdfrwt beam="1">  1        1 0.79084481E-01 0.87178711E+03</pdfrwt>
<pdfrwt beam="2">  1       -2 0.31880165E+00 0.87178711E+03</pdfrwt>
<totfact> 0.93793131E-01</totfact>
</mgrwt>
</event>
<event>
12    3  0.2269558E-007  0.6180914E+03  0.7818608E-02  0.9868567E-01
          1   -1    0    0  501    0  0.00000000000E+00  0.00000000000E+00  0.16995860221E+04  0.16995860221E+04  0.00000000000E+00 0. -1.
         -2   -1    0    0    0  501 -0.00000000000E+00 -0.00000000000E+00 -0.26333474414E+03  0.26333474414E+03  0.00000000000E+00 0.  1.
        -24    2    1    2    0    0 -0.93781869430E+02  0.48514386511E+03  0.29333246557E+03  0.58075567316E+03  0.84104742191E+02 0.  0.
    5000000    2    1    2    0    0  0.93781869430E+02 -0.48514386511E+03  0.11429188124E+04  0.13821650931E+04  0.59996443553E+03 0.  0.
        -24    2    4    4    0    0 -0.11468685460E+03 -0.50597201526E+03  0.95321761385E+03  0.10885356876E+04  0.84411900473E+02 0.  0.
         24    2    4    4    0    0  0.20846872403E+03  0.20828150148E+02  0.18970119854E+03  0.29362940549E+03  0.79615716441E+02 0.  0.
         11    1    3    3    0    0 -0.10727692364E+03  0.42080220382E+03  0.26800855024E+03  0.51030521855E+03  0.00000000000E+00 0. -1.
        -12    1    3    3    0    0  0.13495054206E+02  0.64341661297E+02  0.25323915326E+02  0.70450454604E+02  0.00000000000E+00 0.  1.
         13    1    5    5    0    0 -0.12239721241E+03 -0.41209370082E+03  0.74797336785E+03  0.86270878915E+03  0.00000000000E+00 0. -1.
        -14    1    5    5    0    0  0.77103578170E+01 -0.93878314445E+02  0.20524424600E+03  0.22582689843E+03  0.00000000000E+00 0.  1.
          4    1    6    6  502    0  0.62825290843E+02 -0.89000661190E+01  0.16847800206E+02  0.65651174538E+02  0.00000000000E+00 0. -1.
         -3    1    6    6    0  502  0.14564343318E+03  0.29728216267E+02  0.17285339833E+03  0.22797823095E+03  0.00000000000E+00 0.  1.
<mgrwt>
<rscale>  0 0.61809137E+03</rscale>
<asrwt>0</asrwt>
<pdfrwt beam="1">  1        1 0.26147477E+00 0.61809137E+03</pdfrwt>
<pdfrwt beam="2">  1       -2 0.40513039E-01 0.61809137E+03</pdfrwt>
<totfact> 0.25374562E+01</totfact>
</mgrwt>
</event>
<event>
12    3  0.2269558E-007  0.1072090E+04  0.7818608E-02  0.9232830E-01
         -2   -1    0    0    0  501 -0.00000000000E+00  0.00000000000E+00  0.14921851229E+04  0.14921851229E+04  0.00000000000E+00 0.  1.
          1   -1    0    0  501    0  0.00000000000E+00 -0.00000000000E+00 -0.91534338323E+03  0.91534338323E+03  0.00000000000E+00 0. -1.
        -24    2    1    2    0    0  0.97969298250E+03 -0.13456793638E+03 -0.20263456882E+03  0.10127264303E+04  0.81530268499E+02 0.  0.
    5000000    2    1    2    0    0 -0.97969298250E+03  0.13456793638E+03  0.77947630847E+03  0.13948020758E+04  0.59998553798E+03 0.  0.
        -24    2    4    4    0    0 -0.44390019506E+03 -0.22711570410E+03  0.33014147120E+03  0.60354796415E+03  0.81534212438E+02 0.  0.
         24    2    4    4    0    0 -0.53579278744E+03  0.36168364048E+03  0.44933483727E+03  0.79125411168E+03  0.79324059382E+02 0.  0.
         11    1    3    3    0    0  0.41558231810E+03 -0.18208857251E+02 -0.96846224406E+02  0.42710586133E+03  0.00000000000E+00 0. -1.
        -12    1    3    3    0    0  0.56411066440E+03 -0.11635907913E+03 -0.10578834441E+03  0.58562056896E+03  0.00000000000E+00 0.  1.
         13    1    5    5    0    0 -0.93457377580E+02 -0.12448398786E+02  0.62165871142E+02  0.11293289862E+03  0.00000000000E+00 0. -1.
        -14    1    5    5    0    0 -0.35044281748E+03 -0.21466730531E+03  0.26797560006E+03  0.49061506552E+03  0.00000000000E+00 0.  1.
          4    1    6    6  502    0 -0.25119818681E+03  0.18522383929E+03  0.17136597662E+03  0.35605434647E+03  0.00000000000E+00 0. -1.
         -3    1    6    6    0  502 -0.28459460063E+03  0.17645980118E+03  0.27796886065E+03  0.43519976520E+03  0.00000000000E+00 0.  1.
<mgrwt>
<rscale>  0 0.10720899E+04</rscale>
<asrwt>0</asrwt>
<pdfrwt beam="1">  1        1 0.14082206E+00 0.10720899E+04</pdfrwt>
<pdfrwt beam="2">  1       -2 0.22956694E+00 0.10720899E+04</pdfrwt>
<totfact> 0.13205773E+00</totfact>
</mgrwt>
</event>
<event>
12    3  0.2269558E-007  0.9955566E+03  0.7818608E-02  0.9313432E-01
          1   -1    0    0  501    0  0.00000000000E+00  0.00000000000E+00  0.86075810681E+03  0.86075810681E+03  0.00000000000E+00 0. -1.
         -2   -1    0    0    0  501 -0.00000000000E+00 -0.00000000000E+00 -0.13214550826E+04  0.13214550826E+04  0.00000000000E+00 0.  1.
        -24    2    1    2    0    0  0.20963865429E+02  0.96341504467E+03 -0.39675153777E+03  0.10452857142E+04  0.81255213176E+02 0.  0.
    5000000    2    1    2    0    0 -0.20963865429E+02 -0.96341504467E+03 -0.63945438019E+02  0.11369274752E+04  0.59992252238E+03 0.  0.
        -24    2    4    4    0    0  0.14044493290E+03 -0.28991850722E+03 -0.25005939563E+03  0.41547368860E+03  0.79442838415E+02 0.  0.
         24    2    4    4    0    0 -0.16140879832E+03 -0.67349653745E+03  0.18611395761E+03  0.72145378659E+03  0.78783087257E+02 0.  0.
         11    1    5    5    0    0  0.84031333933E+01 -0.89337379522E+02 -0.48772233018E+02  0.10212987195E+03  0.00000000000E+00 0. -1.
        -12    1    5    5    0    0  0.13204179950E+03 -0.20058112770E+03 -0.20128716261E+03  0.31334381666E+03  0.00000000000E+00 0.  1.
         13    1    3    3    0    0  0.17733833405E+01  0.73035171411E+03 -0.33437229172E+03  0.80325687091E+03  0.00000000000E+00 0. -1.
        -14    1    3    3    0    0  0.19190482088E+02  0.23306333056E+03 -0.62379246054E+02  0.24202884331E+03  0.00000000000E+00 0.  1.
          4    1    6    6  502    0 -0.66913371396E+01 -0.17391440397E+03  0.46741711061E+02  0.18021038110E+03  0.00000000000E+00 0. -1.
         -3    1    6    6    0  502 -0.15471746118E+03 -0.49958213348E+03  0.13937224655E+03  0.54124340550E+03  0.00000000000E+00 0.  1.
<mgrwt>
<rscale>  0 0.99555660E+03</rscale>
<asrwt>0</asrwt>
<pdfrwt beam="1">  1        1 0.13242432E+00 0.99555660E+03</pdfrwt>
<pdfrwt beam="2">  1       -2 0.20330078E+00 0.99555660E+03</pdfrwt>
<totfact> 0.21700980E+00</totfact>
</mgrwt>
</event>
<event>
12    3  0.2269558E-007  0.1525905E+04  0.7818608E-02  0.8867407E-01
          1   -1    0    0  501    0  0.00000000000E+00  0.00000000000E+00  0.93100132893E+03  0.93100132893E+03  0.00000000000E+00 0. -1.
         -2   -1    0    0    0  501 -0.00000000000E+00 -0.00000000000E+00 -0.26538022443E+04  0.26538022443E+04  0.00000000000E+00 0.  1.
        -24    2    1    2    0    0  0.15129924082E+04  0.39101446028E+02 -0.81727060068E+03  0.17219148430E+04  0.79903325963E+02 0.  0.
    5000000    2    1    2    0    0 -0.15129924082E+04 -0.39101446028E+02 -0.90553031469E+03  0.18628887302E+04  0.59974521256E+03 0.  0.
        -24    2    4    4    0    0 -0.97835343498E+03  0.85386916947E+02 -0.27426131546E+03  0.10228306150E+04  0.80602906275E+02 0.  0.
         24    2    4    4    0    0 -0.53463897322E+03 -0.12448836298E+03 -0.63126899923E+03  0.84005811522E+03  0.76556536945E+02 0.  0.
         11    1    3    3    0    0  0.10353538135E+04  0.45975915910E+02 -0.52300776427E+03  0.11608653778E+04  0.00000000000E+00 0. -1.
        -12    1    3    3    0    0  0.47763859470E+03 -0.68744698815E+01 -0.29426283640E+03  0.56104946517E+03  0.00000000000E+00 0.  1.
         13    1    5    5    0    0 -0.37211851799E+03  0.67276603031E+02 -0.12436395787E+03  0.39807628259E+03  0.00000000000E+00 0. -1.
        -14    1    5    5    0    0 -0.60623491699E+03  0.18110313916E+02 -0.14989735760E+03  0.62475433241E+03  0.00000000000E+00 0.  1.
          4    1    6    6  502    0 -0.11828680546E+03 -0.57005172959E+02 -0.12741173493E+03  0.18296204057E+03  0.00000000000E+00 0. -1.
         -3    1    6    6    0  502 -0.41635216775E+03 -0.67483190017E+02 -0.50385726430E+03  0.65709607465E+03  0.00000000000E+00 0.  1.
<mgrwt>
<rscale>  0 0.15259054E+04</rscale>
<asrwt>0</asrwt>
<pdfrwt beam="1">  1        1 0.14323098E+00 0.15259054E+04</pdfrwt>
<pdfrwt beam="2">  1       -2 0.40827726E+00 0.15259054E+04</pdfrwt>
<totfact> 0.93557455E-02</totfact>
</mgrwt>
</event>
<event>
12    3  0.2269558E-007  0.1008779E+04  0.7818608E-02  0.9298968E-01
         -2   -1    0    0    0  501 -0.00000000000E+00  0.00000000000E+00  0.94481806742E+03  0.94481806742E+03  0.00000000000E+00 0.  1.
          1   -1    0    0  501    0  0.00000000000E+00 -0.00000000000E+00 -0.22459376157E+04  0.22459376157E+04  0.00000000000E+00 0. -1.
        -24    2    1    2    0    0 -0.17069234562E+03 -0.91589126697E+03 -0.17587923935E+04  0.19917289680E+04  0.75105982846E+02 0.  0.
    5000000    2    1    2    0    0  0.17069234562E+03  0.91589126697E+03  0.45767284521E+03  0.11990267152E+04  0.60017325886E+03 0.  0.
        -24    2    4    4    0    0  0.13108314441E+03  0.96853703288E+03  0.33027171704E+03  0.10347562240E+04  0.79964125066E+02 0.  0.
         24    2    4    4    0    0  0.39609201214E+02 -0.52645765902E+02  0.12740112817E+03  0.16427049113E+03  0.80082965151E+02 0.  0.
         13    1    3    3    0    0 -0.10593309541E+03 -0.72758714659E+03 -0.14042059947E+04  0.15850549997E+04  0.00000000000E+00 0. -1.
        -14    1    3    3    0    0 -0.64759250206E+02 -0.18830412039E+03 -0.35458639880E+03  0.40667396825E+03  0.00000000000E+00 0.  1.
         13    1    5    5    0    0  0.92412160581E+02  0.43609122976E+03  0.17369446516E+03  0.47841962264E+03  0.00000000000E+00 0. -1.
        -14    1    5    5    0    0  0.38670983824E+02  0.53244580311E+03  0.15657725188E+03  0.55633660139E+03  0.00000000000E+00 0.  1.
          4    1    6    6  502    0  0.61727348246E+02 -0.53102309898E+02  0.96430262648E+02  0.12620981100E+03  0.00000000000E+00 0. -1.
         -3    1    6    6    0  502 -0.22118147031E+02  0.45654399616E+00  0.30970865524E+02  0.38060680129E+02  0.00000000000E+00 0.  1.
<mgrwt>
<rscale>  0 0.10087795E+04</rscale>
<asrwt>0</asrwt>
<pdfrwt beam="1">  1        1 0.34552887E+00 0.10087795E+04</pdfrwt>
<pdfrwt beam="2">  1       -2 0.14535663E+00 0.10087795E+04</pdfrwt>
<totfact> 0.58223763E-01</totfact>
</mgrwt>
</event>
<event>
12    3  0.2269558E-007  0.2982368E+03  0.7818608E-02  0.1086125E+00
         -2   -1    0    0    0  501 -0.00000000000E+00  0.00000000000E+00  0.21301343982E+03  0.21301343982E+03  0.00000000000E+00 0.  1.
          1   -1    0    0  501    0  0.00000000000E+00 -0.00000000000E+00 -0.67910144396E+03  0.67910144396E+03  0.00000000000E+00 0. -1.
        -24    2    1    2    0    0  0.69709757469E+02 -0.71821287984E+02 -0.17719336175E+03  0.21871114524E+03  0.80120720853E+02 0.  0.
    5000000    2    1    2    0    0 -0.69709757469E+02  0.71821287984E+02 -0.28889464239E+03  0.67340373854E+03  0.59999561080E+03 0.  0.
        -24    2    4    4    0    0 -0.24382160375E+03 -0.55157748889E+02  0.47707369436E+02  0.26668213059E+03  0.79699522946E+02 0.  0.
         24    2    4    4    0    0  0.17411184628E+03  0.12697903687E+03 -0.33660201183E+03  0.40672160796E+03  0.75385284971E+02 0.  0.
         11    1    3    3    0    0  0.73524292196E+02 -0.62052875894E+02 -0.18298139041E+03  0.20673308924E+03  0.00000000000E+00 0. -1.
        -12    1    3    3    0    0 -0.38145347272E+01 -0.97684120904E+01  0.57880286559E+01  0.11978056006E+02  0.00000000000E+00 0.  1.
         13    1    5    5    0    0 -0.81510808078E+02  0.19275181705E+02  0.12634312633E+02  0.84706377086E+02  0.00000000000E+00 0. -1.
        -14    1    5    5    0    0 -0.16231079567E+03 -0.74432930594E+02  0.35073056803E+02  0.18197575350E+03  0.00000000000E+00 0.  1.
          4    1    6    6  502    0  0.11785731029E+02  0.43208377284E+02 -0.53082592850E+02  0.69452350479E+02  0.00000000000E+00 0. -1.
         -3    1    6    6    0  502  0.16232611525E+03  0.83770659589E+02 -0.28351941898E+03  0.33726925748E+03  0.00000000000E+00 0.  1.
<mgrwt>
<rscale>  0 0.29823683E+03</rscale>
<asrwt>0</asrwt>
<pdfrwt beam="1">  1        1 0.10447715E+00 0.29823683E+03</pdfrwt>
<pdfrwt beam="2">  1       -2 0.32771298E-01 0.29823683E+03</pdfrwt>
<totfact> 0.22628213E+02</totfact>
</mgrwt>
</event>
<event>
12    3  0.2269558E-007  0.7826266E+03  0.7818608E-02  0.9585511E-01
         -2   -1    0    0    0  501 -0.00000000000E+00  0.00000000000E+00  0.32315547830E+03  0.32315547830E+03  0.00000000000E+00 0.  1.
          1   -1    0    0  501    0  0.00000000000E+00 -0.00000000000E+00 -0.23653167448E+04  0.23653167448E+04  0.00000000000E+00 0. -1.
        -24    2    1    2    0    0 -0.73364316955E+03 -0.20179313650E+03 -0.10732246270E+04  0.13180634217E+04  0.80791790793E+02 0.  0.
    5000000    2    1    2    0    0  0.73364316955E+03  0.20179313650E+03 -0.96893663948E+03  0.13704088014E+04  0.60019105410E+03 0.  0.
        -24    2    4    4    0    0  0.25982869733E+03 -0.35845671353E+02 -0.73748013433E+03  0.78677655088E+03  0.79652547769E+02 0.  0.
         24    2    4    4    0    0  0.47381447223E+03  0.23763880785E+03 -0.23145650514E+03  0.58363225050E+03  0.77988030929E+02 0.  0.
         11    1    5    5    0    0  0.12836536670E+03 -0.53866598573E+02 -0.42733308163E+03  0.44943613614E+03  0.00000000000E+00 0. -1.
        -12    1    5    5    0    0  0.13146333063E+03  0.18020927220E+02 -0.31014705270E+03  0.33734041474E+03  0.00000000000E+00 0.  1.
         13    1    3    3    0    0 -0.22409535056E+03 -0.33946971208E+02 -0.27599636666E+03  0.35713459285E+03  0.00000000000E+00 0. -1.
        -14    1    3    3    0    0 -0.50954781899E+03 -0.16784616529E+03 -0.79722826035E+03  0.96092882886E+03  0.00000000000E+00 0.  1.
          2    1    6    6  502    0  0.54415210317E+02  0.22853686957E+02 -0.84030747247E+00  0.59025521920E+02  0.00000000000E+00 0. -1.
         -1    1    6    6    0  502  0.41939926191E+03  0.21478512089E+03 -0.23061619767E+03  0.52460672858E+03  0.00000000000E+00 0.  1.
<mgrwt>
<rscale>  0 0.78262655E+03</rscale>
<asrwt>0</asrwt>
<pdfrwt beam="1">  1        1 0.36389488E+00 0.78262655E+03</pdfrwt>
<pdfrwt beam="2">  1       -2 0.49716228E-01 0.78262655E+03</pdfrwt>
<totfact> 0.58983220E+00</totfact>
</mgrwt>
</event>
<event>
12    3  0.2269558E-007  0.1124635E+04  0.7818608E-02  0.9181508E-01
         -2   -1    0    0    0  501 -0.00000000000E+00  0.00000000000E+00  0.65955939191E+03  0.65955939191E+03  0.00000000000E+00 0.  1.
          1   -1    0    0  501    0  0.00000000000E+00 -0.00000000000E+00 -0.20080193736E+04  0.20080193736E+04  0.00000000000E+00 0. -1.
        -24    2    1    2    0    0  0.17614513639E+03  0.10521497575E+04 -0.51995144298E+03  0.11896490088E+04  0.82879669655E+02 0.  0.
    5000000    2    1    2    0    0 -0.17614513639E+03 -0.10521497575E+04 -0.82850853870E+03  0.14779297568E+04  0.59983643262E+03 0.  0.
        -24    2    4    4    0    0  0.70214418133E+02 -0.85346118581E+03 -0.42612306239E+03  0.95985480463E+03  0.80089459195E+02 0.  0.
         24    2    4    4    0    0 -0.24635955452E+03 -0.19868857170E+03 -0.40238547631E+03  0.51807495213E+03  0.79482110199E+02 0.  0.
         11    1    3    3    0    0  0.63604537123E+02  0.26776923219E+03 -0.99922357679E+02  0.29279750070E+03  0.00000000000E+00 0. -1.
        -12    1    3    3    0    0  0.11254059927E+03  0.78438052533E+03 -0.42002908530E+03  0.89685150805E+03  0.00000000000E+00 0.  1.
         13    1    5    5    0    0  0.12012299071E+02 -0.57470007028E+03 -0.30002519447E+03  0.64841312713E+03  0.00000000000E+00 0. -1.
        -14    1    5    5    0    0  0.58202119062E+02 -0.27876111553E+03 -0.12609786792E+03  0.31144167751E+03  0.00000000000E+00 0.  1.
          4    1    6    6  502    0 -0.89440692087E+01  0.40698686975E+01 -0.14776324191E+01  0.99369815735E+01  0.00000000000E+00 0. -1.
         -3    1    6    6    0  502 -0.23741548532E+03 -0.20275844040E+03 -0.40090784389E+03  0.50813797055E+03  0.00000000000E+00 0.  1.
<mgrwt>
<rscale>  0 0.11246351E+04</rscale>
<asrwt>0</asrwt>
<pdfrwt beam="1">  1        1 0.30892605E+00 0.11246351E+04</pdfrwt>
<pdfrwt beam="2">  1       -2 0.10147068E+00 0.11246351E+04</pdfrwt>
<totfact> 0.20415306E+00</totfact>
</mgrwt>
</event>
<event>
12    3  0.2269558E-007  0.8988955E+03  0.7818608E-02  0.9426963E-01
          1   -1    0    0  501    0  0.00000000000E+00  0.00000000000E+00  0.26559331081E+04  0.26559331081E+04  0.00000000000E+00 0. -1.
         -2   -1    0    0    0  501 -0.00000000000E+00 -0.00000000000E+00 -0.38347472048E+03  0.38347472048E+03  0.00000000000E+00 0.  1.
        -24    2    1    2    0    0  0.76990121493E+03  0.41891457257E+03  0.62362876496E+03  0.10780601837E+04  0.71159141521E+02 0.  0.
    5000000    2    1    2    0    0 -0.76990121493E+03 -0.41891457257E+03  0.16488296226E+04  0.19613476448E+04  0.60000679951E+03 0.  0.
        -24    2    4    4    0    0 -0.18510839300E+02 -0.12099473420E+02  0.59483336194E+03  0.60229340962E+03  0.91878040710E+02 0.  0.
         24    2    4    4    0    0 -0.75139037563E+03 -0.40681509915E+03  0.10539962607E+04  0.13590542352E+04  0.77680596981E+02 0.  0.
         13    1    3    3    0    0  0.49831157104E+03  0.26372501208E+03  0.44156628931E+03  0.71613273329E+03  0.00000000000E+00 0. -1.
        -14    1    3    3    0    0  0.27158964389E+03  0.15518956050E+03  0.18206247565E+03  0.36192745045E+03  0.00000000000E+00 0.  1.
         13    1    5    5    0    0 -0.38315598599E+02  0.49707848949E+01  0.54169239573E+03  0.54306854575E+03  0.00000000000E+00 0. -1.
        -14    1    5    5    0    0  0.19804759298E+02 -0.17070258315E+02  0.53140966213E+02  0.59224863866E+02  0.00000000000E+00 0.  1.
          2    1    6    6  502    0 -0.14184569466E+03 -0.51741781425E+02  0.15577414063E+03  0.21694007451E+03  0.00000000000E+00 0. -1.
         -1    1    6    6    0  502 -0.60954468097E+03 -0.35507331773E+03  0.89822212006E+03  0.11421141607E+04  0.00000000000E+00 0.  1.
<mgrwt>
<rscale>  0 0.89889549E+03</rscale>
<asrwt>0</asrwt>
<pdfrwt beam="1">  1        1 0.40860508E+00 0.89889549E+03</pdfrwt>
<pdfrwt beam="2">  1       -2 0.58996113E-01 0.89889549E+03</pdfrwt>
<totfact> 0.25685965E+00</totfact>
</mgrwt>
</event>
<event>
12    3  0.2269558E-007  0.4773616E+03  0.7818608E-02  0.1019863E+00
         -2   -1    0    0    0  501 -0.00000000000E+00  0.00000000000E+00  0.30300269882E+03  0.30300269882E+03  0.00000000000E+00 0.  1.
          1   -1    0    0  501    0  0.00000000000E+00 -0.00000000000E+00 -0.12486473825E+04  0.12486473825E+04  0.00000000000E+00 0. -1.
        -24    2    1    2    0    0  0.45281147935E+03 -0.98802881290E+02 -0.32204389369E+03  0.56996281562E+03  0.79656114266E+02 0.  0.
    5000000    2    1    2    0    0 -0.45281147935E+03  0.98802881290E+02 -0.62360078997E+03  0.98168726568E+03  0.60002641373E+03 0.  0.
        -24    2    4    4    0    0 -0.15282330033E+03  0.80025015912E+02  0.85597807621E+02  0.20908024323E+03  0.81416209341E+02 0.  0.
         24    2    4    4    0    0 -0.29998817902E+03  0.18777865378E+02 -0.70919859759E+03  0.77260702245E+03  0.60111933449E+02 0.  0.
         13    1    5    5    0    0 -0.14609477941E+03  0.90156556406E+02  0.61988734406E+02  0.18252258059E+03  0.00000000000E+00 0. -1.
        -14    1    5    5    0    0 -0.67285209218E+01 -0.10131540494E+02  0.23609073214E+02  0.26557662635E+02  0.00000000000E+00 0.  1.
         13    1    3    3    0    0  0.78378110685E+02 -0.49193653697E+02 -0.61387598211E+02  0.11104765199E+03  0.00000000000E+00 0. -1.
        -14    1    3    3    0    0  0.37443336867E+03 -0.49609227593E+02 -0.26065629548E+03  0.45891516363E+03  0.00000000000E+00 0.  1.
          4    1    6    6  502    0 -0.25675361831E+03  0.13800253422E+02 -0.54293941397E+03  0.60074626487E+03  0.00000000000E+00 0. -1.
         -3    1    6    6    0  502 -0.43234560709E+02  0.49776119562E+01 -0.16625918362E+03  0.17186075759E+03  0.00000000000E+00 0.  1.
<mgrwt>
<rscale>  0 0.47736159E+03</rscale>
<asrwt>0</asrwt>
<pdfrwt beam="1">  1        1 0.19209960E+00 0.47736159E+03</pdfrwt>
<pdfrwt beam="2">  1       -2 0.46615800E-01 0.47736159E+03</pdfrwt>
<totfact> 0.39968053E+01</totfact>
</mgrwt>
</event>
<event>
12    3  0.2269558E-007  0.3409000E+03  0.7818608E-02  0.1066413E+00
          1   -1    0    0  501    0  0.00000000000E+00  0.00000000000E+00  0.24370569056E+04  0.24370569056E+04  0.00000000000E+00 0. -1.
         -4   -1    0    0    0  501 -0.00000000000E+00 -0.00000000000E+00 -0.70260301055E+02  0.70260301055E+02  0.00000000000E+00 0.  1.
        -24    2    1    2    0    0 -0.17382346183E+03  0.32349732553E+02  0.41599276425E+03  0.45868680466E+03  0.77990408265E+02 0.  0.
    5000000    2    1    2    0    0  0.17382346183E+03 -0.32349732553E+02  0.19508038403E+04  0.20486304020E+04  0.59999149960E+03 0.  0.
        -24    2    4    4    0    0 -0.61964115317E+01  0.20218419779E+03  0.14149229210E+04  0.14314414748E+04  0.78108757737E+02 0.  0.
         24    2    4    4    0    0  0.18001987336E+03 -0.23453393035E+03  0.53588091934E+03  0.61718892725E+03  0.79627212132E+02 0.  0.
         13    1    5    5    0    0 -0.41194795768E+01  0.14360687790E+03  0.12034776951E+04  0.12120224701E+04  0.00000000000E+00 0. -1.
        -14    1    5    5    0    0 -0.20769319549E+01  0.58577319898E+02  0.21144522590E+03  0.21941900467E+03  0.00000000000E+00 0.  1.
         13    1    3    3    0    0 -0.13314037753E+03  0.15681242113E+02  0.37625362871E+03  0.39942340267E+03  0.00000000000E+00 0. -1.
        -14    1    3    3    0    0 -0.40683084306E+02  0.16668490440E+02  0.39739135542E+02  0.59263401993E+02  0.00000000000E+00 0.  1.
          4    1    6    6  502    0  0.17832121643E+03 -0.20415578686E+03  0.50858797544E+03  0.57631568632E+03  0.00000000000E+00 0. -1.
         -3    1    6    6    0  502  0.16986569363E+01 -0.30378143485E+02  0.27292943901E+02  0.40873240925E+02  0.00000000000E+00 0.  1.
<mgrwt>
<rscale>  0 0.34090001E+03</rscale>
<asrwt>0</asrwt>
<pdfrwt beam="1">  1        1 0.37493177E+00 0.34090001E+03</pdfrwt>
<pdfrwt beam="2">  1       -4 0.10809279E-01 0.34090001E+03</pdfrwt>
<totfact> 0.55376393E+01</totfact>
</mgrwt>
</event>
<event>
12    3  0.2269558E-007  0.9781149E+03  0.7818608E-02  0.9332879E-01
          1   -1    0    0  501    0  0.00000000000E+00  0.00000000000E+00  0.22005128983E+04  0.22005128983E+04  0.00000000000E+00 0. -1.
         -2   -1    0    0    0  501 -0.00000000000E+00 -0.00000000000E+00 -0.49149072183E+03  0.49149072183E+03  0.00000000000E+00 0.  1.
        -24    2    1    2    0    0 -0.88530525494E+03  0.11406726201E+02  0.33321188051E+03  0.94938925740E+03  0.80089305872E+02 0.  0.
    5000000    2    1    2    0    0  0.88530525494E+03 -0.11406726201E+02  0.13758102960E+04  0.17426143627E+04  0.59996278128E+03 0.  0.
        -24    2    4    4    0    0 -0.77355358843E+01 -0.14300949475E+03  0.21136114237E+03  0.26709302324E+03  0.78444862509E+02 0.  0.
         24    2    4    4    0    0  0.89304079083E+03  0.13160276855E+03  0.11644491536E+04  0.14755213395E+04  0.79876462470E+02 0.  0.
         11    1    3    3    0    0 -0.69765941111E+03  0.32136766516E+02  0.28670553810E+03  0.75495794005E+03  0.00000000000E+00 0. -1.
        -12    1    3    3    0    0 -0.18764584384E+03 -0.20730040315E+02  0.46506342406E+02  0.19443131735E+03  0.00000000000E+00 0.  1.
         13    1    5    5    0    0 -0.11864562739E+02  0.64622431387E+01  0.21923305690E+02  0.25751888624E+02  0.00000000000E+00 0. -1.
        -14    1    5    5    0    0  0.41290268543E+01 -0.14947173789E+03  0.18943783668E+03  0.24134113461E+03  0.00000000000E+00 0.  1.
          4    1    6    6  502    0  0.14944613973E+03  0.51666859541E+02  0.21542202164E+03  0.26722698303E+03  0.00000000000E+00 0. -1.
         -3    1    6    6    0  502  0.74359465110E+03  0.79935909006E+02  0.94902713195E+03  0.12082943565E+04  0.00000000000E+00 0.  1.
<mgrwt>
<rscale>  0 0.97811492E+03</rscale>
<asrwt>0</asrwt>
<pdfrwt beam="1">  1        1 0.33854044E+00 0.97811492E+03</pdfrwt>
<pdfrwt beam="2">  1       -2 0.75613958E-01 0.97811492E+03</pdfrwt>
<totfact> 0.30369515E+00</totfact>
</mgrwt>
</event>
<event>
12    3  0.2269558E-007  0.7103763E+03  0.7818608E-02  0.9699650E-01
         -4   -1    0    0    0  501 -0.00000000000E+00  0.00000000000E+00  0.21106414192E+04  0.21106414192E+04  0.00000000000E+00 0.  1.
          1   -1    0    0  501    0  0.00000000000E+00 -0.00000000000E+00 -0.33733546997E+03  0.33733546997E+03  0.00000000000E+00 0. -1.
        -24    2    1    2    0    0  0.39765891968E+03 -0.44077533403E+03  0.14045417058E+04  0.15269029487E+04  0.79244557249E+02 0.  0.
    5000000    2    1    2    0    0 -0.39765891968E+03  0.44077533403E+03  0.36876424341E+03  0.92107394048E+03  0.59997885390E+03 0.  0.
        -24    2    4    4    0    0  0.13114295392E+03  0.41415930288E+02  0.43983950700E+00  0.15872442714E+03  0.79243275221E+02 0.  0.
         24    2    4    4    0    0 -0.52880187360E+03  0.39935940375E+03  0.36832440390E+03  0.76234951335E+03  0.79965987187E+02 0.  0.
         11    1    5    5    0    0  0.44630162422E+02  0.54424469663E+02 -0.79806900189E+01  0.70834777540E+02  0.00000000000E+00 0. -1.
        -12    1    5    5    0    0  0.86512791497E+02 -0.13008539375E+02  0.84205295259E+01  0.87889649600E+02  0.00000000000E+00 0.  1.
         13    1    3    3    0    0  0.22692033826E+03 -0.19402591785E+03  0.67680840999E+03  0.73973543956E+03  0.00000000000E+00 0. -1.
        -14    1    3    3    0    0  0.17073858142E+03 -0.24674941619E+03  0.72773329586E+03  0.78716750916E+03  0.00000000000E+00 0.  1.
          2    1    6    6  502    0 -0.25379638321E+03  0.16292656257E+03  0.13022255388E+03  0.32850507220E+03  0.00000000000E+00 0. -1.
         -1    1    6    6    0  502 -0.27500549039E+03  0.23643284117E+03  0.23810185002E+03  0.43384444114E+03  0.00000000000E+00 0.  1.
<mgrwt>
<rscale>  0 0.71037626E+03</rscale>
<asrwt>0</asrwt>
<pdfrwt beam="1">  1        1 0.51897766E-01 0.71037626E+03</pdfrwt>
<pdfrwt beam="2">  1       -4 0.32471406E+00 0.71037626E+03</pdfrwt>
<totfact> 0.80458384E-01</totfact>
</mgrwt>
</event>
<event>
12    3  0.2269558E-007  0.1012643E+04  0.7818608E-02  0.9294786E-01
          1   -1    0    0  501    0  0.00000000000E+00  0.00000000000E+00  0.35842221719E+04  0.35842221719E+04  0.00000000000E+00 0. -1.
         -2   -1    0    0    0  501 -0.00000000000E+00 -0.00000000000E+00 -0.62618680270E+03  0.62618680270E+03  0.00000000000E+00 0.  1.
        -24    2    1    2    0    0 -0.27866033559E+03  0.91908026790E+03  0.29226347939E+04  0.30774414942E+04  0.80572266859E+02 0.  0.
    5000000    2    1    2    0    0  0.27866033559E+03 -0.91908026790E+03  0.35400575249E+02  0.11329674804E+04  0.60000165777E+03 0.  0.
        -24    2    4    4    0    0 -0.10821811648E+02  0.31758567212E+02 -0.92993905999E+02  0.12740602225E+03  0.80366098284E+02 0.  0.
         24    2    4    4    0    0  0.28948214724E+03 -0.95083883511E+03  0.12839448125E+03  0.10055614581E+04  0.82306131504E+02 0.  0.
         13    1    3    3    0    0 -0.35682696587E+02  0.70683125100E+02  0.30179611262E+03  0.31201002004E+03  0.00000000000E+00 0. -1.
        -14    1    3    3    0    0 -0.24297763901E+03  0.84839714280E+03  0.26208386813E+04  0.27654314742E+04  0.00000000000E+00 0.  1.
         13    1    5    5    0    0 -0.24993162970E+02  0.43339229494E+02 -0.96568787138E+02  0.10875880497E+03  0.00000000000E+00 0. -1.
        -14    1    5    5    0    0  0.14171351322E+02 -0.11580662282E+02  0.35748811396E+01  0.18647217281E+02  0.00000000000E+00 0.  1.
          2    1    6    6  502    0  0.26206910160E+03 -0.79623452314E+03  0.13155289148E+03  0.84851387326E+03  0.00000000000E+00 0. -1.
         -1    1    6    6    0  502  0.27413045645E+02 -0.15460431197E+03 -0.31584102299E+01  0.15704758485E+03  0.00000000000E+00 0.  1.
<mgrwt>
<rscale>  0 0.10126426E+04</rscale>
<asrwt>0</asrwt>
<pdfrwt beam="1">  1        1 0.55141878E+00 0.10126426E+04</pdfrwt>
<pdfrwt beam="2">  1       -2 0.96336434E-01 0.10126426E+04</pdfrwt>
<totfact> 0.17540069E-01</totfact>
</mgrwt>
</event>
<event>
12    3  0.2269558E-007  0.1693776E+04  0.7818608E-02  0.8764922E-01
         -2   -1    0    0    0  501 -0.00000000000E+00  0.00000000000E+00  0.16554198013E+04  0.16554198013E+04  0.00000000000E+00 0.  1.
          1   -1    0    0  501    0  0.00000000000E+00 -0.00000000000E+00 -0.17949152628E+04  0.17949152628E+04  0.00000000000E+00 0. -1.
        -24    2    1    2    0    0  0.57065989376E+03 -0.15679109988E+04 -0.15034582897E+03  0.16771428524E+04  0.78782386512E+02 0.  0.
    5000000    2    1    2    0    0 -0.57065989376E+03  0.15679109988E+04  0.10850367451E+02  0.17731922117E+04  0.60007939012E+03 0.  0.
        -24    2    4    4    0    0 -0.19858535920E+03  0.10800438273E+04 -0.20259571324E+03  0.11188664214E+04  0.69901588795E+02 0.  0.
         24    2    4    4    0    0 -0.37207453456E+03  0.48786717156E+03  0.21344608069E+03  0.65432579031E+03  0.78289042271E+02 0.  0.
         13    1    5    5    0    0 -0.27005076721E+02  0.31107956074E+03 -0.68222720245E+02  0.31961556100E+03  0.00000000000E+00 0. -1.
        -14    1    5    5    0    0 -0.17158028248E+03  0.76896426655E+03 -0.13437299300E+03  0.79925086037E+03  0.00000000000E+00 0.  1.
         13    1    3    3    0    0  0.44059899735E+03 -0.11149719941E+04 -0.12167285105E+03  0.12050287577E+04  0.00000000000E+00 0. -1.
        -14    1    3    3    0    0  0.13006089641E+03 -0.45293900474E+03 -0.28672977922E+02  0.47211409474E+03  0.00000000000E+00 0.  1.
          2    1    6    6  502    0 -0.36429074316E+03  0.45156404467E+03  0.19041994174E+03  0.61063703310E+03  0.00000000000E+00 0. -1.
         -1    1    6    6    0  502 -0.77837914077E+01  0.36303126891E+02  0.23026138951E+02  0.43688757201E+02  0.00000000000E+00 0.  1.
<mgrwt>
<rscale>  0 0.16937763E+04</rscale>
<asrwt>0</asrwt>
<pdfrwt beam="1">  1        1 0.27614081E+00 0.16937763E+04</pdfrwt>
<pdfrwt beam="2">  1       -2 0.25467997E+00 0.16937763E+04</pdfrwt>
<totfact> 0.19962977E-01</totfact>
</mgrwt>
</event>
<event>
12    3  0.2269558E-007  0.1151510E+04  0.7818608E-02  0.9156392E-01
         -2   -1    0    0    0  501 -0.00000000000E+00  0.00000000000E+00  0.69432324406E+03  0.69432324406E+03  0.00000000000E+00 0.  1.
          1   -1    0    0  501    0  0.00000000000E+00 -0.00000000000E+00 -0.20594037970E+04  0.20594037970E+04  0.00000000000E+00 0. -1.
        -24    2    1    2    0    0  0.67083292046E+03  0.88812320077E+03 -0.50610615247E+03  0.12254095715E+04  0.81887443147E+02 0.  0.
    5000000    2    1    2    0    0 -0.67083292046E+03 -0.88812320077E+03 -0.85897440044E+03  0.15283174696E+04  0.59928093603E+03 0.  0.
        -24    2    4    4    0    0 -0.39195233553E+03 -0.21052608248E+03 -0.58444901967E+03  0.73883753856E+03  0.79701863555E+02 0.  0.
         24    2    4    4    0    0 -0.27888058493E+03 -0.67759711829E+03 -0.27452538077E+03  0.78947993102E+03  0.10489109321E+03 0.  0.
         11    1    3    3    0    0  0.28190870779E+03  0.44002377934E+03 -0.24465794574E+03  0.57701902596E+03  0.00000000000E+00 0. -1.
        -12    1    3    3    0    0  0.38892421268E+03  0.44809942143E+03 -0.26144820673E+03  0.64839054550E+03  0.00000000000E+00 0.  1.
         13    1    5    5    0    0 -0.26230647150E+03 -0.17387373833E+03 -0.44398803056E+03  0.54420780328E+03  0.00000000000E+00 0. -1.
        -14    1    5    5    0    0 -0.12964586403E+03 -0.36652344153E+02 -0.14046098912E+03  0.19462973528E+03  0.00000000000E+00 0.  1.
          4    1    6    6  502    0 -0.25836915940E+03 -0.54091229016E+03 -0.24808714716E+03  0.64875878473E+03  0.00000000000E+00 0. -1.
         -3    1    6    6    0  502 -0.20511425532E+02 -0.13668482812E+03 -0.26438233605E+02  0.14072114629E+03  0.00000000000E+00 0.  1.
<mgrwt>
<rscale>  0 0.11515099E+04</rscale>
<asrwt>0</asrwt>
<pdfrwt beam="1">  1        1 0.31683136E+00 0.11515099E+04</pdfrwt>
<pdfrwt beam="2">  1       -2 0.10681896E+00 0.11515099E+04</pdfrwt>
<totfact> 0.16600335E+00</totfact>
</mgrwt>
</event>
<event>
12    3  0.2269558E-007  0.5501170E+03  0.7818608E-02  0.1001467E+00
         -2   -1    0    0    0  501 -0.00000000000E+00  0.00000000000E+00  0.17922579554E+04  0.17922579554E+04  0.00000000000E+00 0.  1.
          1   -1    0    0  501    0  0.00000000000E+00 -0.00000000000E+00 -0.40733026377E+03  0.40733026377E+03  0.00000000000E+00 0. -1.
        -24    2    1    2    0    0  0.16562897314E+03  0.49260943244E+03  0.12987506786E+04  0.14011323615E+04  0.79508237431E+02 0.  0.
    5000000    2    1    2    0    0 -0.16562897314E+03 -0.49260943244E+03  0.86177013104E+02  0.79845585767E+03  0.60000689112E+03 0.  0.
        -24    2    4    4    0    0 -0.68906012897E+01 -0.36121658892E+03  0.31198481954E+03  0.48379018553E+03  0.78698865954E+02 0.  0.
         24    2    4    4    0    0 -0.15873837185E+03 -0.13139284352E+03 -0.22580780643E+03  0.31466567214E+03  0.74588000041E+02 0.  0.
         11    1    5    5    0    0  0.20424986042E+02 -0.31104049950E+03  0.27546090095E+03  0.41598326930E+03  0.00000000000E+00 0. -1.
        -12    1    5    5    0    0 -0.27315587331E+02 -0.50176089415E+02  0.36523918588E+02  0.67806916235E+02  0.00000000000E+00 0.  1.
         11    1    3    3    0    0  0.59378219267E+02  0.15328973735E+03  0.51253023162E+03  0.53824785631E+03  0.00000000000E+00 0. -1.
        -12    1    3    3    0    0  0.10625075387E+03  0.33931969509E+03  0.78622044695E+03  0.86288450524E+03  0.00000000000E+00 0.  1.
          4    1    6    6  502    0 -0.36914014649E+02 -0.74664546696E+01 -0.77655457133E+02  0.86306213249E+02  0.00000000000E+00 0. -1.
         -3    1    6    6    0  502 -0.12182435720E+03 -0.12392638885E+03 -0.14815234930E+03  0.22835945889E+03  0.00000000000E+00 0.  1.
<mgrwt>
<rscale>  0 0.55011700E+03</rscale>
<asrwt>0</asrwt>
<pdfrwt beam="1">  1        1 0.62666195E-01 0.55011700E+03</pdfrwt>
<pdfrwt beam="2">  1       -2 0.27573199E+00 0.55011700E+03</pdfrwt>
<totfact> 0.24639454E+00</totfact>
</mgrwt>
</event>
<event>
12    3  0.2269558E-007  0.1540869E+04  0.7818608E-02  0.8857721E-01
         -2   -1    0    0    0  501 -0.00000000000E+00  0.00000000000E+00  0.84266022521E+03  0.84266022521E+03  0.00000000000E+00 0.  1.
          1   -1    0    0  501    0  0.00000000000E+00 -0.00000000000E+00 -0.38413105518E+04  0.38413105518E+04  0.00000000000E+00 0. -1.
        -24    2    1    2    0    0  0.14926811448E+04  0.28280833361E+03 -0.33211147882E+03  0.15569124855E+04  0.74839158085E+02 0.  0.
    5000000    2    1    2    0    0 -0.14926811448E+04 -0.28280833361E+03 -0.26665388478E+04  0.31270582915E+04  0.59998881511E+03 0.  0.
        -24    2    4    4    0    0 -0.37355936016E+03  0.65944524734E+02 -0.32247473298E+03  0.50491439762E+03  0.83984043786E+02 0.  0.
         24    2    4    4    0    0 -0.11191217846E+04 -0.34875285835E+03 -0.23440641148E+04  0.26221438939E+04  0.83306067978E+02 0.  0.
         11    1    5    5    0    0 -0.90609409579E+02  0.53529490533E+02 -0.83481922761E+02  0.13433057317E+03  0.00000000000E+00 0. -1.
        -12    1    5    5    0    0 -0.28294995058E+03  0.12415034201E+02 -0.23899281021E+03  0.37058382444E+03  0.00000000000E+00 0.  1.
         13    1    3    3    0    0  0.23133591069E+03  0.71481703781E+02 -0.56103420138E+02  0.24854281583E+03  0.00000000000E+00 0. -1.
        -14    1    3    3    0    0  0.12613452341E+04  0.21132662983E+03 -0.27600805868E+03  0.13083696697E+04  0.00000000000E+00 0.  1.
          2    1    6    6  502    0 -0.45126503589E+03 -0.13723526728E+03 -0.10352055651E+04  0.11375958040E+04  0.00000000000E+00 0. -1.
         -1    1    6    6    0  502 -0.66785674874E+03 -0.21151759107E+03 -0.13088585497E+04  0.14845480899E+04  0.00000000000E+00 0.  1.
<mgrwt>
<rscale>  0 0.15408692E+04</rscale>
<asrwt>0</asrwt>
<pdfrwt beam="1">  1        1 0.59097088E+00 0.15408692E+04</pdfrwt>
<pdfrwt beam="2">  1       -2 0.12964003E+00 0.15408692E+04</pdfrwt>
<totfact> 0.48196894E-02</totfact>
</mgrwt>
</event>
<event>
12    3  0.2269558E-007  0.4703210E+03  0.7818608E-02  0.1021830E+00
         -2   -1    0    0    0  501 -0.00000000000E+00  0.00000000000E+00  0.96257025422E+03  0.96257025422E+03  0.00000000000E+00 0.  1.
          1   -1    0    0  501    0  0.00000000000E+00 -0.00000000000E+00 -0.11106231439E+04  0.11106231439E+04  0.00000000000E+00 0. -1.
        -24    2    1    2    0    0 -0.24709088123E+03  0.21831655235E+03  0.82009114716E+03  0.88753836632E+03  0.80366917470E+02 0.  0.
    5000000    2    1    2    0    0  0.24709088123E+03 -0.21831655235E+03 -0.96814403683E+03  0.11856550318E+04  0.59979909783E+03 0.  0.
        -24    2    4    4    0    0  0.22891376609E+03 -0.37725477434E+03 -0.44018970846E+03  0.62843524979E+03  0.80257128520E+02 0.  0.
         24    2    4    4    0    0  0.18177115147E+02  0.15893822199E+03 -0.52795432837E+03  0.55721978201E+03  0.78526089218E+02 0.  0.
         11    1    5    5    0    0  0.95151288712E+02 -0.18868641622E+03 -0.26164313462E+03  0.33632344745E+03  0.00000000000E+00 0. -1.
        -12    1    5    5    0    0  0.13376247737E+03 -0.18856835812E+03 -0.17854657384E+03  0.29211180234E+03  0.00000000000E+00 0.  1.
         13    1    3    3    0    0 -0.58739694093E+02  0.15536587758E+02  0.11475425900E+03  0.12984713005E+03  0.00000000000E+00 0. -1.
        -14    1    3    3    0    0 -0.18835118714E+03  0.20277996459E+03  0.70533688816E+03  0.75769123628E+03  0.00000000000E+00 0.  1.
          2    1    6    6  502    0  0.42136550984E+01  0.98028343475E+02 -0.42982985006E+03  0.44088661923E+03  0.00000000000E+00 0. -1.
         -1    1    6    6    0  502  0.13963460049E+02  0.60909878517E+02 -0.98124478311E+02  0.11633316278E+03  0.00000000000E+00 0.  1.
<mgrwt>
<rscale>  0 0.47032100E+03</rscale>
<asrwt>0</asrwt>
<pdfrwt beam="1">  1        1 0.17086510E+00 0.47032100E+03</pdfrwt>
<pdfrwt beam="2">  1       -2 0.14808773E+00 0.47032100E+03</pdfrwt>
<totfact> 0.36604879E+00</totfact>
</mgrwt>
</event>
<event>
12    3  0.2269558E-007  0.1696541E+04  0.7818608E-02  0.8763340E-01
         -2   -1    0    0    0  501 -0.00000000000E+00  0.00000000000E+00  0.78412578569E+03  0.78412578569E+03  0.00000000000E+00 0.  1.
          1   -1    0    0  501    0  0.00000000000E+00 -0.00000000000E+00 -0.37189266736E+04  0.37189266736E+04  0.00000000000E+00 0. -1.
        -24    2    1    2    0    0 -0.14375699226E+04  0.80887336422E+03 -0.15850488223E+04  0.22889042848E+04  0.76286658291E+02 0.  0.
    5000000    2    1    2    0    0  0.14375699226E+04 -0.80887336422E+03 -0.13497520656E+04  0.22141481745E+04  0.59978170901E+03 0.  0.
        -24    2    4    4    0    0  0.14267007948E+04 -0.84409992178E+03 -0.12298054886E+04  0.20656057593E+04  0.79534754426E+02 0.  0.
         24    2    4    4    0    0  0.10869127735E+02  0.35226557559E+02 -0.11994657700E+03  0.14854241520E+03  0.79489744526E+02 0.  0.
         11    1    3    3    0    0 -0.60807542262E+03  0.36019273298E+03 -0.63163549733E+03  0.94787020523E+03  0.00000000000E+00 0. -1.
        -12    1    3    3    0    0 -0.82949449994E+03  0.44868063124E+03 -0.95341332494E+03  0.13410340795E+04  0.00000000000E+00 0.  1.
         11    1    5    5    0    0  0.84793341003E+03 -0.54601294487E+03 -0.73840071876E+03  0.12499427288E+04  0.00000000000E+00 0. -1.
        -12    1    5    5    0    0  0.57876738480E+03 -0.29808697691E+03 -0.49140476989E+03  0.81566303053E+03  0.00000000000E+00 0.  1.
          4    1    6    6  502    0 -0.19533667406E+02  0.47171652794E+02 -0.50574516197E+02  0.71864530042E+02  0.00000000000E+00 0. -1.
         -3    1    6    6    0  502  0.30402795141E+02 -0.11945095234E+02 -0.69372060800E+02  0.76677885158E+02  0.00000000000E+00 0.  1.
<mgrwt>
<rscale>  0 0.16965411E+04</rscale>
<asrwt>0</asrwt>
<pdfrwt beam="1">  1        1 0.57214257E+00 0.16965411E+04</pdfrwt>
<pdfrwt beam="2">  1       -2 0.12063473E+00 0.16965411E+04</pdfrwt>
<totfact> 0.71774278E-02</totfact>
</mgrwt>
</event>
<event>
12    3  0.2269558E-007  0.6575749E+03  0.7818608E-02  0.9792668E-01
          1   -1    0    0  501    0  0.00000000000E+00  0.00000000000E+00  0.15370792719E+04  0.15370792719E+04  0.00000000000E+00 0. -1.
         -2   -1    0    0    0  501 -0.00000000000E+00 -0.00000000000E+00 -0.31944392523E+03  0.31944392523E+03  0.00000000000E+00 0.  1.
        -24    2    1    2    0    0  0.10977102030E+03  0.50870193722E+03  0.80426152511E+03  0.96127379098E+03  0.79895948805E+02 0.  0.
    5000000    2    1    2    0    0 -0.10977102030E+03 -0.50870193722E+03  0.41337382156E+03  0.89524940614E+03  0.59980517256E+03 0.  0.
        -24    2    4    4    0    0 -0.34624119525E+03 -0.27515004251E+03  0.25553015576E+03  0.51748259805E+03  0.83078683152E+02 0.  0.
         24    2    4    4    0    0  0.23647017495E+03 -0.23355189471E+03  0.15784366579E+03  0.37776680809E+03  0.85606701279E+02 0.  0.
         13    1    5    5    0    0 -0.16803664376E+03 -0.93713105964E+02  0.14117611696E+03  0.23864022267E+03  0.00000000000E+00 0. -1.
        -14    1    5    5    0    0 -0.17820455149E+03 -0.18143693655E+03  0.11435403880E+03  0.27884237538E+03  0.00000000000E+00 0.  1.
         13    1    3    3    0    0  0.62177898284E+02  0.13290002043E+03  0.25149594107E+03  0.29116784650E+03  0.00000000000E+00 0. -1.
        -14    1    3    3    0    0  0.47593122015E+02  0.37580191679E+03  0.55276558404E+03  0.67010594448E+03  0.00000000000E+00 0.  1.
          4    1    6    6  502    0  0.91041601774E+02 -0.36705300938E+02  0.38025049133E+02  0.10526992321E+03  0.00000000000E+00 0. -1.
         -3    1    6    6    0  502  0.14542857318E+03 -0.19684659377E+03  0.11981861666E+03  0.27249688489E+03  0.00000000000E+00 0.  1.
<mgrwt>
<rscale>  0 0.65757488E+03</rscale>
<asrwt>0</asrwt>
<pdfrwt beam="1">  1        1 0.23647373E+00 0.65757488E+03</pdfrwt>
<pdfrwt beam="2">  1       -2 0.49145220E-01 0.65757488E+03</pdfrwt>
<totfact> 0.22124623E+01</totfact>
</mgrwt>
</event>
<event>
12    3  0.2269558E-007  0.5574638E+03  0.7818608E-02  0.9997810E-01
         -2   -1    0    0    0  501 -0.00000000000E+00  0.00000000000E+00  0.11128718971E+04  0.11128718971E+04  0.00000000000E+00 0.  1.
          1   -1    0    0  501    0  0.00000000000E+00 -0.00000000000E+00 -0.43487195062E+03  0.43487195062E+03  0.00000000000E+00 0. -1.
        -24    2    1    2    0    0 -0.84999656243E+02 -0.45293461014E+03 -0.82624238129E+02  0.47490729745E+03  0.79595689712E+02 0.  0.
    5000000    2    1    2    0    0  0.84999656243E+02  0.45293461014E+03  0.76062418459E+03  0.10728365502E+04  0.60004534056E+03 0.  0.
        -24    2    4    4    0    0 -0.26195099334E+02 -0.78502320340E+02 -0.21641827198E+02  0.11715203754E+03  0.80046447067E+02 0.  0.
         24    2    4    4    0    0  0.11119475558E+03  0.53143693048E+03  0.78226601179E+03  0.95568451270E+03  0.81260629309E+02 0.  0.
         11    1    3    3    0    0  0.15559314127E+02 -0.73115970251E+02 -0.12292845944E+02  0.75757187271E+02  0.00000000000E+00 0. -1.
        -12    1    3    3    0    0 -0.10055897037E+03 -0.37981863989E+03 -0.70331392186E+02  0.39915011018E+03  0.00000000000E+00 0.  1.
         13    1    5    5    0    0 -0.41418627558E+02 -0.28660923704E+02 -0.37368310683E+02  0.62716360702E+02  0.00000000000E+00 0. -1.
        -14    1    5    5    0    0  0.15223528225E+02 -0.49841396636E+02  0.15726483486E+02  0.54435676840E+02  0.00000000000E+00 0.  1.
          2    1    6    6  502    0  0.49914012588E+02  0.34359631475E+03  0.44011421348E+03  0.56058037521E+03  0.00000000000E+00 0. -1.
         -1    1    6    6    0  502  0.61280742988E+02  0.18784061573E+03  0.34215179831E+03  0.39510413749E+03  0.00000000000E+00 0.  1.
<mgrwt>
<rscale>  0 0.55746382E+03</rscale>
<asrwt>0</asrwt>
<pdfrwt beam="1">  1        1 0.66903378E-01 0.55746382E+03</pdfrwt>
<pdfrwt beam="2">  1       -2 0.17121106E+00 0.55746382E+03</pdfrwt>
<totfact> 0.10229595E+01</totfact>
</mgrwt>
</event>
<event>
12    3  0.2269558E-007  0.1303188E+04  0.7818608E-02  0.9027041E-01
          1   -1    0    0  501    0  0.00000000000E+00  0.00000000000E+00  0.13382752395E+04  0.13382752395E+04  0.00000000000E+00 0. -1.
         -2   -1    0    0    0  501 -0.00000000000E+00 -0.00000000000E+00 -0.13565524440E+04  0.13565524440E+04  0.00000000000E+00 0.  1.
        -24    2    1    2    0    0 -0.12225186383E+04  0.25064272672E+03 -0.29009823233E+03  0.12836275588E+04  0.78543796110E+02 0.  0.
    5000000    2    1    2    0    0  0.12225186383E+04 -0.25064272672E+03  0.27182102779E+03  0.14112001246E+04  0.60018790641E+03 0.  0.
        -24    2    4    4    0    0  0.20254454821E+03 -0.25809201958E+03 -0.43823954327E+02  0.34028173535E+03  0.78964142888E+02 0.  0.
         24    2    4    4    0    0  0.10199740901E+04  0.74492928584E+01  0.31564498211E+03  0.10709183893E+04  0.82654734974E+02 0.  0.
         11    1    3    3    0    0 -0.14429346606E+03  0.34628062229E+02 -0.92452821705E+01  0.14867811636E+03  0.00000000000E+00 0. -1.
        -12    1    3    3    0    0 -0.10782251723E+04  0.21601466449E+03 -0.28085295016E+03  0.11349494425E+04  0.00000000000E+00 0.  1.
         13    1    5    5    0    0  0.56061299811E+02 -0.26929565445E+02  0.46009710107E+01  0.62363769657E+02  0.00000000000E+00 0. -1.
        -14    1    5    5    0    0  0.14648324840E+03 -0.23116245413E+03 -0.48424925338E+02  0.27791796569E+03  0.00000000000E+00 0.  1.
          2    1    6    6  502    0  0.21551520156E+03  0.30632806996E+02  0.49268203204E+02  0.22318720128E+03  0.00000000000E+00 0. -1.
         -1    1    6    6    0  502  0.80445888856E+03 -0.23183514137E+02  0.26637677891E+03  0.84773118797E+03  0.00000000000E+00 0.  1.
<mgrwt>
<rscale>  0 0.13031879E+04</rscale>
<asrwt>0</asrwt>
<pdfrwt beam="1">  1        1 0.20588850E+00 0.13031879E+04</pdfrwt>
<pdfrwt beam="2">  1       -2 0.20870038E+00 0.13031879E+04</pdfrwt>
<totfact> 0.83761492E-01</totfact>
</mgrwt>
</event>
<event>
12    3  0.2269558E-007  0.4515691E+03  0.7818608E-02  0.1027255E+00
         -2   -1    0    0    0  501 -0.00000000000E+00  0.00000000000E+00  0.27537299108E+03  0.27537299108E+03  0.00000000000E+00 0.  1.
          1   -1    0    0  501    0  0.00000000000E+00 -0.00000000000E+00 -0.87235425105E+03  0.87235425105E+03  0.00000000000E+00 0. -1.
        -24    2    1    2    0    0  0.10422482128E+03 -0.24177126637E+03 -0.35578908914E+03  0.44950865621E+03  0.78460164711E+02 0.  0.
    5000000    2    1    2    0    0 -0.10422482128E+03  0.24177126637E+03 -0.24119217083E+03  0.69821858592E+03  0.60001614299E+03 0.  0.
        -24    2    4    4    0    0  0.18000293348E+03  0.29104703394E+03 -0.16773672785E+03  0.38982427193E+03  0.81962925062E+02 0.  0.
         24    2    4    4    0    0 -0.28422775476E+03 -0.49275767569E+02 -0.73455442983E+02  0.30839431400E+03  0.80609136911E+02 0.  0.
         11    1    5    5    0    0  0.10011455602E+03  0.12556114052E+03 -0.11851749704E+03  0.19958687693E+03  0.00000000000E+00 0. -1.
        -12    1    5    5    0    0  0.79888377462E+02  0.16548589342E+03 -0.49219230803E+02  0.19023739500E+03  0.00000000000E+00 0.  1.
         13    1    3    3    0    0  0.23381429971E+02 -0.11830081937E+03 -0.20938216384E+03  0.24162505182E+03  0.00000000000E+00 0. -1.
        -14    1    3    3    0    0  0.80843391309E+02 -0.12347044700E+03 -0.14640692529E+03  0.20788360439E+03  0.00000000000E+00 0.  1.
          4    1    6    6  502    0 -0.39487016669E+02 -0.19603913099E+02 -0.40137777297E+02  0.59620290678E+02  0.00000000000E+00 0. -1.
         -3    1    6    6    0  502 -0.24474073809E+03 -0.29671854470E+02 -0.33317665686E+02  0.24877402332E+03  0.00000000000E+00 0.  1.
<mgrwt>
<rscale>  0 0.45156915E+03</rscale>
<asrwt>0</asrwt>
<pdfrwt beam="1">  1        1 0.13420834E+00 0.45156915E+03</pdfrwt>
<pdfrwt beam="2">  1       -2 0.42365076E-01 0.45156915E+03</pdfrwt>
<totfact> 0.92823305E+01</totfact>
</mgrwt>
</event>
<event>
12    3  0.2269558E-007  0.7088812E+03  0.7818608E-02  0.9702163E-01
         -2   -1    0    0    0  501 -0.00000000000E+00  0.00000000000E+00  0.67151263048E+03  0.67151263048E+03  0.00000000000E+00 0.  1.
          3   -1    0    0  501    0  0.00000000000E+00 -0.00000000000E+00 -0.82294368785E+03  0.82294368785E+03  0.00000000000E+00 0. -1.
        -24    2    1    2    0    0 -0.59470615349E+03  0.15886048901E+03  0.11499925774E+01  0.62136273025E+03  0.84724589703E+02 0.  0.
    5000000    2    1    2    0    0  0.59470615349E+03 -0.15886048901E+03 -0.15258104994E+03  0.87309358808E+03  0.60008280495E+03 0.  0.
        -24    2    4    4    0    0 -0.52041068870E+02  0.82675844773E+02 -0.12498882341E+03  0.17763906503E+03  0.79936620452E+02 0.  0.
         24    2    4    4    0    0  0.64674722236E+03 -0.24153633378E+03 -0.27592226527E+02  0.69545452305E+03  0.79207906852E+02 0.  0.
         11    1    3    3    0    0 -0.43783092632E+02  0.22495693877E+02 -0.20686039832E+02  0.53394079141E+02  0.00000000000E+00 0. -1.
        -12    1    3    3    0    0 -0.55092306085E+03  0.13636479513E+03  0.21836032410E+02  0.56796865111E+03  0.00000000000E+00 0.  1.
         13    1    5    5    0    0 -0.16875983711E+02  0.67907121394E+02 -0.12035585339E+03  0.13921820070E+03  0.00000000000E+00 0. -1.
        -14    1    5    5    0    0 -0.35165085160E+02  0.14768723380E+02 -0.46329700243E+01  0.38420864329E+02  0.00000000000E+00 0.  1.
          2    1    6    6  502    0  0.43597654250E+03 -0.19189151614E+03 -0.43575592687E+02  0.47832701351E+03  0.00000000000E+00 0. -1.
         -1    1    6    6    0  502  0.21077067986E+03 -0.49644817639E+02  0.15983366159E+02  0.21712750954E+03  0.00000000000E+00 0.  1.
<mgrwt>
<rscale>  0 0.70888125E+03</rscale>
<asrwt>0</asrwt>
<pdfrwt beam="1">  1        3 0.12660672E+00 0.70888125E+03</pdfrwt>
<pdfrwt beam="2">  1       -2 0.10330964E+00 0.70888125E+03</pdfrwt>
<totfact> 0.15840601E+00</totfact>
</mgrwt>
</event>
<event>
12    3  0.2269558E-007  0.8935421E+03  0.7818608E-02  0.9433690E-01
         -2   -1    0    0    0  501 -0.00000000000E+00  0.00000000000E+00  0.14438581403E+04  0.14438581403E+04  0.00000000000E+00 0.  1.
          1   -1    0    0  501    0  0.00000000000E+00 -0.00000000000E+00 -0.56502373597E+03  0.56502373597E+03  0.00000000000E+00 0. -1.
        -24    2    1    2    0    0  0.73180811608E+03 -0.32371825341E+03  0.44699027963E+03  0.91936748947E+03  0.71411793632E+02 0.  0.
    5000000    2    1    2    0    0 -0.73180811608E+03  0.32371825341E+03  0.43184412471E+03  0.10895143868E+04  0.60017966034E+03 0.  0.
        -24    2    4    4    0    0 -0.65761325000E+03  0.79452645898E+01  0.32417519410E+03  0.73758229155E+03  0.80123445585E+02 0.  0.
         24    2    4    4    0    0 -0.74194866075E+02  0.31577298882E+03  0.10766893061E+03  0.35193209526E+03  0.83941303537E+02 0.  0.
         11    1    5    5    0    0 -0.26423333310E+03 -0.20778948020E+02  0.16523342204E+03  0.31233492082E+03  0.00000000000E+00 0. -1.
        -12    1    5    5    0    0 -0.39337991690E+03  0.28724212610E+02  0.15894177206E+03  0.42524737073E+03  0.00000000000E+00 0.  1.
         13    1    3    3    0    0  0.51369365173E+03 -0.19237043381E+03  0.29459687380E+03  0.62263542277E+03  0.00000000000E+00 0. -1.
        -14    1    3    3    0    0  0.21811446435E+03 -0.13134781960E+03  0.15239340583E+03  0.29673206671E+03  0.00000000000E+00 0.  1.
          4    1    6    6  502    0 -0.26987472891E+02  0.13162870862E+03  0.88445709296E+02  0.16086355746E+03  0.00000000000E+00 0. -1.
         -3    1    6    6    0  502 -0.47207393184E+02  0.18414428020E+03  0.19223221317E+02  0.19106853781E+03  0.00000000000E+00 0.  1.
<mgrwt>
<rscale>  0 0.89354211E+03</rscale>
<asrwt>0</asrwt>
<pdfrwt beam="1">  1        1 0.86926729E-01 0.89354211E+03</pdfrwt>
<pdfrwt beam="2">  1       -2 0.22213202E+00 0.89354211E+03</pdfrwt>
<totfact> 0.31675349E+00</totfact>
</mgrwt>
</event>
<event>
12    3  0.2269558E-007  0.1033754E+04  0.7818608E-02  0.9272279E-01
          1   -1    0    0  501    0  0.00000000000E+00  0.00000000000E+00  0.16507992082E+04  0.16507992082E+04  0.00000000000E+00 0. -1.
         -2   -1    0    0    0  501 -0.00000000000E+00 -0.00000000000E+00 -0.78253649563E+03  0.78253649563E+03  0.00000000000E+00 0.  1.
        -24    2    1    2    0    0  0.65307305259E+03  0.77552390552E+03  0.88527434790E+02  0.10205572646E+04  0.75883355522E+02 0.  0.
    5000000    2    1    2    0    0 -0.65307305259E+03 -0.77552390552E+03  0.77973527776E+03  0.14127784392E+04  0.60001172886E+03 0.  0.
        -24    2    4    4    0    0 -0.18515442553E+03 -0.44055577630E+03  0.60585991508E+02  0.48828276336E+03  0.79861388047E+02 0.  0.
         24    2    4    4    0    0 -0.46791862706E+03 -0.33496812922E+03  0.71914928625E+03  0.92449567582E+03  0.79781385979E+02 0.  0.
         11    1    3    3    0    0  0.45190961971E+03  0.52683103217E+03  0.95350415179E+02  0.70061754368E+03  0.00000000000E+00 0. -1.
        -12    1    3    3    0    0  0.20116343287E+03  0.24869287335E+03 -0.68229803890E+01  0.31993972095E+03  0.00000000000E+00 0.  1.
         13    1    5    5    0    0 -0.90341202634E+02 -0.19916880765E+03 -0.11837034431E+02  0.21902023244E+03  0.00000000000E+00 0. -1.
        -14    1    5    5    0    0 -0.94813222893E+02 -0.24138696865E+03  0.72423025939E+02  0.26926253091E+03  0.00000000000E+00 0.  1.
          4    1    6    6  502    0 -0.28278758531E+03 -0.19812082423E+03  0.36815260405E+03  0.50473460280E+03  0.00000000000E+00 0. -1.
         -3    1    6    6    0  502 -0.18513104175E+03 -0.13684730499E+03  0.35099668220E+03  0.41976107301E+03  0.00000000000E+00 0.  1.
<mgrwt>
<rscale>  0 0.10337541E+04</rscale>
<asrwt>0</asrwt>
<pdfrwt beam="1">  1        1 0.25396911E+00 0.10337541E+04</pdfrwt>
<pdfrwt beam="2">  1       -2 0.12039023E+00 0.10337541E+04</pdfrwt>
<totfact> 0.23720351E+00</totfact>
</mgrwt>
</event>
<event>
12    3  0.2269558E-007  0.6364602E+03  0.7818608E-02  0.9832523E-01
          1   -1    0    0  501    0  0.00000000000E+00  0.00000000000E+00  0.19240165938E+04  0.19240165938E+04  0.00000000000E+00 0. -1.
         -2   -1    0    0    0  501 -0.00000000000E+00 -0.00000000000E+00 -0.10429710782E+04  0.10429710782E+04  0.00000000000E+00 0.  1.
        -24    2    1    2    0    0 -0.16969498683E+03  0.53284422100E+03 -0.86763660177E+03  0.10354899022E+04  0.82016537258E+02 0.  0.
    5000000    2    1    2    0    0  0.16969498683E+03 -0.53284422100E+03  0.17486821173E+04  0.19314977698E+04  0.60006260915E+03 0.  0.
        -24    2    4    4    0    0  0.27799311528E+03 -0.52546212142E+03  0.96601810287E+03  0.11370689072E+04  0.79649930134E+02 0.  0.
         24    2    4    4    0    0 -0.10829812844E+03 -0.73820995819E+01  0.78266401447E+03  0.79442886266E+03  0.82287777121E+02 0.  0.
         11    1    3    3    0    0 -0.15390431181E+03  0.46112684923E+03 -0.69763317835E+03  0.85030380442E+03  0.00000000000E+00 0. -1.
        -12    1    3    3    0    0 -0.15790675021E+02  0.71717371776E+02 -0.17000342341E+03  0.18518609776E+03  0.00000000000E+00 0.  1.
         11    1    5    5    0    0  0.18435104052E+03 -0.26407041533E+03  0.51031716064E+03  0.60344187362E+03  0.00000000000E+00 0. -1.
        -12    1    5    5    0    0  0.93642074760E+02 -0.26139170609E+03  0.45570094224E+03  0.53362703355E+03  0.00000000000E+00 0.  1.
          4    1    6    6  502    0 -0.28725806647E+02 -0.17173726553E+02  0.48511524500E+03  0.48626835162E+03  0.00000000000E+00 0. -1.
         -3    1    6    6    0  502 -0.79572321794E+02  0.97916269710E+01  0.29754876947E+03  0.30816051104E+03  0.00000000000E+00 0.  1.
<mgrwt>
<rscale>  0 0.63646018E+03</rscale>
<asrwt>0</asrwt>
<pdfrwt beam="1">  1        1 0.29600255E+00 0.63646018E+03</pdfrwt>
<pdfrwt beam="2">  1       -2 0.16045709E+00 0.63646018E+03</pdfrwt>
<totfact> 0.78889237E-01</totfact>
</mgrwt>
</event>
<event>
12    3  0.2269558E-007  0.3257915E+03  0.7818608E-02  0.1073014E+00
          1   -1    0    0  501    0  0.00000000000E+00  0.00000000000E+00  0.36306785321E+03  0.36306785321E+03  0.00000000000E+00 0. -1.
         -2   -1    0    0    0  501 -0.00000000000E+00 -0.00000000000E+00 -0.67098124527E+03  0.67098124527E+03  0.00000000000E+00 0.  1.
        -24    2    1    2    0    0  0.95282877661E+00  0.30350907543E+03 -0.91190143618E+02  0.32765746824E+03  0.83217230469E+02 0.  0.
    5000000    2    1    2    0    0 -0.95282877661E+00 -0.30350907543E+03 -0.21672324845E+03  0.70639163024E+03  0.59991791280E+03 0.  0.
        -24    2    4    4    0    0 -0.38958577571E+02 -0.19746129551E+03 -0.41272370098E+03  0.46634572273E+03  0.81417109768E+02 0.  0.
         24    2    4    4    0    0  0.38005748794E+02 -0.10604777992E+03  0.19600045254E+03  0.24004590751E+03  0.80717357173E+02 0.  0.
         11    1    3    3    0    0  0.11686747154E+02  0.26687302067E+03 -0.50496450480E+02  0.27185967103E+03  0.00000000000E+00 0. -1.
        -12    1    3    3    0    0 -0.10733918378E+02  0.36636054763E+02 -0.40693693138E+02  0.55797797210E+02  0.00000000000E+00 0.  1.
         11    1    5    5    0    0 -0.52700727579E+02 -0.18490698886E+03 -0.33340674858E+03  0.38487403292E+03  0.00000000000E+00 0. -1.
        -12    1    5    5    0    0  0.13742150008E+02 -0.12554306659E+02 -0.79316952401E+02  0.81471689812E+02  0.00000000000E+00 0.  1.
          2    1    6    6  502    0 -0.81915132159E+01 -0.83656354793E+02  0.95720594078E+02  0.12738884848E+03  0.00000000000E+00 0. -1.
         -3    1    6    6    0  502  0.46197262010E+02 -0.22391425127E+02  0.10027985846E+03  0.11265705903E+03  0.00000000000E+00 0.  1.
<mgrwt>
<rscale>  0 0.32579151E+03</rscale>
<asrwt>0</asrwt>
<pdfrwt beam="1">  1        1 0.55856594E-01 0.32579151E+03</pdfrwt>
<pdfrwt beam="2">  1       -2 0.10322788E+00 0.32579151E+03</pdfrwt>
<totfact> 0.48190729E+01</totfact>
</mgrwt>
</event>
<event>
12    3  0.2269558E-007  0.1135792E+04  0.7818608E-02  0.9170992E-01
          1   -1    0    0  501    0  0.00000000000E+00  0.00000000000E+00  0.99689752681E+03  0.99689752681E+03  0.00000000000E+00 0. -1.
         -2   -1    0    0    0  501 -0.00000000000E+00 -0.00000000000E+00 -0.13674382642E+04  0.13674382642E+04  0.00000000000E+00 0.  1.
        -24    2    1    2    0    0 -0.10132828762E+04 -0.36029552217E+03 -0.34691187869E+03  0.11326207450E+04  0.76986038167E+02 0.  0.
    5000000    2    1    2    0    0  0.10132828762E+04  0.36029552217E+03 -0.23628858650E+02  0.12317150459E+04  0.60000715081E+03 0.  0.
        -24    2    4    4    0    0  0.11271145791E+03  0.25897060991E+03  0.10749279102E+03  0.31258450392E+03  0.79904458129E+02 0.  0.
         24    2    4    4    0    0  0.90057141825E+03  0.10132491226E+03 -0.13112164967E+03  0.91913054202E+03  0.79450922221E+02 0.  0.
         11    1    5    5    0    0  0.81948628121E+02  0.22235750048E+03  0.58436848683E+02  0.24407642442E+03  0.00000000000E+00 0. -1.
        -12    1    5    5    0    0  0.30762829785E+02  0.36613109425E+02  0.49055942341E+02  0.68508079502E+02  0.00000000000E+00 0.  1.
         13    1    3    3    0    0 -0.11290579669E+03 -0.66755880383E+02 -0.41570976101E+02  0.13759437687E+03  0.00000000000E+00 0. -1.
        -14    1    3    3    0    0 -0.90037707946E+03 -0.29353964179E+03 -0.30534090259E+03  0.99502636815E+03  0.00000000000E+00 0.  1.
          2    1    6    6  502    0  0.49772909578E+03  0.23308682617E+02 -0.94660496925E+02  0.50718651121E+03  0.00000000000E+00 0. -1.
         -1    1    6    6    0  502  0.40284232247E+03  0.78016229645E+02 -0.36461152749E+02  0.41194403081E+03  0.00000000000E+00 0.  1.
<mgrwt>
<rscale>  0 0.11357919E+04</rscale>
<asrwt>0</asrwt>
<pdfrwt beam="1">  1        1 0.15336885E+00 0.11357919E+04</pdfrwt>
<pdfrwt beam="2">  1       -2 0.21037512E+00 0.11357919E+04</pdfrwt>
<totfact> 0.14919337E+00</totfact>
</mgrwt>
</event>
<event>
12    3  0.2269558E-007  0.1315569E+04  0.7818608E-02  0.9017309E-01
         -2   -1    0    0    0  501 -0.00000000000E+00  0.00000000000E+00  0.78237507295E+03  0.78237507295E+03  0.00000000000E+00 0.  1.
          1   -1    0    0  501    0  0.00000000000E+00 -0.00000000000E+00 -0.32012693642E+04  0.32012693642E+04  0.00000000000E+00 0. -1.
        -24    2    1    2    0    0 -0.38653908085E+03 -0.11983580111E+04 -0.84879396024E+02  0.12646525106E+04  0.81652169619E+02 0.  0.
    5000000    2    1    2    0    0  0.38653908085E+03  0.11983580111E+04 -0.23340148952E+04  0.27189919266E+04  0.59984763200E+03 0.  0.
        -24    2    4    4    0    0  0.70394326921E+02 -0.33730998760E+02 -0.11546022520E+03  0.16035881709E+03  0.79314217366E+02 0.  0.
         24    2    4    4    0    0  0.31614475392E+03  0.12320890099E+04 -0.22185546700E+04  0.25586331095E+04  0.81410878611E+02 0.  0.
         13    1    3    3    0    0 -0.22503329064E+03 -0.80024977847E+03 -0.33406814111E+02  0.83195895636E+03  0.00000000000E+00 0. -1.
        -14    1    3    3    0    0 -0.16150579020E+03 -0.39810823268E+03 -0.51472581914E+02  0.43269355424E+03  0.00000000000E+00 0.  1.
         13    1    5    5    0    0  0.60111648153E+01  0.14217524087E+02 -0.62043226770E+02  0.63934607855E+02  0.00000000000E+00 0. -1.
        -14    1    5    5    0    0  0.64383162106E+02 -0.47948522847E+02 -0.53416998432E+02  0.96424209239E+02  0.00000000000E+00 0.  1.
          2    1    6    6  502    0  0.59327515693E+02  0.37879475993E+03 -0.68131638749E+03  0.78179104889E+03  0.00000000000E+00 0. -1.
         -1    1    6    6    0  502  0.25681723823E+03  0.85329424997E+03 -0.15372382826E+04  0.17768420606E+04  0.00000000000E+00 0.  1.
<mgrwt>
<rscale>  0 0.13155689E+04</rscale>
<asrwt>0</asrwt>
<pdfrwt beam="1">  1        1 0.49250298E+00 0.13155689E+04</pdfrwt>
<pdfrwt beam="2">  1       -2 0.12036539E+00 0.13155689E+04</pdfrwt>
<totfact> 0.19162892E-01</totfact>
</mgrwt>
</event>
<event>
12    3  0.2269558E-007  0.7520515E+03  0.7818608E-02  0.9632137E-01
         -2   -1    0    0    0  501 -0.00000000000E+00  0.00000000000E+00  0.66017951015E+03  0.66017951015E+03  0.00000000000E+00 0.  1.
          1   -1    0    0  501    0  0.00000000000E+00 -0.00000000000E+00 -0.17039252953E+04  0.17039252953E+04  0.00000000000E+00 0. -1.
        -24    2    1    2    0    0 -0.51318926748E+03 -0.51815469073E+03  0.23851353593E+03  0.77138728002E+03  0.79385900328E+02 0.  0.
    5000000    2    1    2    0    0  0.51318926748E+03  0.51815469073E+03 -0.12822593211E+04  0.15927175254E+04  0.60059357430E+03 0.  0.
        -24    2    4    4    0    0  0.19303883519E+03  0.65522248369E+02 -0.29214633488E+02  0.22008511685E+03  0.77632512041E+02 0.  0.
         24    2    4    4    0    0  0.32015043229E+03  0.45263244236E+03 -0.12530446876E+04  0.13726324086E+04  0.81402166900E+02 0.  0.
         11    1    5    5    0    0  0.19532917685E+03  0.74352295204E+02 -0.27501897401E+02  0.21080347600E+03  0.00000000000E+00 0. -1.
        -12    1    5    5    0    0 -0.22903416599E+01 -0.88300468353E+01 -0.17127360871E+01  0.92816408537E+01  0.00000000000E+00 0.  1.
         13    1    3    3    0    0 -0.85136721637E+02 -0.11823602498E+03  0.71170794017E+02  0.16215209186E+03  0.00000000000E+00 0. -1.
        -14    1    3    3    0    0 -0.42805254585E+03 -0.39991866575E+03  0.16734274192E+03  0.60923518816E+03  0.00000000000E+00 0.  1.
          2    1    6    6  502    0  0.93966006250E+02  0.13970858335E+03 -0.29427444458E+03  0.33903620356E+03  0.00000000000E+00 0. -1.
         -1    1    6    6    0  502  0.22618442604E+03  0.31292385901E+03 -0.95877024299E+03  0.10335962050E+04  0.00000000000E+00 0.  1.
<mgrwt>
<rscale>  0 0.75205153E+03</rscale>
<asrwt>0</asrwt>
<pdfrwt beam="1">  1        1 0.26214235E+00 0.75205153E+03</pdfrwt>
<pdfrwt beam="2">  1       -2 0.10156608E+00 0.75205153E+03</pdfrwt>
<totfact> 0.34319973E+00</totfact>
</mgrwt>
</event>
<event>
12    3  0.2269558E-007  0.8309355E+03  0.7818608E-02  0.9516288E-01
          1   -1    0    0  501    0  0.00000000000E+00  0.00000000000E+00  0.20631389211E+04  0.20631389211E+04  0.00000000000E+00 0. -1.
         -2   -1    0    0    0  501 -0.00000000000E+00 -0.00000000000E+00 -0.34606493072E+03  0.34606493072E+03  0.00000000000E+00 0.  1.
        -24    2    1    2    0    0  0.41477661160E+02 -0.72880058660E+03  0.87786909406E+03  0.11453773479E+04  0.91457264693E+02 0.  0.
    5000000    2    1    2    0    0 -0.41477661160E+02  0.72880058660E+03  0.83920489630E+03  0.12638265039E+04  0.60010156033E+03 0.  0.
        -24    2    4    4    0    0 -0.22220455635E+03  0.70700463070E+03  0.64323587052E+03  0.98454388288E+03  0.79648349064E+02 0.  0.
         24    2    4    4    0    0  0.18072689519E+03  0.21795955901E+02  0.19596902578E+03  0.27928262107E+03  0.80359498665E+02 0.  0.
         13    1    3    3    0    0 -0.27361637265E+02 -0.27200417245E+03  0.30926851622E+03  0.41277347801E+03  0.00000000000E+00 0. -1.
        -14    1    3    3    0    0  0.68839298425E+02 -0.45679641415E+03  0.56860057785E+03  0.73260386985E+03  0.00000000000E+00 0.  1.
         13    1    5    5    0    0 -0.19418076796E+03  0.52511406820E+03  0.51010534904E+03  0.75740241773E+03  0.00000000000E+00 0. -1.
        -14    1    5    5    0    0 -0.28023788388E+02  0.18189056250E+03  0.13313052148E+03  0.22714146515E+03  0.00000000000E+00 0.  1.
          4    1    6    6  502    0  0.57231975837E+02 -0.34543690356E-02  0.15096989441E+02  0.59189679509E+02  0.00000000000E+00 0. -1.
         -3    1    6    6    0  502  0.12349491936E+03  0.21799410270E+02  0.18087203634E+03  0.22009294156E+03  0.00000000000E+00 0.  1.
<mgrwt>
<rscale>  0 0.83093551E+03</rscale>
<asrwt>0</asrwt>
<pdfrwt beam="1">  1        1 0.31740598E+00 0.83093551E+03</pdfrwt>
<pdfrwt beam="2">  1       -2 0.53240760E-01 0.83093551E+03</pdfrwt>
<totfact> 0.81306604E+00</totfact>
</mgrwt>
</event>
<event>
12    3  0.2269558E-007  0.7252206E+03  0.7818608E-02  0.9675048E-01
         -2   -1    0    0    0  501 -0.00000000000E+00  0.00000000000E+00  0.39732500118E+03  0.39732500118E+03  0.00000000000E+00 0.  1.
          1   -1    0    0  501    0  0.00000000000E+00 -0.00000000000E+00 -0.21376127224E+04  0.21376127224E+04  0.00000000000E+00 0. -1.
        -24    2    1    2    0    0 -0.23309929207E+03 -0.66159464211E+03 -0.13682133024E+04  0.15396211502E+04  0.79893022536E+02 0.  0.
    5000000    2    1    2    0    0  0.23309929207E+03  0.66159464211E+03 -0.37207441885E+03  0.99531657333E+03  0.60014411399E+03 0.  0.
        -24    2    4    4    0    0  0.48197067071E+02  0.47073545735E+03  0.58146800086E+02  0.48306853504E+03  0.77841705427E+02 0.  0.
         24    2    4    4    0    0  0.18490222499E+03  0.19085918476E+03 -0.43022121894E+03  0.51224803830E+03  0.81802776827E+02 0.  0.
         11    1    5    5    0    0  0.61820131371E+02  0.22925989482E+03  0.21038136985E+02  0.23837875581E+03  0.00000000000E+00 0. -1.
        -12    1    5    5    0    0 -0.13623064300E+02  0.24147556253E+03  0.37108663101E+02  0.24468977923E+03  0.00000000000E+00 0.  1.
         11    1    3    3    0    0 -0.14600005510E+03 -0.30257142721E+03 -0.61997471244E+03  0.70514830264E+03  0.00000000000E+00 0. -1.
        -12    1    3    3    0    0 -0.87099236969E+02 -0.35902321490E+03 -0.74823858994E+03  0.83447284761E+03  0.00000000000E+00 0.  1.
          4    1    6    6  502    0  0.71753092481E+01  0.69910684775E+01  0.18356864728E+01  0.10184785029E+02  0.00000000000E+00 0. -1.
         -3    1    6    6    0  502  0.17772691575E+03  0.18386811629E+03 -0.43205690541E+03  0.50206325327E+03  0.00000000000E+00 0.  1.
<mgrwt>
<rscale>  0 0.72522060E+03</rscale>
<asrwt>0</asrwt>
<pdfrwt beam="1">  1        1 0.32886351E+00 0.72522060E+03</pdfrwt>
<pdfrwt beam="2">  1       -2 0.61126921E-01 0.72522060E+03</pdfrwt>
<totfact> 0.55168316E+00</totfact>
</mgrwt>
</event>
<event>
12    3  0.2269558E-007  0.4238676E+03  0.7818608E-02  0.1035815E+00
          1   -1    0    0  501    0  0.00000000000E+00  0.00000000000E+00  0.67895339861E+03  0.67895339861E+03  0.00000000000E+00 0. -1.
         -2   -1    0    0    0  501 -0.00000000000E+00 -0.00000000000E+00 -0.45006142768E+03  0.45006142768E+03  0.00000000000E+00 0.  1.
        -24    2    1    2    0    0 -0.18704917845E+03  0.32976447096E+03  0.68046043344E+01  0.38534819841E+03  0.68665347253E+02 0.  0.
    5000000    2    1    2    0    0  0.18704917845E+03 -0.32976447096E+03  0.22208736660E+03  0.74366662788E+03  0.59998771116E+03 0.  0.
        -24    2    4    4    0    0  0.22049055063E+02  0.13088073055E+02 -0.17145257570E+03  0.19069445208E+03  0.79441361106E+02 0.  0.
         24    2    4    4    0    0  0.16500012339E+03 -0.34285254401E+03  0.39353994230E+03  0.55297217580E+03  0.78304746763E+02 0.  0.
         11    1    5    5    0    0 -0.28851074934E+02  0.15046519315E+02 -0.66658013922E+02  0.74175960313E+02  0.00000000000E+00 0. -1.
        -12    1    5    5    0    0  0.50900129996E+02 -0.19584462601E+01 -0.10479456178E+03  0.11651849177E+03  0.00000000000E+00 0.  1.
         13    1    3    3    0    0 -0.13009977672E+03  0.19844237591E+03  0.33810265864E+02  0.23968408903E+03  0.00000000000E+00 0. -1.
        -14    1    3    3    0    0 -0.56949401732E+02  0.13132209505E+03 -0.27005661530E+02  0.14566410938E+03  0.00000000000E+00 0.  1.
          2    1    6    6  502    0  0.11123842282E+02 -0.42551020520E+01  0.32578409332E+02  0.34687152019E+02  0.00000000000E+00 0. -1.
         -1    1    6    6    0  502  0.15387628111E+03 -0.33859744196E+03  0.36096153297E+03  0.51828502378E+03  0.00000000000E+00 0.  1.
<mgrwt>
<rscale>  0 0.42386756E+03</rscale>
<asrwt>0</asrwt>
<pdfrwt beam="1">  1        1 0.10445437E+00 0.42386756E+03</pdfrwt>
<pdfrwt beam="2">  1       -2 0.69240220E-01 0.42386756E+03</pdfrwt>
<totfact> 0.50054895E+01</totfact>
</mgrwt>
</event>
<event>
12    3  0.2269558E-007  0.1762060E+04  0.7818608E-02  0.8726740E-01
          1   -1    0    0  501    0  0.00000000000E+00  0.00000000000E+00  0.30679921318E+04  0.30679921318E+04  0.00000000000E+00 0. -1.
         -2   -1    0    0    0  501 -0.00000000000E+00 -0.00000000000E+00 -0.11480232532E+04  0.11480232532E+04  0.00000000000E+00 0.  1.
        -24    2    1    2    0    0 -0.66466348976E+03 -0.16018658160E+04  0.28807492237E+03  0.17602149352E+04  0.87280068365E+02 0.  0.
    5000000    2    1    2    0    0  0.66466348976E+03  0.16018658160E+04  0.16318939562E+04  0.24558004497E+04  0.60010525523E+03 0.  0.
        -24    2    4    4    0    0  0.47703695659E+03  0.14623071787E+04  0.11836166429E+04  0.19424703233E+04  0.79599350506E+02 0.  0.
         24    2    4    4    0    0  0.18762653317E+03  0.13955863728E+03  0.44827731332E+03  0.51333012643E+03  0.88740857964E+02 0.  0.
         13    1    3    3    0    0 -0.49569670233E+03 -0.12081924465E+04  0.25454371283E+03  0.13305024277E+04  0.00000000000E+00 0. -1.
        -14    1    3    3    0    0 -0.16896678743E+03 -0.39367336946E+03  0.33531209533E+02  0.42971250749E+03  0.00000000000E+00 0.  1.
         13    1    5    5    0    0  0.22404850727E+03  0.57795308835E+03  0.50131124503E+03  0.79720792165E+03  0.00000000000E+00 0. -1.
        -14    1    5    5    0    0  0.25298844932E+03  0.88435409034E+03  0.68230539790E+03  0.11452624016E+04  0.00000000000E+00 0.  1.
          2    1    6    6  502    0  0.65218014041E+02  0.10377923451E+03  0.21744366839E+03  0.24961023175E+03  0.00000000000E+00 0. -1.
         -1    1    6    6    0  502  0.12240851913E+03  0.35779402770E+02  0.23083364493E+03  0.26371989468E+03  0.00000000000E+00 0.  1.
<mgrwt>
<rscale>  0 0.17620598E+04</rscale>
<asrwt>0</asrwt>
<pdfrwt beam="1">  1        1 0.47199879E+00 0.17620598E+04</pdfrwt>
<pdfrwt beam="2">  1       -2 0.17661896E+00 0.17620598E+04</pdfrwt>
<totfact> 0.82157608E-02</totfact>
</mgrwt>
</event>
<event>
12    3  0.2269558E-007  0.3328729E+03  0.7818608E-02  0.1069873E+00
         -2   -1    0    0    0  501 -0.00000000000E+00  0.00000000000E+00  0.11126912859E+04  0.11126912859E+04  0.00000000000E+00 0.  1.
          1   -1    0    0  501    0  0.00000000000E+00 -0.00000000000E+00 -0.31510905148E+03  0.31510905148E+03  0.00000000000E+00 0. -1.
        -24    2    1    2    0    0  0.16081570121E+03  0.16290894351E+03 -0.14840599412E+03  0.28429228758E+03  0.79979697745E+02 0.  0.
    5000000    2    1    2    0    0 -0.16081570121E+03 -0.16290894351E+03  0.94598822852E+03  0.11435080498E+04  0.60026320709E+03 0.  0.
        -24    2    4    4    0    0 -0.98731497442E+02 -0.26813198562E+03  0.95308419243E+03  0.99825017760E+03  0.80568411454E+02 0.  0.
         24    2    4    4    0    0 -0.62084203772E+02  0.10522304210E+03 -0.70959639110E+01  0.14525787218E+03  0.78250621593E+02 0.  0.
         11    1    3    3    0    0  0.99416808517E+02  0.64978635031E+02 -0.11163571291E+03  0.16299833503E+03  0.00000000000E+00 0. -1.
        -12    1    3    3    0    0  0.61398892697E+02  0.97930308483E+02 -0.36770281214E+02  0.12129395255E+03  0.00000000000E+00 0.  1.
         13    1    5    5    0    0 -0.10169305009E+02 -0.12831288460E+03  0.48405328604E+03  0.50087443022E+03  0.00000000000E+00 0. -1.
        -14    1    5    5    0    0 -0.88562192434E+02 -0.13981910102E+03  0.46903090639E+03  0.49737574738E+03  0.00000000000E+00 0.  1.
          4    1    6    6  502    0 -0.14945146246E+01  0.63697111833E+02 -0.26931427532E+02  0.69172663811E+02  0.00000000000E+00 0. -1.
         -3    1    6    6    0  502 -0.60589689147E+02  0.41525930268E+02  0.19835463621E+02  0.76085208370E+02  0.00000000000E+00 0.  1.
<mgrwt>
<rscale>  0 0.33287291E+03</rscale>
<asrwt>0</asrwt>
<pdfrwt beam="1">  1        1 0.48478316E-01 0.33287291E+03</pdfrwt>
<pdfrwt beam="2">  1       -2 0.17118327E+00 0.33287291E+03</pdfrwt>
<totfact> 0.16118032E+01</totfact>
</mgrwt>
</event>
<event>
12    3  0.2269558E-007  0.1463994E+04  0.7818608E-02  0.8908756E-01
          1   -1    0    0  501    0  0.00000000000E+00  0.00000000000E+00  0.98889144328E+03  0.98889144328E+03  0.00000000000E+00 0. -1.
         -2   -1    0    0    0  501 -0.00000000000E+00 -0.00000000000E+00 -0.22834846830E+04  0.22834846830E+04  0.00000000000E+00 0.  1.
        -24    2    1    2    0    0 -0.31076231108E+03 -0.13971671679E+04 -0.43426544819E+03  0.14978745298E+04  0.79951975842E+02 0.  0.
    5000000    2    1    2    0    0  0.31076231108E+03  0.13971671679E+04 -0.86032779154E+03  0.17745015965E+04  0.60003558059E+03 0.  0.
        -24    2    4    4    0    0  0.16602547243E+03  0.12865682867E+04 -0.88695212598E+03  0.15734810691E+04  0.79600171004E+02 0.  0.
         24    2    4    4    0    0  0.14473683864E+03  0.11059888117E+03  0.26624334437E+02  0.20102052735E+03  0.80743620524E+02 0.  0.
         11    1    5    5    0    0  0.60733955946E+01  0.20791003819E+03 -0.11758301421E+03  0.23893353750E+03  0.00000000000E+00 0. -1.
        -12    1    5    5    0    0  0.15995207684E+03  0.10786582486E+04 -0.76936911177E+03  0.13345475316E+04  0.00000000000E+00 0.  1.
         11    1    3    3    0    0 -0.13432770993E+03 -0.43851277680E+03 -0.12849257169E+03  0.47628534520E+03  0.00000000000E+00 0. -1.
        -12    1    3    3    0    0 -0.17643460114E+03 -0.95865439112E+03 -0.30577287650E+03  0.10215891846E+04  0.00000000000E+00 0.  1.
          4    1    6    6  502    0  0.11959454413E+03  0.11989921424E+03  0.35016872553E+02  0.17293021114E+03  0.00000000000E+00 0. -1.
         -3    1    6    6    0  502  0.25142294515E+02 -0.93003330733E+01 -0.83925381167E+01  0.28090316210E+02  0.00000000000E+00 0.  1.
<mgrwt>
<rscale>  0 0.14639938E+04</rscale>
<asrwt>0</asrwt>
<pdfrwt beam="1">  1        1 0.15213715E+00 0.14639938E+04</pdfrwt>
<pdfrwt beam="2">  1       -2 0.35130533E+00 0.14639938E+04</pdfrwt>
<totfact> 0.19714844E-01</totfact>
</mgrwt>
</event>
<event>
12    3  0.2269558E-007  0.1081906E+04  0.7818608E-02  0.9223009E-01
         -2   -1    0    0    0  501 -0.00000000000E+00  0.00000000000E+00  0.17274730026E+04  0.17274730026E+04  0.00000000000E+00 0.  1.
          1   -1    0    0  501    0  0.00000000000E+00 -0.00000000000E+00 -0.83297889412E+03  0.83297889412E+03  0.00000000000E+00 0. -1.
        -24    2    1    2    0    0 -0.10554739132E+04  0.10102579260E+03  0.81480768664E+03  0.13395779668E+04  0.79537228422E+02 0.  0.
    5000000    2    1    2    0    0  0.10554739132E+04 -0.10102579260E+03  0.79686421881E+02  0.12208739300E+04  0.59995986105E+03 0.  0.
        -24    2    4    4    0    0  0.48935684207E+03  0.96624792283E+02  0.28840302662E+03  0.58130565540E+03  0.77029149512E+02 0.  0.
         24    2    4    4    0    0  0.56611707112E+03 -0.19765058489E+03 -0.20871660474E+03  0.63956827457E+03  0.77010809830E+02 0.  0.
         11    1    5    5    0    0  0.45603294033E+03  0.75866544489E+02  0.24660926566E+03  0.52396364868E+03  0.00000000000E+00 0. -1.
        -12    1    5    5    0    0  0.33323901740E+02  0.20758247794E+02  0.41793760960E+02  0.57342006713E+02  0.00000000000E+00 0.  1.
         11    1    3    3    0    0 -0.76514938938E+03  0.10314151758E+03  0.56761810751E+03  0.95827035678E+03  0.00000000000E+00 0. -1.
        -12    1    3    3    0    0 -0.29032452381E+03 -0.21157249777E+01  0.24718957913E+03  0.38130761001E+03  0.00000000000E+00 0.  1.
          2    1    6    6  502    0  0.29734079003E+03 -0.95219418794E+02 -0.68781795017E+02  0.31970176487E+03  0.00000000000E+00 0. -1.
         -1    1    6    6    0  502  0.26877628109E+03 -0.10243116609E+03 -0.13993480972E+03  0.31986650971E+03  0.00000000000E+00 0.  1.
<mgrwt>
<rscale>  0 0.10819057E+04</rscale>
<asrwt>0</asrwt>
<pdfrwt beam="1">  1        1 0.12815060E+00 0.10819057E+04</pdfrwt>
<pdfrwt beam="2">  1       -2 0.26576508E+00 0.10819057E+04</pdfrwt>
<totfact> 0.92721070E-01</totfact>
</mgrwt>
</event>
<event>
12    3  0.2269558E-007  0.2700054E+03  0.7818608E-02  0.1101277E+00
         -2   -1    0    0    0  501 -0.00000000000E+00  0.00000000000E+00  0.33465740932E+03  0.33465740932E+03  0.00000000000E+00 0.  1.
          1   -1    0    0  501    0  0.00000000000E+00 -0.00000000000E+00 -0.43840518564E+03  0.43840518564E+03  0.00000000000E+00 0. -1.
        -24    2    1    2    0    0  0.55356365094E+02  0.76268022763E+02 -0.11001671146E+03  0.16577827496E+03  0.80607823419E+02 0.  0.
    5000000    2    1    2    0    0 -0.55356365094E+02 -0.76268022763E+02  0.62689351434E+01  0.60728431999E+03  0.59989483020E+03 0.  0.
        -24    2    4    4    0    0  0.47551190298E+02  0.14950608531E+03 -0.20570977172E+03  0.27105049591E+03  0.80862079531E+02 0.  0.
         24    2    4    4    0    0 -0.10290755539E+03 -0.22577410808E+03  0.21197870686E+03  0.33623382408E+03  0.80958628064E+02 0.  0.
         13    1    3    3    0    0 -0.81453199079E+01 -0.11216346289E+02 -0.23646190523E+02  0.27409760793E+02  0.00000000000E+00 0. -1.
        -14    1    3    3    0    0  0.63501685002E+02  0.87484369052E+02 -0.86370520940E+02  0.13836851417E+03  0.00000000000E+00 0.  1.
         13    1    5    5    0    0  0.10781923661E+02  0.17874615384E+02  0.34893875713E+01  0.21164299624E+02  0.00000000000E+00 0. -1.
        -14    1    5    5    0    0  0.36769266637E+02  0.13163146993E+03 -0.20919915929E+03  0.24988619628E+03  0.00000000000E+00 0.  1.
          2    1    6    6  502    0  0.12076820484E+02 -0.42161712440E+02  0.43691768189E+02  0.61906624818E+02  0.00000000000E+00 0. -1.
         -1    1    6    6    0  502 -0.11498437588E+03 -0.18361239564E+03  0.16828693867E+03  0.27432719926E+03  0.00000000000E+00 0.  1.
<mgrwt>
<rscale>  0 0.27000536E+03</rscale>
<asrwt>0</asrwt>
<pdfrwt beam="1">  1        1 0.67446951E-01 0.27000536E+03</pdfrwt>
<pdfrwt beam="2">  1       -2 0.51485756E-01 0.27000536E+03</pdfrwt>
<totfact> 0.17264382E+02</totfact>
</mgrwt>
</event>
<event>
12    3  0.2269558E-007  0.7494654E+03  0.7818608E-02  0.9636189E-01
          1   -1    0    0  501    0  0.00000000000E+00  0.00000000000E+00  0.10537404958E+04  0.10537404958E+04  0.00000000000E+00 0. -1.
         -2   -1    0    0    0  501 -0.00000000000E+00 -0.00000000000E+00 -0.81141945124E+03  0.81141945124E+03  0.00000000000E+00 0.  1.
        -24    2    1    2    0    0  0.63432138688E+03  0.32889924085E+03  0.52499563619E+03  0.89027015862E+03  0.80138659962E+02 0.  0.
    5000000    2    1    2    0    0 -0.63432138688E+03 -0.32889924085E+03 -0.28267459166E+03  0.97488978841E+03  0.59997236794E+03 0.  0.
        -24    2    4    4    0    0 -0.79008220721E+02  0.33005000661E+02 -0.28372549582E+03  0.30727267383E+03  0.81146226599E+02 0.  0.
         24    2    4    4    0    0 -0.55531316616E+03 -0.36190424151E+03  0.10509041650E+01  0.66761711458E+03  0.79775401914E+02 0.  0.
         13    1    5    5    0    0 -0.50786625625E+02  0.60182409038E+02 -0.19319060842E+03  0.20862362015E+03  0.00000000000E+00 0. -1.
        -14    1    5    5    0    0 -0.28221595096E+02 -0.27177408377E+02 -0.90534887401E+02  0.98649053683E+02  0.00000000000E+00 0.  1.
         13    1    3    3    0    0  0.47044668249E+03  0.25123104690E+03  0.34771914359E+03  0.63666767062E+03  0.00000000000E+00 0. -1.
        -14    1    3    3    0    0  0.16387470439E+03  0.77668193949E+02  0.17727649260E+03  0.25360248800E+03  0.00000000000E+00 0.  1.
          2    1    6    6  502    0 -0.13527371962E+03 -0.12447457727E+03  0.18827156818E+02  0.18479004692E+03  0.00000000000E+00 0. -1.
         -3    1    6    6    0  502 -0.42003944654E+03 -0.23742966424E+03 -0.17776252653E+02  0.48282706766E+03  0.00000000000E+00 0.  1.
<mgrwt>
<rscale>  0 0.74946540E+03</rscale>
<asrwt>0</asrwt>
<pdfrwt beam="1">  1        1 0.16211392E+00 0.74946540E+03</pdfrwt>
<pdfrwt beam="2">  1       -2 0.12483376E+00 0.74946540E+03</pdfrwt>
<totfact> 0.59475979E+00</totfact>
</mgrwt>
</event>
<event>
12    3  0.2269558E-007  0.4514124E+03  0.7818608E-02  0.1027302E+00
          1   -1    0    0  501    0  0.00000000000E+00  0.00000000000E+00  0.17787910707E+03  0.17787910707E+03  0.00000000000E+00 0. -1.
         -2   -1    0    0    0  501 -0.00000000000E+00 -0.00000000000E+00 -0.19985355542E+04  0.19985355542E+04  0.00000000000E+00 0.  1.
        -24    2    1    2    0    0  0.25138986702E+03 -0.34364254867E+03 -0.47540337364E+03  0.64312149124E+03  0.79434364899E+02 0.  0.
    5000000    2    1    2    0    0 -0.25138986702E+03  0.34364254867E+03 -0.13452530735E+04  0.15332931700E+04  0.59999587252E+03 0.  0.
        -24    2    4    4    0    0 -0.23884383976E+03  0.22889079882E+03 -0.23313468499E+03  0.41259798627E+03  0.80299061964E+02 0.  0.
         24    2    4    4    0    0 -0.12546027253E+02  0.11475174985E+03 -0.11121183885E+04  0.11206951838E+04  0.76321805347E+02 0.  0.
         11    1    5    5    0    0 -0.14760536912E+03  0.19070226000E+03 -0.17382114135E+03  0.29726837394E+03  0.00000000000E+00 0. -1.
        -12    1    5    5    0    0 -0.91238470641E+02  0.38188538822E+02 -0.59313543641E+02  0.11532961234E+03  0.00000000000E+00 0.  1.
         13    1    3    3    0    0  0.11873563464E+03 -0.21640486178E+03 -0.30605470611E+03  0.39319040968E+03  0.00000000000E+00 0. -1.
        -14    1    3    3    0    0  0.13265423237E+03 -0.12723768689E+03 -0.16934866754E+03  0.24993108156E+03  0.00000000000E+00 0.  1.
          2    1    6    6  502    0 -0.30871227588E+02  0.22861736895E+02 -0.49686107468E+03  0.49834387649E+03  0.00000000000E+00 0. -1.
         -1    1    6    6    0  502  0.18325200335E+02  0.91890012954E+02 -0.61525731382E+03  0.62235130727E+03  0.00000000000E+00 0.  1.
<mgrwt>
<rscale>  0 0.45141244E+03</rscale>
<asrwt>0</asrwt>
<pdfrwt beam="1">  1        1 0.27366016E-01 0.45141244E+03</pdfrwt>
<pdfrwt beam="2">  1       -2 0.30746702E+00 0.45141244E+03</pdfrwt>
<totfact> 0.47387297E+00</totfact>
</mgrwt>
</event>
<event>
12    3  0.2269558E-007  0.1913991E+04  0.7818608E-02  0.8647923E-01
         -4   -1    0    0    0  501 -0.00000000000E+00  0.00000000000E+00  0.12589332498E+04  0.12589332498E+04  0.00000000000E+00 0.  1.
          1   -1    0    0  501    0  0.00000000000E+00 -0.00000000000E+00 -0.30118221840E+04  0.30118221840E+04  0.00000000000E+00 0. -1.
        -24    2    1    2    0    0  0.18881019951E+04  0.17600926120E+03 -0.98807477752E+03  0.21398349349E+04  0.81813071486E+02 0.  0.
    5000000    2    1    2    0    0 -0.18881019951E+04 -0.17600926120E+03 -0.76481415668E+03  0.21309204989E+04  0.59997756174E+03 0.  0.
        -24    2    4    4    0    0 -0.95313244433E+03  0.80207877287E+02 -0.12967884302E+03  0.96852284783E+03  0.79530776574E+02 0.  0.
         24    2    4    4    0    0 -0.93496955078E+03 -0.25621713849E+03 -0.63513531366E+03  0.11623976511E+04  0.89197251775E+02 0.  0.
         13    1    3    3    0    0  0.55682344600E+03  0.71125122144E+02 -0.25653897976E+03  0.61718990688E+03  0.00000000000E+00 0. -1.
        -14    1    3    3    0    0  0.13312785491E+04  0.10488413906E+03 -0.73153579776E+03  0.15226450280E+04  0.00000000000E+00 0.  1.
         13    1    5    5    0    0 -0.41193586354E+03  0.58452730084E+02 -0.24588321382E+02  0.41678827104E+03  0.00000000000E+00 0. -1.
        -14    1    5    5    0    0 -0.54119658079E+03  0.21755147203E+02 -0.10509052164E+03  0.55173457679E+03  0.00000000000E+00 0.  1.
          2    1    6    6  502    0 -0.20302427389E+03 -0.94486270963E+02 -0.14540696538E+03  0.26700130481E+03  0.00000000000E+00 0. -1.
         -3    1    6    6    0  502 -0.73194527689E+03 -0.16173086753E+03 -0.48972834829E+03  0.89539634631E+03  0.00000000000E+00 0.  1.
<mgrwt>
<rscale>  0 0.19139910E+04</rscale>
<asrwt>0</asrwt>
<pdfrwt beam="1">  1        1 0.46335726E+00 0.19139910E+04</pdfrwt>
<pdfrwt beam="2">  1       -4 0.19368204E+00 0.19139910E+04</pdfrwt>
<totfact> 0.36921457E-02</totfact>
</mgrwt>
</event>
<event>
12    3  0.2269558E-007  0.8041818E+03  0.7818608E-02  0.9553984E-01
         -4   -1    0    0    0  501 -0.00000000000E+00  0.00000000000E+00  0.36013143357E+03  0.36013143357E+03  0.00000000000E+00 0.  1.
          3   -1    0    0  501    0  0.00000000000E+00 -0.00000000000E+00 -0.19355127580E+04  0.19355127580E+04  0.00000000000E+00 0. -1.
        -24    2    1    2    0    0 -0.22149545417E+03 -0.67494617250E+03 -0.49155423123E+03  0.86758966988E+03  0.80459313040E+02 0.  0.
    5000000    2    1    2    0    0  0.22149545417E+03  0.67494617250E+03 -0.10838270932E+04  0.14280545217E+04  0.60003831289E+03 0.  0.
        -24    2    4    4    0    0  0.26338164230E+03  0.74434186065E+03 -0.82616182897E+03  0.11456647359E+04  0.81176502294E+02 0.  0.
         24    2    4    4    0    0 -0.41886188126E+02 -0.69395688148E+02 -0.25766526420E+03  0.28238978571E+03  0.82355257329E+02 0.  0.
         11    1    5    5    0    0  0.13237842790E+03  0.36638837302E+03 -0.34921239476E+03  0.52317662860E+03  0.00000000000E+00 0. -1.
        -12    1    5    5    0    0  0.13100321439E+03  0.37795348763E+03 -0.47694943421E+03  0.62248810734E+03  0.00000000000E+00 0.  1.
         13    1    3    3    0    0 -0.16434730188E+03 -0.40433325254E+03 -0.33110843103E+03  0.54783958222E+03  0.00000000000E+00 0. -1.
        -14    1    3    3    0    0 -0.57148152290E+02 -0.27061291996E+03 -0.16044580020E+03  0.31975008767E+03  0.00000000000E+00 0.  1.
          2    1    6    6  502    0 -0.41554883069E+02 -0.55833144604E+01 -0.50597459367E+02  0.65712134356E+02  0.00000000000E+00 0. -1.
         -1    1    6    6    0  502 -0.33130505699E+00 -0.63812373688E+02 -0.20706780483E+03  0.21667765136E+03  0.00000000000E+00 0.  1.
<mgrwt>
<rscale>  0 0.80418184E+03</rscale>
<asrwt>0</asrwt>
<pdfrwt beam="1">  1        3 0.29777120E+00 0.80418184E+03</pdfrwt>
<pdfrwt beam="2">  1       -4 0.55404835E-01 0.80418184E+03</pdfrwt>
<totfact> 0.28377709E-01</totfact>
</mgrwt>
</event>
<event>
12    3  0.2269558E-007  0.7209580E+03  0.7818608E-02  0.9682048E-01
          1   -1    0    0  501    0  0.00000000000E+00  0.00000000000E+00  0.30467307328E+04  0.30467307328E+04  0.00000000000E+00 0. -1.
         -2   -1    0    0    0  501 -0.00000000000E+00 -0.00000000000E+00 -0.23863601573E+03  0.23863601573E+03  0.00000000000E+00 0.  1.
        -24    2    1    2    0    0  0.60512301517E+03 -0.30442905282E+03  0.63683306930E+03  0.93309474061E+03  0.79110840740E+02 0.  0.
    5000000    2    1    2    0    0 -0.60512301517E+03  0.30442905282E+03  0.21712616478E+04  0.23522720080E+04  0.59996295255E+03 0.  0.
        -24    2    4    4    0    0 -0.59589123051E+03  0.17553634587E+03  0.10639504252E+04  0.12346143365E+04  0.79891709955E+02 0.  0.
         24    2    4    4    0    0 -0.92317846621E+01  0.12889270695E+03  0.11073112226E+04  0.11176576714E+04  0.79510823458E+02 0.  0.
         11    1    3    3    0    0  0.17978797188E+03 -0.71504870937E+02  0.13996723027E+03  0.23880428587E+03  0.00000000000E+00 0. -1.
        -12    1    3    3    0    0  0.42533504329E+03 -0.23292418188E+03  0.49686583903E+03  0.69429045475E+03  0.00000000000E+00 0.  1.
         13    1    5    5    0    0 -0.19119953044E+03  0.22388323475E+02  0.36237524054E+03  0.41033439098E+03  0.00000000000E+00 0. -1.
        -14    1    5    5    0    0 -0.40469170007E+03  0.15314802239E+03  0.70157518466E+03  0.82427994553E+03  0.00000000000E+00 0.  1.
          2    1    6    6  502    0 -0.10707184207E+02  0.14139850912E+01  0.31253036532E+03  0.31271692054E+03  0.00000000000E+00 0. -1.
         -1    1    6    6    0  502  0.14753995451E+01  0.12747872186E+03  0.79478085730E+03  0.80494075090E+03  0.00000000000E+00 0.  1.
<mgrwt>
<rscale>  0 0.72095797E+03</rscale>
<asrwt>0</asrwt>
<pdfrwt beam="1">  1        1 0.46872778E+00 0.72095797E+03</pdfrwt>
<pdfrwt beam="2">  1       -2 0.36713235E-01 0.72095797E+03</pdfrwt>
<totfact> 0.36404737E+00</totfact>
</mgrwt>
</event>
<event>
12    3  0.2269558E-007  0.4468099E+03  0.7818608E-02  0.1028678E+00
         -2   -1    0    0    0  501 -0.00000000000E+00  0.00000000000E+00  0.20576497630E+03  0.20576497630E+03  0.00000000000E+00 0.  1.
          1   -1    0    0  501    0  0.00000000000E+00 -0.00000000000E+00 -0.10925697511E+04  0.10925697511E+04  0.00000000000E+00 0. -1.
        -24    2    1    2    0    0  0.93583979371E+02 -0.25070383809E+03 -0.18120030781E+03  0.33446544619E+03  0.86158038034E+02 0.  0.
    5000000    2    1    2    0    0 -0.93583979371E+02  0.25070383809E+03 -0.70560446697E+03  0.96386928119E+03  0.59962984564E+03 0.  0.
        -24    2    4    4    0    0  0.59967271096E+02  0.39648878590E+03 -0.33181658230E+03  0.52669191217E+03  0.80639290111E+02 0.  0.
         24    2    4    4    0    0 -0.15355125047E+03 -0.14578494781E+03 -0.37378788467E+03  0.43717736902E+03  0.81089035794E+02 0.  0.
         13    1    5    5    0    0  0.26923592274E+02  0.31876704388E+03 -0.22787464336E+03  0.39276476569E+03  0.00000000000E+00 0. -1.
        -14    1    5    5    0    0  0.33043678822E+02  0.77721742026E+02 -0.10394193894E+03  0.13392714648E+03  0.00000000000E+00 0.  1.
         13    1    3    3    0    0  0.31778071120E+02 -0.79180235472E+02 -0.12799864888E+02  0.86273936010E+02  0.00000000000E+00 0. -1.
        -14    1    3    3    0    0  0.61805908251E+02 -0.17152360262E+03 -0.16840044292E+03  0.24819151018E+03  0.00000000000E+00 0.  1.
          2    1    6    6  502    0 -0.62333173211E+02 -0.10409591986E+03 -0.15791811036E+03  0.19914696732E+03  0.00000000000E+00 0. -1.
         -3    1    6    6    0  502 -0.91218077255E+02 -0.41689027953E+02 -0.21586977432E+03  0.23803040170E+03  0.00000000000E+00 0.  1.
<mgrwt>
<rscale>  0 0.44680987E+03</rscale>
<asrwt>0</asrwt>
<pdfrwt beam="1">  1        1 0.16808766E+00 0.44680987E+03</pdfrwt>
<pdfrwt beam="2">  1       -2 0.31656149E-01 0.44680987E+03</pdfrwt>
<totfact> 0.10940883E+02</totfact>
</mgrwt>
</event>
<event>
12    3  0.2269558E-007  0.6345843E+03  0.7818608E-02  0.9836144E-01
          1   -1    0    0  501    0  0.00000000000E+00  0.00000000000E+00  0.85010387854E+03  0.85010387854E+03  0.00000000000E+00 0. -1.
         -2   -1    0    0    0  501 -0.00000000000E+00 -0.00000000000E+00 -0.73156917619E+03  0.73156917619E+03  0.00000000000E+00 0.  1.
        -24    2    1    2    0    0  0.77462614797E+02 -0.50076270222E+03  0.49317470032E+03  0.71153002413E+03  0.79309202353E+02 0.  0.
    5000000    2    1    2    0    0 -0.77462614797E+02  0.50076270222E+03 -0.37463999797E+03  0.87014303060E+03  0.60002502032E+03 0.  0.
        -24    2    4    4    0    0 -0.13475709945E+03 -0.90605583062E+02 -0.14718280780E+03  0.22875158674E+03  0.65541299889E+02 0.  0.
         24    2    4    4    0    0  0.57294484652E+02  0.59136828528E+03 -0.22745719017E+03  0.64139144386E+03  0.81529774282E+02 0.  0.
         11    1    3    3    0    0  0.16144602300E+01 -0.75668729215E+02  0.11420445464E+03  0.13700737397E+03  0.00000000000E+00 0. -1.
        -12    1    3    3    0    0  0.75848154567E+02 -0.42509397300E+03  0.37897024568E+03  0.57452265016E+03  0.00000000000E+00 0.  1.
         11    1    5    5    0    0 -0.58691768985E+02 -0.47788358208E+02 -0.11080299929E+03  0.13418552671E+03  0.00000000000E+00 0. -1.
        -12    1    5    5    0    0 -0.76065330463E+02 -0.42817224854E+02 -0.36379808511E+02  0.94566060032E+02  0.00000000000E+00 0.  1.
          2    1    6    6  502    0 -0.14034697179E+02  0.22593458446E+03 -0.10409547135E+03  0.24915713182E+03  0.00000000000E+00 0. -1.
         -1    1    6    6    0  502  0.71329181831E+02  0.36543370082E+03 -0.12336171882E+03  0.39223431204E+03  0.00000000000E+00 0.  1.
<mgrwt>
<rscale>  0 0.63458425E+03</rscale>
<asrwt>0</asrwt>
<pdfrwt beam="1">  1        1 0.13078521E+00 0.63458425E+03</pdfrwt>
<pdfrwt beam="2">  1       -2 0.11254910E+00 0.63458425E+03</pdfrwt>
<totfact> 0.11303499E+01</totfact>
</mgrwt>
</event>
<event>
12    3  0.2269558E-007  0.5942473E+03  0.7818608E-02  0.9917413E-01
          1   -1    0    0  501    0  0.00000000000E+00  0.00000000000E+00  0.38436779414E+03  0.38436779414E+03  0.00000000000E+00 0. -1.
         -4   -1    0    0    0  501 -0.00000000000E+00 -0.00000000000E+00 -0.14345826051E+04  0.14345826051E+04  0.00000000000E+00 0.  1.
        -24    2    1    2    0    0 -0.31073560640E+03  0.48403769934E+03 -0.71823993424E+03  0.92395188395E+03  0.83482748261E+02 0.  0.
    5000000    2    1    2    0    0  0.31073560640E+03 -0.48403769934E+03 -0.33197487674E+03  0.89499851530E+03  0.59997159278E+03 0.  0.
        -24    2    4    4    0    0  0.17279792035E+03 -0.10788453128E+03  0.14891648390E+03  0.26495966652E+03  0.80804160421E+02 0.  0.
         24    2    4    4    0    0  0.13793768605E+03 -0.37615316806E+03 -0.48089136064E+03  0.63003884878E+03  0.71933574626E+02 0.  0.
         11    1    5    5    0    0  0.14808872477E+03 -0.77786200123E+02  0.79138821260E+02  0.18505111825E+03  0.00000000000E+00 0. -1.
        -12    1    5    5    0    0  0.24709195578E+02 -0.30098331157E+02  0.69777662636E+02  0.79908548275E+02  0.00000000000E+00 0.  1.
         13    1    3    3    0    0 -0.81792389077E+02  0.14711828910E+03 -0.27090535942E+03  0.31894121662E+03  0.00000000000E+00 0. -1.
        -14    1    3    3    0    0 -0.22894321732E+03  0.33691941024E+03 -0.44733457482E+03  0.60501066733E+03  0.00000000000E+00 0.  1.
          4    1    6    6  502    0  0.72889381695E+02 -0.10539398917E+03 -0.13804012493E+03  0.18835028805E+03  0.00000000000E+00 0. -1.
         -3    1    6    6    0  502  0.65048304350E+02 -0.27075917889E+03 -0.34285123570E+03  0.44168856073E+03  0.00000000000E+00 0.  1.
<mgrwt>
<rscale>  0 0.59424735E+03</rscale>
<asrwt>0</asrwt>
<pdfrwt beam="1">  1        1 0.59133507E-01 0.59424735E+03</pdfrwt>
<pdfrwt beam="2">  1       -4 0.22070501E+00 0.59424735E+03</pdfrwt>
<totfact> 0.29913847E+00</totfact>
</mgrwt>
</event>
<event>
12    3  0.2269558E-007  0.7911704E+03  0.7818608E-02  0.9572886E-01
          1   -1    0    0  501    0  0.00000000000E+00  0.00000000000E+00  0.23359306167E+04  0.23359306167E+04  0.00000000000E+00 0. -1.
         -2   -1    0    0    0  501 -0.00000000000E+00 -0.00000000000E+00 -0.34326209009E+03  0.34326209009E+03  0.00000000000E+00 0.  1.
        -24    2    1    2    0    0 -0.68929782474E+03  0.26771566783E+03  0.45920529598E+03  0.87410351176E+03  0.79901660887E+02 0.  0.
    5000000    2    1    2    0    0  0.68929782474E+03 -0.26771566783E+03  0.15334632306E+04  0.18050891950E+04  0.60002862626E+03 0.  0.
        -24    2    4    4    0    0 -0.40410075786E+02 -0.70403829465E+02  0.25118804456E+02  0.11619999609E+03  0.79257878637E+02 0.  0.
         24    2    4    4    0    0  0.72970790053E+03 -0.19731183837E+03  0.15083444262E+04  0.16888891989E+04  0.76408354801E+02 0.  0.
         11    1    5    5    0    0 -0.18213105656E+02 -0.46919381893E+02  0.53311240569E+02  0.73315987246E+02  0.00000000000E+00 0. -1.
        -12    1    5    5    0    0 -0.22196970130E+02 -0.23484447572E+02 -0.28192436112E+02  0.42884008845E+02  0.00000000000E+00 0.  1.
         11    1    3    3    0    0 -0.56574965579E+03  0.25146555120E+03  0.38542039093E+03  0.72928490607E+03  0.00000000000E+00 0. -1.
        -12    1    3    3    0    0 -0.12354816895E+03  0.16250116634E+02  0.73784905045E+02  0.14481860569E+03  0.00000000000E+00 0.  1.
          2    1    6    6  502    0  0.61885049766E+03 -0.16404135521E+03  0.13332187900E+04  0.14789718884E+04  0.00000000000E+00 0. -1.
         -1    1    6    6    0  502  0.11085740287E+03 -0.33270483163E+02  0.17512563620E+03  0.20991731057E+03  0.00000000000E+00 0.  1.
<mgrwt>
<rscale>  0 0.79117042E+03</rscale>
<asrwt>0</asrwt>
<pdfrwt beam="1">  1        1 0.35937393E+00 0.79117042E+03</pdfrwt>
<pdfrwt beam="2">  1       -2 0.52809554E-01 0.79117042E+03</pdfrwt>
<totfact> 0.54497369E+00</totfact>
</mgrwt>
</event>
<event>
12    3  0.2269558E-007  0.5662133E+03  0.7818608E-02  0.9978093E-01
          1   -1    0    0  501    0  0.00000000000E+00  0.00000000000E+00  0.11753106656E+04  0.11753106656E+04  0.00000000000E+00 0. -1.
         -2   -1    0    0    0  501 -0.00000000000E+00 -0.00000000000E+00 -0.40258484584E+03  0.40258484584E+03  0.00000000000E+00 0.  1.
        -24    2    1    2    0    0 -0.43639815463E+03  0.94812791617E+02  0.68953013817E+03  0.82537185550E+03  0.79712443078E+02 0.  0.
    5000000    2    1    2    0    0  0.43639815463E+03 -0.94812791617E+02  0.83195681613E+02  0.75252365597E+03  0.59994792818E+03 0.  0.
        -24    2    4    4    0    0  0.55354634054E+03 -0.95283152590E+02  0.16374967639E+03  0.59042781495E+03  0.79363832150E+02 0.  0.
         24    2    4    4    0    0 -0.11714818590E+03  0.47036097384E+00 -0.80553994778E+02  0.16209584102E+03  0.77860111111E+02 0.  0.
         13    1    3    3    0    0 -0.26768687551E+03  0.19626532898E+02  0.38878453855E+03  0.47243505536E+03  0.00000000000E+00 0. -1.
        -14    1    3    3    0    0 -0.16871127913E+03  0.75186258718E+02  0.30074559962E+03  0.35293680014E+03  0.00000000000E+00 0.  1.
         13    1    5    5    0    0  0.43064232648E+03 -0.82341524070E+02  0.93602519136E+02  0.44832395823E+03  0.00000000000E+00 0. -1.
        -14    1    5    5    0    0  0.12290401406E+03 -0.12941628521E+02  0.70147157255E+02  0.14210385671E+03  0.00000000000E+00 0.  1.
          2    1    6    6  502    0 -0.25581340720E+02 -0.22503731204E+01  0.14986462549E+02  0.29733200836E+02  0.00000000000E+00 0. -1.
         -1    1    6    6    0  502 -0.91566845184E+02  0.27207340942E+01 -0.95540457327E+02  0.13236264019E+03  0.00000000000E+00 0.  1.
<mgrwt>
<rscale>  0 0.56621326E+03</rscale>
<asrwt>0</asrwt>
<pdfrwt beam="1">  1        1 0.18081702E+00 0.56621326E+03</pdfrwt>
<pdfrwt beam="2">  1       -2 0.61936131E-01 0.56621326E+03</pdfrwt>
<totfact> 0.24816286E+01</totfact>
</mgrwt>
</event>
<event>
12    3  0.2269558E-007  0.9162569E+03  0.7818608E-02  0.9405485E-01
         -2   -1    0    0    0  501 -0.00000000000E+00  0.00000000000E+00  0.14762051811E+04  0.14762051811E+04  0.00000000000E+00 0.  1.
          1   -1    0    0  501    0  0.00000000000E+00 -0.00000000000E+00 -0.69322605021E+03  0.69322605021E+03  0.00000000000E+00 0. -1.
        -24    2    1    2    0    0  0.69614004717E+03  0.43804297044E+03  0.80135591303E+03  0.11510990539E+04  0.79781723496E+02 0.  0.
    5000000    2    1    2    0    0 -0.69614004717E+03 -0.43804297044E+03 -0.18376782136E+02  0.10183321774E+04  0.60014174004E+03 0.  0.
        -24    2    4    4    0    0 -0.63747274447E+03 -0.83761901161E+02 -0.46363689879E+02  0.64927369690E+03  0.77583411399E+02 0.  0.
         24    2    4    4    0    0 -0.58667302705E+02 -0.35428106928E+03  0.27986907743E+02  0.36905848048E+03  0.80398796979E+02 0.  0.
         11    1    5    5    0    0 -0.45781285268E+03 -0.67996320336E+02  0.88978323969E+00  0.46283571531E+03  0.00000000000E+00 0. -1.
        -12    1    5    5    0    0 -0.17965989179E+03 -0.15765580825E+02 -0.47253473119E+02  0.18643798159E+03  0.00000000000E+00 0.  1.
         13    1    3    3    0    0  0.60092489962E+03  0.36469098797E+03  0.64608905031E+03  0.95474672695E+03  0.00000000000E+00 0. -1.
        -14    1    3    3    0    0  0.95215147550E+02  0.73351982470E+02  0.15526686272E+03  0.19635232699E+03  0.00000000000E+00 0.  1.
          2    1    6    6  502    0 -0.65313187318E+02 -0.35353554286E+03  0.22179835009E+02  0.36020152357E+03  0.00000000000E+00 0. -1.
         -1    1    6    6    0  502  0.66458846126E+01 -0.74552641528E+00  0.58070727345E+01  0.88569569076E+01  0.00000000000E+00 0.  1.
<mgrwt>
<rscale>  0 0.91625691E+03</rscale>
<asrwt>0</asrwt>
<pdfrwt beam="1">  1        1 0.10665016E+00 0.91625691E+03</pdfrwt>
<pdfrwt beam="2">  1       -2 0.22710849E+00 0.91625691E+03</pdfrwt>
<totfact> 0.21793826E+00</totfact>
</mgrwt>
</event>
<event>
12    3  0.2269558E-007  0.5313955E+03  0.7818608E-02  0.1005894E+00
         -2   -1    0    0    0  501 -0.00000000000E+00  0.00000000000E+00  0.11808847911E+03  0.11808847911E+03  0.00000000000E+00 0.  1.
          1   -1    0    0  501    0  0.00000000000E+00 -0.00000000000E+00 -0.24623765443E+04  0.24623765443E+04  0.00000000000E+00 0. -1.
        -24    2    1    2    0    0 -0.14249854128E+03  0.33538338165E+03 -0.90669007429E+03  0.98052864491E+03  0.81004232684E+02 0.  0.
    5000000    2    1    2    0    0  0.14249854128E+03 -0.33538338165E+03 -0.14375979909E+04  0.15999363785E+04  0.60026709458E+03 0.  0.
        -24    2    4    4    0    0 -0.60997775658E+01 -0.47699979330E+03 -0.10096040870E+04  0.11182915259E+04  0.60905781797E+02 0.  0.
         24    2    4    4    0    0  0.14859831885E+03  0.14161641165E+03 -0.42799390386E+03  0.48164485259E+03  0.81647497642E+02 0.  0.
         11    1    3    3    0    0 -0.77864556191E+02  0.26774587924E+03 -0.64822931198E+03  0.70565713054E+03  0.00000000000E+00 0. -1.
        -12    1    3    3    0    0 -0.64633985088E+02  0.67637502410E+02 -0.25846076231E+03  0.27487151437E+03  0.00000000000E+00 0.  1.
         11    1    5    5    0    0  0.26931103791E+02 -0.25277808018E+03 -0.52485287767E+03  0.58317457538E+03  0.00000000000E+00 0. -1.
        -12    1    5    5    0    0 -0.33030881356E+02 -0.22422171312E+03 -0.48475120934E+03  0.53511695050E+03  0.00000000000E+00 0.  1.
          4    1    6    6  502    0  0.26359692276E+02  0.61192773197E+01 -0.16997056736E+02  0.31955889433E+02  0.00000000000E+00 0. -1.
         -3    1    6    6    0  502  0.12223862657E+03  0.13549713433E+03 -0.41099684713E+03  0.44968896315E+03  0.00000000000E+00 0.  1.
<mgrwt>
<rscale>  0 0.53139549E+03</rscale>
<asrwt>0</asrwt>
<pdfrwt beam="1">  1        1 0.37882716E+00 0.53139549E+03</pdfrwt>
<pdfrwt beam="2">  1       -2 0.18167459E-01 0.53139549E+03</pdfrwt>
<totfact> 0.34436427E+01</totfact>
</mgrwt>
</event>
<event>
12    3  0.2269558E-007  0.1310438E+04  0.7818608E-02  0.9021329E-01
         -2   -1    0    0    0  501 -0.00000000000E+00  0.00000000000E+00  0.14314804339E+04  0.14314804339E+04  0.00000000000E+00 0.  1.
          1   -1    0    0  501    0  0.00000000000E+00 -0.00000000000E+00 -0.12614476786E+04  0.12614476786E+04  0.00000000000E+00 0. -1.
        -24    2    1    2    0    0  0.22852140125E+03  0.12452748804E+04  0.23657175513E+03  0.12902486344E+04  0.76444650689E+02 0.  0.
    5000000    2    1    2    0    0 -0.22852140125E+03 -0.12452748804E+04 -0.66538999758E+02  0.14026794781E+04  0.60012558783E+03 0.  0.
        -24    2    4    4    0    0 -0.18382578109E+02 -0.10956017072E+04  0.70513347259E+02  0.11010932480E+04  0.82177788007E+02 0.  0.
         24    2    4    4    0    0 -0.21013882314E+03 -0.14967317325E+03 -0.13705234702E+03  0.30158623005E+03  0.74903434852E+02 0.  0.
         11    1    5    5    0    0 -0.11705868595E+02 -0.46297487441E+03 -0.10656577239E+02  0.46324542559E+03  0.00000000000E+00 0. -1.
        -12    1    5    5    0    0 -0.66767095135E+01 -0.63262683275E+03  0.81169924498E+02  0.63784782245E+03  0.00000000000E+00 0.  1.
         13    1    3    3    0    0  0.19468656178E+03  0.95985488583E+03  0.15596126884E+03  0.99173997427E+03  0.00000000000E+00 0. -1.
        -14    1    3    3    0    0  0.33834839472E+02  0.28541999458E+03  0.80610486291E+02  0.29850866013E+03  0.00000000000E+00 0.  1.
          2    1    6    6  502    0 -0.46923162561E+01 -0.57870766642E+01 -0.26418240518E+02  0.27448707078E+02  0.00000000000E+00 0. -1.
         -1    1    6    6    0  502 -0.20544650688E+03 -0.14388609659E+03 -0.11063410650E+03  0.27413752298E+03  0.00000000000E+00 0.  1.
<mgrwt>
<rscale>  0 0.13104376E+04</rscale>
<asrwt>0</asrwt>
<pdfrwt beam="1">  1        1 0.19406887E+00 0.13104376E+04</pdfrwt>
<pdfrwt beam="2">  1       -2 0.22022776E+00 0.13104376E+04</pdfrwt>
<totfact> 0.80188322E-01</totfact>
</mgrwt>
</event>
<event>
12    3  0.2269558E-007  0.3731721E+04  0.7818608E-02  0.8060968E-01
          1   -1    0    0  501    0  0.00000000000E+00  0.00000000000E+00  0.33718885816E+04  0.33718885816E+04  0.00000000000E+00 0. -1.
         -2   -1    0    0    0  501 -0.00000000000E+00 -0.00000000000E+00 -0.42612908290E+04  0.42612908290E+04  0.00000000000E+00 0.  1.
        -24    2    1    2    0    0 -0.28972071813E+04  0.23350137143E+04  0.14482507045E+03  0.37247290091E+04  0.80829409388E+02 0.  0.
    5000000    2    1    2    0    0  0.28972071813E+04 -0.23350137143E+04 -0.10342273178E+04  0.39084504015E+04  0.60021654333E+03 0.  0.
        -24    2    4    4    0    0  0.63541878745E+03 -0.33406226315E+03 -0.22185471111E+02  0.72253189333E+03  0.78775063551E+02 0.  0.
         24    2    4    4    0    0  0.22617883938E+04 -0.20009514511E+04 -0.10120418467E+04  0.31859185082E+04  0.79715700906E+02 0.  0.
         11    1    5    5    0    0  0.27410030297E+03 -0.18813166626E+03 -0.54298658074E+01  0.33249659153E+03  0.00000000000E+00 0. -1.
        -12    1    5    5    0    0  0.36131848448E+03 -0.14593059689E+03 -0.16755605304E+02  0.39003530179E+03  0.00000000000E+00 0.  1.
         11    1    3    3    0    0 -0.13635616400E+04  0.11115389228E+04  0.29291168326E+02  0.17594536355E+04  0.00000000000E+00 0. -1.
        -12    1    3    3    0    0 -0.15336455413E+04  0.12234747915E+04  0.11553390213E+03  0.19652753737E+04  0.00000000000E+00 0.  1.
          4    1    6    6  502    0  0.21386257334E+04 -0.19061043600E+04 -0.94488129043E+03  0.30165799363E+04  0.00000000000E+00 0. -1.
         -3    1    6    6    0  502  0.12316266040E+03 -0.94847091102E+02 -0.67160556295E+02  0.16933857189E+03  0.00000000000E+00 0.  1.
<mgrwt>
<rscale>  0 0.37317214E+04</rscale>
<asrwt>0</asrwt>
<pdfrwt beam="1">  1        1 0.51875209E+00 0.37317214E+04</pdfrwt>
<pdfrwt beam="2">  1       -2 0.65558320E+00 0.37317214E+04</pdfrwt>
<totfact> 0.64592182E-05</totfact>
</mgrwt>
</event>
<event>
12    3  0.2269558E-007  0.7241379E+03  0.7818608E-02  0.9676821E-01
         -2   -1    0    0    0  501 -0.00000000000E+00  0.00000000000E+00  0.57559760971E+03  0.57559760971E+03  0.00000000000E+00 0.  1.
          1   -1    0    0  501    0  0.00000000000E+00 -0.00000000000E+00 -0.15037757649E+04  0.15037757649E+04  0.00000000000E+00 0. -1.
        -24    2    1    2    0    0 -0.13108569764E+03 -0.61568502681E+03 -0.10245650984E+04  0.12044694062E+04  0.69002878801E+02 0.  0.
    5000000    2    1    2    0    0  0.13108569764E+03  0.61568502681E+03  0.96386943179E+02  0.87490396842E+03  0.59992916147E+03 0.  0.
        -24    2    4    4    0    0  0.24386438146E+03  0.68600662159E+02 -0.90403822184E+02  0.28061195266E+03  0.79964551614E+02 0.  0.
         24    2    4    4    0    0 -0.11277868382E+03  0.54708436465E+03  0.18679076536E+03  0.59429201576E+03  0.79195179176E+02 0.  0.
         11    1    3    3    0    0 -0.27406227285E+02 -0.21856863096E+03 -0.30759907750E+03  0.37833918673E+03  0.00000000000E+00 0. -1.
        -12    1    3    3    0    0 -0.10367947035E+03 -0.39711639585E+03 -0.71696602089E+03  0.82613021948E+03  0.00000000000E+00 0.  1.
         13    1    5    5    0    0  0.77160373145E+02  0.18843301239E+02 -0.69216538433E+02  0.10535521999E+03  0.00000000000E+00 0. -1.
        -14    1    5    5    0    0  0.16670400832E+03  0.49757360920E+02 -0.21187283751E+02  0.17525673267E+03  0.00000000000E+00 0.  1.
          4    1    6    6  502    0 -0.10483255378E+03  0.31575191107E+03  0.10889015924E+03  0.35006599442E+03  0.00000000000E+00 0. -1.
         -3    1    6    6    0  502 -0.79461300449E+01  0.23133245359E+03  0.77900606127E+02  0.24422602134E+03  0.00000000000E+00 0.  1.
<mgrwt>
<rscale>  0 0.72413785E+03</rscale>
<asrwt>0</asrwt>
<pdfrwt beam="1">  1        1 0.23135011E+00 0.72413785E+03</pdfrwt>
<pdfrwt beam="2">  1       -2 0.88553479E-01 0.72413785E+03</pdfrwt>
<totfact> 0.64891524E+00</totfact>
</mgrwt>
</event>
<event>
12    3  0.2269558E-007  0.1116284E+04  0.7818608E-02  0.9189464E-01
          1   -1    0    0  501    0  0.00000000000E+00  0.00000000000E+00  0.19491967515E+04  0.19491967515E+04  0.00000000000E+00 0. -1.
         -2   -1    0    0    0  501 -0.00000000000E+00 -0.00000000000E+00 -0.81650660580E+03  0.81650660580E+03  0.00000000000E+00 0.  1.
        -24    2    1    2    0    0 -0.74959247979E+03  0.80401868833E+03  0.38589281187E+02  0.11027603072E+04  0.79096306386E+02 0.  0.
    5000000    2    1    2    0    0  0.74959247979E+03 -0.80401868833E+03  0.10941008645E+04  0.16629430500E+04  0.59998995743E+03 0.  0.
        -24    2    4    4    0    0 -0.75288222960E+01 -0.45845383895E+02  0.33466394026E+03  0.34720858258E+03  0.79971022968E+02 0.  0.
         24    2    4    4    0    0  0.75712130208E+03 -0.75817330443E+03  0.75943692420E+03  0.13157344674E+04  0.79707724356E+02 0.  0.
         11    1    3    3    0    0 -0.53837275946E+03  0.62740903493E+03  0.32188543888E+02  0.82735930986E+03  0.00000000000E+00 0. -1.
        -12    1    3    3    0    0 -0.21121972033E+03  0.17660965339E+03  0.64007372991E+01  0.27540099739E+03  0.00000000000E+00 0.  1.
         13    1    5    5    0    0 -0.20238838764E+02 -0.25503198201E+02  0.31360190943E+03  0.31528745822E+03  0.00000000000E+00 0. -1.
        -14    1    5    5    0    0  0.12710016468E+02 -0.20342185694E+02  0.21062030830E+02  0.31921124355E+02  0.00000000000E+00 0.  1.
          2    1    6    6  502    0  0.46545864447E+03 -0.41508782476E+03  0.46021025327E+03  0.77507620864E+03  0.00000000000E+00 0. -1.
         -1    1    6    6    0  502  0.29166265761E+03 -0.34308547967E+03  0.29922667093E+03  0.54065825879E+03  0.00000000000E+00 0.  1.
<mgrwt>
<rscale>  0 0.11162837E+04</rscale>
<asrwt>0</asrwt>
<pdfrwt beam="1">  1        1 0.29987642E+00 0.11162837E+04</pdfrwt>
<pdfrwt beam="2">  1       -2 0.12561640E+00 0.11162837E+04</pdfrwt>
<totfact> 0.13258199E+00</totfact>
</mgrwt>
</event>
<event>
12    3  0.2269558E-007  0.6785764E+03  0.7818608E-02  0.9754587E-01
         -2   -1    0    0    0  501 -0.00000000000E+00  0.00000000000E+00  0.79957416432E+03  0.79957416432E+03  0.00000000000E+00 0.  1.
          1   -1    0    0  501    0  0.00000000000E+00 -0.00000000000E+00 -0.14910606378E+04  0.14910606378E+04  0.00000000000E+00 0. -1.
        -24    2    1    2    0    0  0.47425208428E+03 -0.34483799659E+03  0.53801434721E+03  0.80217575878E+03  0.10098627055E+03 0.  0.
    5000000    2    1    2    0    0 -0.47425208428E+03  0.34483799659E+03 -0.12295008207E+04  0.14884590433E+04  0.60000814350E+03 0.  0.
        -24    2    4    4    0    0 -0.37438928928E+03  0.47511110167E+03 -0.11201834343E+04  0.12755600040E+04  0.79652359777E+02 0.  0.
         24    2    4    4    0    0 -0.99862794993E+02 -0.13027310508E+03 -0.10931738636E+03  0.21289903932E+03  0.80200063926E+02 0.  0.
         11    1    5    5    0    0 -0.25627703094E+03  0.30065896647E+03 -0.65542911811E+03  0.76528495318E+03  0.00000000000E+00 0. -1.
        -12    1    5    5    0    0 -0.11811225834E+03  0.17445213521E+03 -0.46475431623E+03  0.51027505083E+03  0.00000000000E+00 0.  1.
         11    1    3    3    0    0  0.35330000149E+03 -0.27238977943E+03  0.34920804623E+03  0.56653626763E+03  0.00000000000E+00 0. -1.
        -12    1    3    3    0    0  0.12095208278E+03 -0.72448217169E+02  0.18880630098E+03  0.23563949115E+03  0.00000000000E+00 0.  1.
          4    1    6    6  502    0 -0.78708958787E+01 -0.72677960624E+01  0.12785066413E+02  0.16680221363E+02  0.00000000000E+00 0. -1.
         -3    1    6    6    0  502 -0.91991899114E+02 -0.12300530902E+03 -0.12210245277E+03  0.19621881796E+03  0.00000000000E+00 0.  1.
<mgrwt>
<rscale>  0 0.67857640E+03</rscale>
<asrwt>0</asrwt>
<pdfrwt beam="1">  1        1 0.22939394E+00 0.67857640E+03</pdfrwt>
<pdfrwt beam="2">  1       -2 0.12301141E+00 0.67857640E+03</pdfrwt>
<totfact> 0.30396672E+00</totfact>
</mgrwt>
</event>
<event>
12    3  0.2269558E-007  0.5492718E+03  0.7818608E-02  0.1001663E+00
          1   -1    0    0  501    0  0.00000000000E+00  0.00000000000E+00  0.70505202964E+03  0.70505202964E+03  0.00000000000E+00 0. -1.
         -2   -1    0    0    0  501 -0.00000000000E+00 -0.00000000000E+00 -0.64675126598E+03  0.64675126598E+03  0.00000000000E+00 0.  1.
        -24    2    1    2    0    0  0.13446834961E+03  0.38333506365E+03  0.37750749908E+03  0.56000806938E+03  0.77907752134E+02 0.  0.
    5000000    2    1    2    0    0 -0.13446834961E+03 -0.38333506365E+03 -0.31920673542E+03  0.79179522623E+03  0.60001602668E+03 0.  0.
        -24    2    4    4    0    0 -0.26972770885E+03  0.97616099354E+01 -0.39722048050E+02  0.28423184860E+03  0.79759492881E+02 0.  0.
         24    2    4    4    0    0  0.13525935925E+03 -0.39309667359E+03 -0.27948468737E+03  0.50756337763E+03  0.81785101277E+02 0.  0.
         11    1    3    3    0    0  0.39612840517E+02  0.11358236084E+03  0.66191980332E+02  0.13730079420E+03  0.00000000000E+00 0. -1.
        -12    1    3    3    0    0  0.94855509090E+02  0.26975270281E+03  0.31131551875E+03  0.42270727518E+03  0.00000000000E+00 0.  1.
         13    1    5    5    0    0 -0.19179512139E+03 -0.26978421428E+01  0.80399902291E+01  0.19198252104E+03  0.00000000000E+00 0. -1.
        -14    1    5    5    0    0 -0.77932587465E+02  0.12459452078E+02 -0.47762038279E+02  0.92249327562E+02  0.00000000000E+00 0.  1.
          2    1    6    6  502    0  0.83743658957E+02 -0.32818757226E+03 -0.20352159528E+03  0.39514696348E+03  0.00000000000E+00 0. -1.
         -1    1    6    6    0  502  0.51515700289E+02 -0.64909101326E+02 -0.75963092087E+02  0.11241641415E+03  0.00000000000E+00 0.  1.
<mgrwt>
<rscale>  0 0.54927184E+03</rscale>
<asrwt>0</asrwt>
<pdfrwt beam="1">  1        1 0.10846954E+00 0.54927184E+03</pdfrwt>
<pdfrwt beam="2">  1       -2 0.99500194E-01 0.54927184E+03</pdfrwt>
<totfact> 0.20569349E+01</totfact>
</mgrwt>
</event>
<event>
12    3  0.2269558E-007  0.1508220E+04  0.7818608E-02  0.8879005E-01
         -2   -1    0    0    0  501 -0.00000000000E+00  0.00000000000E+00  0.17620217834E+04  0.17620217834E+04  0.00000000000E+00 0.  1.
          1   -1    0    0  501    0  0.00000000000E+00 -0.00000000000E+00 -0.14281947704E+04  0.14281947704E+04  0.00000000000E+00 0. -1.
        -24    2    1    2    0    0 -0.91160890249E+03  0.11690975230E+04 -0.21371982954E+03  0.14997855865E+04  0.76556060564E+02 0.  0.
    5000000    2    1    2    0    0  0.91160890249E+03 -0.11690975230E+04  0.54754684258E+03  0.16904309673E+04  0.59994124801E+03 0.  0.
        -24    2    4    4    0    0  0.20532854798E+03 -0.55117404956E+03  0.44738061079E+03  0.74331230011E+03  0.80069464033E+02 0.  0.
         24    2    4    4    0    0  0.70628035451E+03 -0.61792347345E+03  0.10016623179E+03  0.94711866721E+03  0.79618701199E+02 0.  0.
         11    1    3    3    0    0 -0.63610013644E+03  0.85203518552E+03 -0.12654159311E+03  0.10707941519E+04  0.00000000000E+00 0. -1.
        -12    1    3    3    0    0 -0.27550876604E+03  0.31706233749E+03 -0.87178236429E+02  0.42899143456E+03  0.00000000000E+00 0.  1.
         13    1    5    5    0    0  0.76496184737E+02 -0.10987352771E+03  0.10140240105E+03  0.16794732897E+03  0.00000000000E+00 0. -1.
        -14    1    5    5    0    0  0.12883236324E+03 -0.44130052185E+03  0.34597820974E+03  0.57536497114E+03  0.00000000000E+00 0.  1.
          4    1    6    6  502    0  0.48828893233E+03 -0.45425686063E+03  0.10103194876E+03  0.67452415193E+03  0.00000000000E+00 0. -1.
         -3    1    6    6    0  502  0.21799142217E+03 -0.16366661282E+03 -0.86571696611E+00  0.27259451528E+03  0.00000000000E+00 0.  1.
<mgrwt>
<rscale>  0 0.15082202E+04</rscale>
<asrwt>0</asrwt>
<pdfrwt beam="1">  1        1 0.21972227E+00 0.15082202E+04</pdfrwt>
<pdfrwt beam="2">  1       -2 0.27108027E+00 0.15082202E+04</pdfrwt>
<totfact> 0.28947958E-01</totfact>
</mgrwt>
</event>
<event>
12    3  0.2269558E-007  0.4179361E+03  0.7818608E-02  0.1037740E+00
          1   -1    0    0  501    0  0.00000000000E+00  0.00000000000E+00  0.12702588795E+04  0.12702588795E+04  0.00000000000E+00 0. -1.
         -2   -1    0    0    0  501 -0.00000000000E+00 -0.00000000000E+00 -0.22150629230E+03  0.22150629230E+03  0.00000000000E+00 0.  1.
        -24    2    1    2    0    0 -0.21149398661E+03  0.10138176568E+03  0.73418068444E+03  0.77490064396E+03  0.80260586920E+02 0.  0.
    5000000    2    1    2    0    0  0.21149398661E+03 -0.10138176568E+03  0.31457190278E+03  0.71686452787E+03  0.59994274769E+03 0.  0.
        -24    2    4    4    0    0 -0.88488597154E+01 -0.29101609572E+03  0.30620509096E+02  0.30361497851E+03  0.80472164799E+02 0.  0.
         24    2    4    4    0    0  0.22034284632E+03  0.18963433004E+03  0.28395139368E+03  0.41324954936E+03  0.75064285892E+02 0.  0.
         11    1    5    5    0    0 -0.52086315617E+00 -0.26166347784E+03  0.51446760551E+02  0.26667361344E+03  0.00000000000E+00 0. -1.
        -12    1    5    5    0    0 -0.83279965592E+01 -0.29352617884E+02 -0.20826251455E+02  0.36941365067E+02  0.00000000000E+00 0.  1.
         13    1    3    3    0    0 -0.15077316225E+03  0.29476670710E+02  0.46822814270E+03  0.49278698663E+03  0.00000000000E+00 0. -1.
        -14    1    3    3    0    0 -0.60720824356E+02  0.71905094974E+02  0.26595254174E+03  0.28211365733E+03  0.00000000000E+00 0.  1.
          2    1    6    6  502    0  0.34682796454E+00  0.15181792363E+02  0.19525687270E+01  0.15310768551E+02  0.00000000000E+00 0. -1.
         -1    1    6    6    0  502  0.21999601836E+03  0.17445253768E+03  0.28199882496E+03  0.39793878081E+03  0.00000000000E+00 0.  1.
<mgrwt>
<rscale>  0 0.41793614E+03</rscale>
<asrwt>0</asrwt>
<pdfrwt beam="1">  1        1 0.19542444E+00 0.41793614E+03</pdfrwt>
<pdfrwt beam="2">  1       -2 0.34077892E-01 0.41793614E+03</pdfrwt>
<totfact> 0.71410279E+01</totfact>
</mgrwt>
</event>
<event>
12    3  0.2269558E-007  0.1198263E+04  0.7818608E-02  0.9114379E-01
          1   -1    0    0  501    0  0.00000000000E+00  0.00000000000E+00  0.16560131312E+04  0.16560131312E+04  0.00000000000E+00 0. -1.
         -2   -1    0    0    0  501 -0.00000000000E+00 -0.00000000000E+00 -0.92130502072E+03  0.92130502072E+03  0.00000000000E+00 0.  1.
        -24    2    1    2    0    0  0.11518752808E+04 -0.98853192350E+02  0.23635564228E+03  0.11827511705E+04  0.80297729540E+02 0.  0.
    5000000    2    1    2    0    0 -0.11518752808E+04  0.98853192350E+02  0.49835246816E+03  0.13945669814E+04  0.59989437972E+03 0.  0.
        -24    2    4    4    0    0 -0.71867956052E+03 -0.14742831602E+03  0.86281597762E+02  0.74283678198E+03  0.78272290552E+02 0.  0.
         24    2    4    4    0    0 -0.43319572033E+03  0.24628150837E+03  0.41207087040E+03  0.65173019942E+03  0.81466171719E+02 0.  0.
         13    1    5    5    0    0 -0.21722138350E+03 -0.86816145280E+01  0.19447932415E+02  0.21826296515E+03  0.00000000000E+00 0. -1.
        -14    1    5    5    0    0 -0.50145817702E+03 -0.13874670149E+03  0.66833665348E+02  0.52457381683E+03  0.00000000000E+00 0.  1.
         13    1    3    3    0    0  0.13836554258E+03 -0.77856642535E+01  0.23761725824E+01  0.13860478396E+03  0.00000000000E+00 0. -1.
        -14    1    3    3    0    0  0.10135097383E+04 -0.91067528096E+02  0.23397946970E+03  0.10441463865E+04  0.00000000000E+00 0.  1.
          2    1    6    6  502    0 -0.23101821178E+03  0.16889264163E+03  0.20376582829E+03  0.35130421482E+03  0.00000000000E+00 0. -1.
         -1    1    6    6    0  502 -0.20217750855E+03  0.77388866737E+02  0.20830504210E+03  0.30042598460E+03  0.00000000000E+00 0.  1.
<mgrwt>
<rscale>  0 0.11982626E+04</rscale>
<asrwt>0</asrwt>
<pdfrwt beam="1">  1        1 0.25477125E+00 0.11982626E+04</pdfrwt>
<pdfrwt beam="2">  1       -2 0.14173923E+00 0.11982626E+04</pdfrwt>
<totfact> 0.15222465E+00</totfact>
</mgrwt>
</event>
<event>
12    3  0.2269558E-007  0.1306632E+04  0.7818608E-02  0.9024322E-01
         -2   -1    0    0    0  501 -0.00000000000E+00  0.00000000000E+00  0.11412432445E+04  0.11412432445E+04  0.00000000000E+00 0.  1.
          1   -1    0    0  501    0  0.00000000000E+00 -0.00000000000E+00 -0.16608044390E+04  0.16608044390E+04  0.00000000000E+00 0. -1.
        -24    2    1    2    0    0 -0.12633241639E+04 -0.26644880180E+03 -0.21532454815E+02  0.12938433997E+04  0.81143017901E+02 0.  0.
    5000000    2    1    2    0    0  0.12633241639E+04  0.26644880180E+03 -0.49802873967E+03  0.15082042838E+04  0.59972045909E+03 0.  0.
        -24    2    4    4    0    0  0.66755673600E+03  0.14264831971E+02 -0.52977041386E+03  0.85561372244E+03  0.74717263101E+02 0.  0.
         24    2    4    4    0    0  0.59576742787E+03  0.25218396983E+03  0.31741674188E+02  0.65259056134E+03  0.79569618059E+02 0.  0.
         13    1    5    5    0    0  0.35782197253E+02 -0.12342857616E+02 -0.45234792654E+02  0.58982185792E+02  0.00000000000E+00 0. -1.
        -14    1    5    5    0    0  0.63177453875E+03  0.26607689588E+02 -0.48453562121E+03  0.79663153665E+03  0.00000000000E+00 0.  1.
         13    1    3    3    0    0 -0.58541436754E+03 -0.13876084153E+03 -0.47649175364E+02  0.60351884542E+03  0.00000000000E+00 0. -1.
        -14    1    3    3    0    0 -0.67790979634E+03 -0.12768796027E+03  0.26116720549E+02  0.69032455429E+03  0.00000000000E+00 0.  1.
          4    1    6    6  502    0  0.14411543470E+02  0.22098617712E+02 -0.19325688369E+01  0.26453285472E+02  0.00000000000E+00 0. -1.
         -3    1    6    6    0  502  0.58135588440E+03  0.23008535212E+03  0.33674243025E+02  0.62613727587E+03  0.00000000000E+00 0.  1.
<mgrwt>
<rscale>  0 0.13066324E+04</rscale>
<asrwt>0</asrwt>
<pdfrwt beam="1">  1        1 0.25550837E+00 0.13066324E+04</pdfrwt>
<pdfrwt beam="2">  1       -2 0.17557588E+00 0.13066324E+04</pdfrwt>
<totfact> 0.83362740E-01</totfact>
</mgrwt>
</event>
<event>
12    3  0.2269558E-007  0.7492163E+03  0.7818608E-02  0.9636581E-01
         -2   -1    0    0    0  501 -0.00000000000E+00  0.00000000000E+00  0.90866994619E+03  0.90866994619E+03  0.00000000000E+00 0.  1.
          1   -1    0    0  501    0  0.00000000000E+00 -0.00000000000E+00 -0.11299595730E+04  0.11299595730E+04  0.00000000000E+00 0. -1.
        -24    2    1    2    0    0  0.63080496759E+03  0.49469445946E+02  0.57423023878E+03  0.85820131095E+03  0.80043674135E+02 0.  0.
    5000000    2    1    2    0    0 -0.63080496759E+03 -0.49469445946E+02 -0.79551986562E+03  0.11804282083E+04  0.60016394848E+03 0.  0.
        -24    2    4    4    0    0  0.93878549594E+02 -0.69721044487E+02 -0.12454197104E+03  0.18945662856E+03  0.81907908263E+02 0.  0.
         24    2    4    4    0    0 -0.72468351718E+03  0.20251598540E+02 -0.67097789457E+03  0.99097157970E+03  0.78974739308E+02 0.  0.
         11    1    3    3    0    0  0.24936423213E+03  0.26771492349E+01  0.17925644413E+03  0.30711978145E+03  0.00000000000E+00 0. -1.
        -12    1    3    3    0    0  0.38144073546E+03  0.46792296711E+02  0.39497379465E+03  0.55108152950E+03  0.00000000000E+00 0.  1.
         11    1    5    5    0    0  0.13359128799E+02 -0.56550551274E+02 -0.71531041538E+02  0.92158130814E+02  0.00000000000E+00 0. -1.
        -12    1    5    5    0    0  0.80519420795E+02 -0.13170493213E+02 -0.53010929505E+02  0.97298497746E+02  0.00000000000E+00 0.  1.
          2    1    6    6  502    0 -0.66439736112E+03  0.21739261532E+02 -0.64166126619E+03  0.92391862709E+03  0.00000000000E+00 0. -1.
         -1    1    6    6    0  502 -0.60286156062E+02 -0.14876629916E+01 -0.29316628381E+02  0.67052952608E+02  0.00000000000E+00 0.  1.
<mgrwt>
<rscale>  0 0.74921632E+03</rscale>
<asrwt>0</asrwt>
<pdfrwt beam="1">  1        1 0.17383993E+00 0.74921632E+03</pdfrwt>
<pdfrwt beam="2">  1       -2 0.13979538E+00 0.74921632E+03</pdfrwt>
<totfact> 0.39112443E+00</totfact>
</mgrwt>
</event>
<event>
12    3  0.2269558E-007  0.8590510E+03  0.7818608E-02  0.9478269E-01
          1   -1    0    0  501    0  0.00000000000E+00  0.00000000000E+00  0.15570103869E+04  0.15570103869E+04  0.00000000000E+00 0. -1.
         -2   -1    0    0    0  501 -0.00000000000E+00 -0.00000000000E+00 -0.51919589351E+03  0.51919589351E+03  0.00000000000E+00 0.  1.
        -24    2    1    2    0    0  0.10066428095E+02  0.76439335651E+03  0.72135849552E+03  0.10540952691E+04  0.79750993336E+02 0.  0.
    5000000    2    1    2    0    0 -0.10066428095E+02 -0.76439335651E+03  0.31645599785E+03  0.10221110112E+04  0.60013997058E+03 0.  0.
        -24    2    4    4    0    0 -0.28283610578E+03 -0.36050817815E+03  0.71024560429E+02  0.47024977812E+03  0.78281264606E+02 0.  0.
         24    2    4    4    0    0  0.27276967769E+03 -0.40388517835E+03  0.24543143742E+03  0.55186123313E+03  0.82387473501E+02 0.  0.
         11    1    3    3    0    0 -0.17106979249E+02  0.55294627580E+03  0.48395085220E+03  0.73501745558E+03  0.00000000000E+00 0. -1.
        -12    1    3    3    0    0  0.27173407344E+02  0.21144708070E+03  0.23740764332E+03  0.31907781356E+03  0.00000000000E+00 0.  1.
         11    1    5    5    0    0 -0.13171655371E+02 -0.20641363055E+02  0.23265019945E+02  0.33776019999E+02  0.00000000000E+00 0. -1.
        -12    1    5    5    0    0 -0.26966445041E+03 -0.33986681510E+03  0.47759540484E+02  0.43647375812E+03  0.00000000000E+00 0.  1.
          4    1    6    6  502    0  0.36586999917E+02 -0.17603101931E+02  0.29840647443E+02  0.50387915221E+02  0.00000000000E+00 0. -1.
         -3    1    6    6    0  502  0.23618267777E+03 -0.38628207642E+03  0.21559078998E+03  0.50147331790E+03  0.00000000000E+00 0.  1.
<mgrwt>
<rscale>  0 0.85905102E+03</rscale>
<asrwt>0</asrwt>
<pdfrwt beam="1">  1        1 0.23954006E+00 0.85905102E+03</pdfrwt>
<pdfrwt beam="2">  1       -2 0.79876292E-01 0.85905102E+03</pdfrwt>
<totfact> 0.74092978E+00</totfact>
</mgrwt>
</event>
<event>
12    3  0.2269558E-007  0.6583056E+03  0.7818608E-02  0.9791318E-01
          1   -1    0    0  501    0  0.00000000000E+00  0.00000000000E+00  0.37368137118E+03  0.37368137118E+03  0.00000000000E+00 0. -1.
         -2   -1    0    0    0  501 -0.00000000000E+00 -0.00000000000E+00 -0.14192443728E+04  0.14192443728E+04  0.00000000000E+00 0.  1.
        -24    2    1    2    0    0  0.74057012623E+02  0.59142111372E+03 -0.53645240176E+03  0.80576426765E+03  0.78813074978E+02 0.  0.
    5000000    2    1    2    0    0 -0.74057012623E+02 -0.59142111372E+03 -0.50911059984E+03  0.98716147632E+03  0.60002566826E+03 0.  0.
        -24    2    4    4    0    0 -0.23092664626E+02 -0.61886188519E+03 -0.59097146610E+03  0.86000089161E+03  0.82649595986E+02 0.  0.
         24    2    4    4    0    0 -0.50964347997E+02  0.27440771468E+02  0.81860866261E+02  0.12716058471E+03  0.78219257044E+02 0.  0.
         11    1    5    5    0    0  0.16341436151E+02 -0.48111820440E+03 -0.46216709654E+03  0.66733814088E+03  0.00000000000E+00 0. -1.
        -12    1    5    5    0    0 -0.39434100776E+02 -0.13774368079E+03 -0.12880436956E+03  0.19266275073E+03  0.00000000000E+00 0.  1.
         11    1    3    3    0    0 -0.87159379003E+01  0.18110082686E+03 -0.13798162123E+03  0.22784293901E+03  0.00000000000E+00 0. -1.
        -12    1    3    3    0    0  0.82772950524E+02  0.41032028687E+03 -0.39847078053E+03  0.57792132863E+03  0.00000000000E+00 0.  1.
          2    1    6    6  502    0 -0.47861696977E+02  0.50032203624E+02  0.77535407175E+02  0.10395048246E+03  0.00000000000E+00 0. -1.
         -1    1    6    6    0  502 -0.31026510200E+01 -0.22591432156E+02  0.43254590862E+01  0.23210102251E+02  0.00000000000E+00 0.  1.
<mgrwt>
<rscale>  0 0.65830556E+03</rscale>
<asrwt>0</asrwt>
<pdfrwt beam="1">  1        1 0.57489442E-01 0.65830556E+03</pdfrwt>
<pdfrwt beam="2">  1       -2 0.21834529E+00 0.65830556E+03</pdfrwt>
<totfact> 0.60367775E+00</totfact>
</mgrwt>
</event>
<event>
12    3  0.2269558E-007  0.5213940E+03  0.7818608E-02  0.1008341E+00
          1   -1    0    0  501    0  0.00000000000E+00  0.00000000000E+00  0.13283175720E+04  0.13283175720E+04  0.00000000000E+00 0. -1.
         -2   -1    0    0    0  501 -0.00000000000E+00 -0.00000000000E+00 -0.44164792538E+03  0.44164792538E+03  0.00000000000E+00 0.  1.
        -24    2    1    2    0    0 -0.13815887542E+03 -0.40785969293E+03  0.93237078070E+03  0.10300541657E+04  0.79113257544E+02 0.  0.
    5000000    2    1    2    0    0  0.13815887542E+03  0.40785969293E+03 -0.45701134110E+02  0.73991133168E+03  0.59995231570E+03 0.  0.
        -24    2    4    4    0    0  0.26465904910E+03  0.17683539371E+03  0.18470527351E+03  0.37646199913E+03  0.79324838427E+02 0.  0.
         24    2    4    4    0    0 -0.12650017368E+03  0.23102429922E+03 -0.23040640762E+03  0.36344933255E+03  0.98151840961E+02 0.  0.
         13    1    5    5    0    0  0.85185025763E+02  0.21683525689E+02  0.72892895733E+02  0.11419298643E+03  0.00000000000E+00 0. -1.
        -14    1    5    5    0    0  0.17947402333E+03  0.15515186802E+03  0.11181237778E+03  0.26226901271E+03  0.00000000000E+00 0.  1.
         13    1    3    3    0    0 -0.40975907785E+01 -0.10829893847E+03  0.26663737656E+03  0.28782102234E+03  0.00000000000E+00 0. -1.
        -14    1    3    3    0    0 -0.13406128464E+03 -0.29956075446E+03  0.66573340414E+03  0.74223314332E+03  0.00000000000E+00 0.  1.
          4    1    6    6  502    0 -0.99145671756E+02  0.79437493845E+02 -0.10521986418E+03  0.16495878114E+03  0.00000000000E+00 0. -1.
         -3    1    6    6    0  502 -0.27354501921E+02  0.15158680538E+03 -0.12518654344E+03  0.19849055141E+03  0.00000000000E+00 0.  1.
<mgrwt>
<rscale>  0 0.52139404E+03</rscale>
<asrwt>0</asrwt>
<pdfrwt beam="1">  1        1 0.20435655E+00 0.52139404E+03</pdfrwt>
<pdfrwt beam="2">  1       -2 0.67945835E-01 0.52139404E+03</pdfrwt>
<totfact> 0.15976932E+01</totfact>
</mgrwt>
</event>
<event>
12    3  0.2269558E-007  0.6053317E+03  0.7818608E-02  0.9894406E-01
          1   -1    0    0  501    0  0.00000000000E+00  0.00000000000E+00  0.12421230166E+04  0.12421230166E+04  0.00000000000E+00 0. -1.
         -2   -1    0    0    0  501 -0.00000000000E+00 -0.00000000000E+00 -0.74265378836E+03  0.74265378836E+03  0.00000000000E+00 0.  1.
        -24    2    1    2    0    0  0.55126887837E+02  0.48751983788E+03 -0.51017325852E+03  0.71196054391E+03  0.76788646914E+02 0.  0.
    5000000    2    1    2    0    0 -0.55126887837E+02 -0.48751983788E+03  0.10096424867E+04  0.12728162610E+04  0.59997393043E+03 0.  0.
        -24    2    4    4    0    0 -0.26451720400E+03 -0.13499212191E+03  0.66007464723E+03  0.72808896622E+03  0.78884590583E+02 0.  0.
         24    2    4    4    0    0  0.20939031616E+03 -0.35252771597E+03  0.34956783949E+03  0.54472729478E+03  0.80062826865E+02 0.  0.
         13    1    3    3    0    0 -0.99863006053E+01  0.25263423555E+03 -0.26327582059E+03  0.36501772680E+03  0.00000000000E+00 0. -1.
        -14    1    3    3    0    0  0.65113188442E+02  0.23488560232E+03 -0.24689743793E+03  0.34694281711E+03  0.00000000000E+00 0.  1.
         13    1    5    5    0    0 -0.17510427379E+03 -0.11382451973E+03  0.52206773768E+03  0.56229196216E+03  0.00000000000E+00 0. -1.
        -14    1    5    5    0    0 -0.89412930209E+02 -0.21167602179E+02  0.13800690955E+03  0.16579700406E+03  0.00000000000E+00 0.  1.
          4    1    6    6  502    0  0.14875180724E+03 -0.29184978704E+03  0.30707013766E+03  0.44899383937E+03  0.00000000000E+00 0. -1.
         -3    1    6    6    0  502  0.60638508924E+02 -0.60677928930E+02  0.42497701827E+02  0.95733455408E+02  0.00000000000E+00 0.  1.
<mgrwt>
<rscale>  0 0.60533166E+03</rscale>
<asrwt>0</asrwt>
<pdfrwt beam="1">  1        1 0.19109585E+00 0.60533166E+03</pdfrwt>
<pdfrwt beam="2">  1       -2 0.11425443E+00 0.60533166E+03</pdfrwt>
<totfact> 0.55028709E+00</totfact>
</mgrwt>
</event>
<event>
12    3  0.2269558E-007  0.4609000E+03  0.7818608E-02  0.1024521E+00
          1   -1    0    0  501    0  0.00000000000E+00  0.00000000000E+00  0.14584209804E+04  0.14584209804E+04  0.00000000000E+00 0. -1.
         -2   -1    0    0    0  501 -0.00000000000E+00 -0.00000000000E+00 -0.24292209726E+03  0.24292209726E+03  0.00000000000E+00 0.  1.
        -24    2    1    2    0    0  0.14375197728E+03  0.41439234544E+03  0.48480419765E+03  0.65892575475E+03  0.82233772163E+02 0.  0.
    5000000    2    1    2    0    0 -0.14375197728E+03 -0.41439234544E+03  0.73069468550E+03  0.10424173229E+04  0.60027785631E+03 0.  0.
        -24    2    4    4    0    0  0.21310058780E+02 -0.16695545025E+03 -0.58347939699E+02  0.19520132754E+03  0.79817512083E+02 0.  0.
         24    2    4    4    0    0 -0.16506203606E+03 -0.24743689519E+03  0.78904262520E+03  0.84721599537E+03  0.81952337300E+02 0.  0.
         11    1    3    3    0    0  0.14790405396E+03  0.33661093640E+03  0.38557136611E+03  0.53277369496E+03  0.00000000000E+00 0. -1.
        -12    1    3    3    0    0 -0.41520766832E+01  0.77781409044E+02  0.99232831531E+02  0.12615205978E+03  0.00000000000E+00 0.  1.
         13    1    5    5    0    0 -0.18659606815E+02 -0.71786569238E+02 -0.54257620142E+02  0.91898758386E+02  0.00000000000E+00 0. -1.
        -14    1    5    5    0    0  0.39969665595E+02 -0.95168881011E+02 -0.40903195568E+01  0.10330256916E+03  0.00000000000E+00 0.  1.
          2    1    6    6  502    0 -0.69932019475E+02 -0.13088692906E+03  0.49726708356E+03  0.51893778812E+03  0.00000000000E+00 0. -1.
         -1    1    6    6    0  502 -0.95130016580E+02 -0.11654996613E+03  0.29177554164E+03  0.32827820726E+03  0.00000000000E+00 0.  1.
<mgrwt>
<rscale>  0 0.46089997E+03</rscale>
<asrwt>0</asrwt>
<pdfrwt beam="1">  1        1 0.22437245E+00 0.46089997E+03</pdfrwt>
<pdfrwt beam="2">  1       -2 0.37372631E-01 0.46089997E+03</pdfrwt>
<totfact> 0.44186024E+01</totfact>
</mgrwt>
</event>
<event>
12    3  0.2269558E-007  0.4793894E+03  0.7818608E-02  0.1019303E+00
          1   -1    0    0  501    0  0.00000000000E+00  0.00000000000E+00  0.15562296736E+04  0.15562296736E+04  0.00000000000E+00 0. -1.
         -2   -1    0    0    0  501 -0.00000000000E+00 -0.00000000000E+00 -0.26361957149E+03  0.26361957149E+03  0.00000000000E+00 0.  1.
        -24    2    1    2    0    0  0.52248429315E+02  0.43324637147E+03  0.17307963624E+03  0.47681999873E+03  0.83477146277E+02 0.  0.
    5000000    2    1    2    0    0 -0.52248429315E+02 -0.43324637147E+03  0.11195304659E+04  0.13430292463E+04  0.59995564487E+03 0.  0.
        -24    2    4    4    0    0 -0.18905375415E+02  0.12581125237E+02  0.75793979168E+03  0.76258647887E+03  0.80930291072E+02 0.  0.
         24    2    4    4    0    0 -0.33343053900E+02 -0.44582749670E+03  0.36159067418E+03  0.58044276748E+03  0.79322598321E+02 0.  0.
         13    1    3    3    0    0  0.61471115485E+01  0.19895036985E+03  0.11926941514E+03  0.23204359510E+03  0.00000000000E+00 0. -1.
        -14    1    3    3    0    0  0.46101317767E+02  0.23429600162E+03  0.53810221104E+02  0.24477640362E+03  0.00000000000E+00 0.  1.
         13    1    5    5    0    0  0.26927469508E+02  0.39199375316E+01  0.12486244645E+03  0.12779313385E+03  0.00000000000E+00 0. -1.
        -14    1    5    5    0    0 -0.45832844923E+02  0.86611877051E+01  0.63307734523E+03  0.63479334502E+03  0.00000000000E+00 0.  1.
          4    1    6    6  502    0 -0.13263190628E+02 -0.15246183379E+03  0.77372203496E+02  0.17148463739E+03  0.00000000000E+00 0. -1.
         -3    1    6    6    0  502 -0.20079863272E+02 -0.29336566292E+03  0.28421847068E+03  0.40895813009E+03  0.00000000000E+00 0.  1.
<mgrwt>
<rscale>  0 0.47938943E+03</rscale>
<asrwt>0</asrwt>
<pdfrwt beam="1">  1        1 0.23941994E+00 0.47938943E+03</pdfrwt>
<pdfrwt beam="2">  1       -2 0.40556858E-01 0.47938943E+03</pdfrwt>
<totfact> 0.32317268E+01</totfact>
</mgrwt>
</event>
<event>
12    3  0.2269558E-007  0.1417346E+04  0.7818608E-02  0.8941357E-01
          1   -1    0    0  501    0  0.00000000000E+00  0.00000000000E+00  0.31055783607E+04  0.31055783607E+04  0.00000000000E+00 0. -1.
         -2   -1    0    0    0  501 -0.00000000000E+00 -0.00000000000E+00 -0.84235546094E+03  0.84235546094E+03  0.00000000000E+00 0.  1.
        -24    2    1    2    0    0 -0.45391296847E+03 -0.12797512070E+04  0.15441795961E+03  0.13689597241E+04  0.80035524828E+02 0.  0.
    5000000    2    1    2    0    0  0.45391296847E+03  0.12797512070E+04  0.21088049401E+04  0.25789740975E+04  0.60020745214E+03 0.  0.
        -24    2    4    4    0    0  0.55269047460E+03  0.73812771215E+03  0.14069097967E+04  0.16835039615E+04  0.67015909878E+02 0.  0.
         24    2    4    4    0    0 -0.98777506131E+02  0.54162349481E+03  0.70189514343E+03  0.89547013604E+03  0.78083073208E+02 0.  0.
         11    1    5    5    0    0  0.40504071442E+02  0.88086996639E+02  0.15060940747E+03  0.17911753794E+03  0.00000000000E+00 0. -1.
        -12    1    5    5    0    0  0.51218640316E+03  0.65004071551E+03  0.12563003892E+04  0.15043864235E+04  0.00000000000E+00 0.  1.
         11    1    3    3    0    0 -0.27344601397E+03 -0.83585751286E+03  0.68207994967E+02  0.88209003789E+03  0.00000000000E+00 0. -1.
        -12    1    3    3    0    0 -0.18046695450E+03 -0.44389369410E+03  0.86209964640E+02  0.48686968619E+03  0.00000000000E+00 0.  1.
          4    1    6    6  502    0 -0.42167761359E+02  0.14904606046E+03  0.25099722663E+03  0.29494483554E+03  0.00000000000E+00 0. -1.
         -3    1    6    6    0  502 -0.56609744772E+02  0.39257743435E+03  0.45089791680E+03  0.60052530050E+03  0.00000000000E+00 0.  1.
<mgrwt>
<rscale>  0 0.14173461E+04</rscale>
<asrwt>0</asrwt>
<pdfrwt beam="1">  1        1 0.47778128E+00 0.14173461E+04</pdfrwt>
<pdfrwt beam="2">  1       -2 0.12959315E+00 0.14173461E+04</pdfrwt>
<totfact> 0.18472083E-01</totfact>
</mgrwt>
</event>
<event>
12    3  0.2269558E-007  0.6000682E+03  0.7818608E-02  0.9905265E-01
          1   -1    0    0  501    0  0.00000000000E+00  0.00000000000E+00  0.37876355873E+03  0.37876355873E+03  0.00000000000E+00 0. -1.
         -2   -1    0    0    0  501 -0.00000000000E+00 -0.00000000000E+00 -0.14341920493E+04  0.14341920493E+04  0.00000000000E+00 0.  1.
        -24    2    1    2    0    0 -0.41085265951E+03 -0.41177879000E+03 -0.67533752816E+03  0.89499134253E+03  0.81037315741E+02 0.  0.
    5000000    2    1    2    0    0  0.41085265951E+03  0.41177879000E+03 -0.38009096238E+03  0.91796426546E+03  0.59985629384E+03 0.  0.
        -24    2    4    4    0    0  0.17166198835E+03  0.26520162558E+03 -0.50478654931E+03  0.60135232469E+03  0.83758089753E+02 0.  0.
         24    2    4    4    0    0  0.23919067116E+03  0.14657716443E+03  0.12469558693E+03  0.31661194077E+03  0.77440876395E+02 0.  0.
         13    1    3    3    0    0 -0.22516936042E+03 -0.19336775517E+03 -0.29244436936E+03  0.41667257983E+03  0.00000000000E+00 0. -1.
        -14    1    3    3    0    0 -0.18568329910E+03 -0.21841103483E+03 -0.38289315880E+03  0.47831876270E+03  0.00000000000E+00 0.  1.
         13    1    5    5    0    0  0.81890960951E+01  0.73101687396E+02 -0.13476535178E+03  0.15353376839E+03  0.00000000000E+00 0. -1.
        -14    1    5    5    0    0  0.16347289226E+03  0.19209993818E+03 -0.37002119752E+03  0.44781855630E+03  0.00000000000E+00 0.  1.
          2    1    6    6  502    0  0.14025018669E+03  0.12862888354E+03  0.76515951652E+02  0.20511020307E+03  0.00000000000E+00 0. -1.
         -1    1    6    6    0  502  0.98940484469E+02  0.17948280886E+02  0.48179635279E+02  0.11150173770E+03  0.00000000000E+00 0.  1.
<mgrwt>
<rscale>  0 0.60006819E+03</rscale>
<asrwt>0</asrwt>
<pdfrwt beam="1">  1        1 0.58271317E-01 0.60006819E+03</pdfrwt>
<pdfrwt beam="2">  1       -2 0.22064493E+00 0.60006819E+03</pdfrwt>
<totfact> 0.57845684E+00</totfact>
</mgrwt>
</event>
<event>
12    3  0.2269558E-007  0.8937798E+03  0.7818608E-02  0.9433391E-01
          1   -1    0    0  501    0  0.00000000000E+00  0.00000000000E+00  0.40957071763E+04  0.40957071763E+04  0.00000000000E+00 0. -1.
         -2   -1    0    0    0  501 -0.00000000000E+00 -0.00000000000E+00 -0.21587562458E+03  0.21587562458E+03  0.00000000000E+00 0.  1.
        -24    2    1    2    0    0  0.64125230012E+03  0.51249561848E+03  0.13119243308E+04  0.15496384787E+04  0.79860461570E+02 0.  0.
    5000000    2    1    2    0    0 -0.64125230012E+03 -0.51249561848E+03  0.25679072208E+04  0.27619443222E+04  0.60027716318E+03 0.  0.
        -24    2    4    4    0    0 -0.22729080056E+02 -0.30264581135E+03  0.12490209335E+04  0.12880401949E+04  0.82964771068E+02 0.  0.
         24    2    4    4    0    0 -0.61852322006E+03 -0.20984980713E+03  0.13188862873E+04  0.14739041272E+04  0.79526235160E+02 0.  0.
         11    1    5    5    0    0 -0.45907586682E+02 -0.15293611706E+03  0.73582569043E+03  0.75295179733E+03  0.00000000000E+00 0. -1.
        -12    1    5    5    0    0  0.23178506626E+02 -0.14970969429E+03  0.51319524307E+03  0.53508839760E+03  0.00000000000E+00 0.  1.
         11    1    3    3    0    0  0.27940656778E+03  0.21857293349E+03  0.64175695696E+03  0.73327631161E+03  0.00000000000E+00 0. -1.
        -12    1    3    3    0    0  0.36184573234E+03  0.29392268499E+03  0.67016737389E+03  0.81636216705E+03  0.00000000000E+00 0.  1.
          4    1    6    6  502    0 -0.27115453029E+03 -0.63269460594E+02  0.62457796635E+03  0.68383144122E+03  0.00000000000E+00 0. -1.
         -3    1    6    6    0  502 -0.34736868977E+03 -0.14658034653E+03  0.69430832098E+03  0.79007268603E+03  0.00000000000E+00 0.  1.
<mgrwt>
<rscale>  0 0.89377975E+03</rscale>
<asrwt>0</asrwt>
<pdfrwt beam="1">  1        1 0.63010874E+00 0.89377975E+03</pdfrwt>
<pdfrwt beam="2">  1       -2 0.33211638E-01 0.89377975E+03</pdfrwt>
<totfact> 0.63033203E-01</totfact>
</mgrwt>
</event>
<event>
12    3  0.2269558E-007  0.2953187E+03  0.7818608E-02  0.1087604E+00
          1   -1    0    0  501    0  0.00000000000E+00  0.00000000000E+00  0.58566325651E+03  0.58566325651E+03  0.00000000000E+00 0. -1.
         -2   -1    0    0    0  501 -0.00000000000E+00 -0.00000000000E+00 -0.21610407209E+03  0.21610407209E+03  0.00000000000E+00 0.  1.
        -24    2    1    2    0    0  0.54681229390E+02  0.50947308514E+01  0.10808740767E+03  0.14481775165E+03  0.79204168866E+02 0.  0.
    5000000    2    1    2    0    0 -0.54681229390E+02 -0.50947308514E+01  0.26147177675E+03  0.65694957695E+03  0.60016602993E+03 0.  0.
        -24    2    4    4    0    0 -0.19321231471E+03  0.18344864327E+03 -0.25013192202E+02  0.27864643587E+03  0.77677365831E+02 0.  0.
         24    2    4    4    0    0  0.13853108532E+03 -0.18854337412E+03  0.28648496895E+03  0.37830314108E+03  0.79373569846E+02 0.  0.
         11    1    5    5    0    0 -0.64185704080E+02  0.51490285875E+02  0.27508293560E+02  0.86762666870E+02  0.00000000000E+00 0. -1.
        -12    1    5    5    0    0 -0.12902661063E+03  0.13195835740E+03 -0.52521485761E+02  0.19188376900E+03  0.00000000000E+00 0.  1.
         13    1    3    3    0    0  0.37055203331E+02  0.35848724432E+02  0.31484441486E+02  0.60411002251E+02  0.00000000000E+00 0. -1.
        -14    1    3    3    0    0  0.17626026058E+02 -0.30753993580E+02  0.76602966181E+02  0.84406749395E+02  0.00000000000E+00 0.  1.
          4    1    6    6  502    0  0.90300084885E+02 -0.14985799174E+03  0.15812531455E+03  0.23582862023E+03  0.00000000000E+00 0. -1.
         -3    1    6    6    0  502  0.48231000438E+02 -0.38685382387E+02  0.12835965441E+03  0.14247452085E+03  0.00000000000E+00 0.  1.
<mgrwt>
<rscale>  0 0.29531867E+03</rscale>
<asrwt>0</asrwt>
<pdfrwt beam="1">  1        1 0.90102039E-01 0.29531867E+03</pdfrwt>
<pdfrwt beam="2">  1       -2 0.33246781E-01 0.29531867E+03</pdfrwt>
<totfact> 0.27193444E+02</totfact>
</mgrwt>
</event>
<event>
12    3  0.2269558E-007  0.2717605E+03  0.7818608E-02  0.1100276E+00
         -2   -1    0    0    0  501 -0.00000000000E+00  0.00000000000E+00  0.19185612175E+03  0.19185612175E+03  0.00000000000E+00 0.  1.
          1   -1    0    0  501    0  0.00000000000E+00 -0.00000000000E+00 -0.91402713723E+03  0.91402713723E+03  0.00000000000E+00 0. -1.
        -24    2    1    2    0    0  0.69442480218E+02  0.17715740732E+03 -0.15544056571E+03  0.25892754413E+03  0.81698828713E+02 0.  0.
    5000000    2    1    2    0    0 -0.69442480218E+02 -0.17715740732E+03 -0.56673044977E+03  0.84695571485E+03  0.59995297748E+03 0.  0.
        -24    2    4    4    0    0 -0.57452035985E+01  0.56440242192E+02  0.95689910983E+02  0.13707064429E+03  0.80083045384E+02 0.  0.
         24    2    4    4    0    0 -0.63697276619E+02 -0.23359764952E+03 -0.66242036075E+03  0.70988507056E+03  0.80689987988E+02 0.  0.
         11    1    3    3    0    0  0.80201218913E+01  0.12800567574E+03 -0.91460967020E+02  0.15752740671E+03  0.00000000000E+00 0. -1.
        -12    1    3    3    0    0  0.61422358326E+02  0.49151731580E+02 -0.63979598693E+02  0.10140013742E+03  0.00000000000E+00 0.  1.
         13    1    5    5    0    0  0.29517456176E+02  0.29938999545E+02  0.79776391871E+02  0.90177029297E+02  0.00000000000E+00 0. -1.
        -14    1    5    5    0    0 -0.35262659775E+02  0.26501242647E+02  0.15913519112E+02  0.46893614989E+02  0.00000000000E+00 0.  1.
          2    1    6    6  502    0  0.13214613719E+02 -0.40020640730E+02 -0.17149529755E+03  0.17659817321E+03  0.00000000000E+00 0. -1.
         -1    1    6    6    0  502 -0.76911890339E+02 -0.19357700879E+03 -0.49092506320E+03  0.53328689735E+03  0.00000000000E+00 0.  1.
<mgrwt>
<rscale>  0 0.27176045E+03</rscale>
<asrwt>0</asrwt>
<pdfrwt beam="1">  1        1 0.14061956E+00 0.27176045E+03</pdfrwt>
<pdfrwt beam="2">  1       -2 0.29516326E-01 0.27176045E+03</pdfrwt>
<totfact> 0.17401114E+02</totfact>
</mgrwt>
</event>
<event>
12    3  0.2269558E-007  0.4660167E+03  0.7818608E-02  0.1023051E+00
         -2   -1    0    0    0  501 -0.00000000000E+00  0.00000000000E+00  0.32884443187E+03  0.32884443187E+03  0.00000000000E+00 0.  1.
          1   -1    0    0  501    0  0.00000000000E+00 -0.00000000000E+00 -0.80569942520E+03  0.80569942520E+03  0.00000000000E+00 0. -1.
        -24    2    1    2    0    0 -0.10423302204E+03  0.31411800495E+03 -0.11271726161E+03  0.35852958855E+03  0.79395471451E+02 0.  0.
    5000000    2    1    2    0    0  0.10423302204E+03 -0.31411800495E+03 -0.36413773172E+03  0.77601426851E+03  0.60005600851E+03 0.  0.
        -24    2    4    4    0    0  0.30306449892E+03 -0.18812823161E+03 -0.40384616269E+02  0.36760222388E+03  0.79121145959E+02 0.  0.
         24    2    4    4    0    0 -0.19883147688E+03 -0.12598977334E+03 -0.32375311545E+03  0.40841204463E+03  0.81098330737E+02 0.  0.
         11    1    5    5    0    0  0.30499444144E+03 -0.17490475738E+03 -0.35502337156E+02  0.35337472944E+03  0.00000000000E+00 0. -1.
        -12    1    5    5    0    0 -0.19299425173E+01 -0.13223474230E+02 -0.48822791128E+01  0.14227494445E+02  0.00000000000E+00 0.  1.
         13    1    3    3    0    0 -0.84317169779E+02  0.23492495466E+03 -0.11922621925E+03  0.27661166064E+03  0.00000000000E+00 0. -1.
        -14    1    3    3    0    0 -0.19915852256E+02  0.79193050286E+02  0.65089576380E+01  0.81917927917E+02  0.00000000000E+00 0.  1.
          4    1    6    6  502    0 -0.13145674630E+03 -0.91243020283E+02 -0.27534720797E+03  0.31846860102E+03  0.00000000000E+00 0. -1.
         -3    1    6    6    0  502 -0.67374730583E+02 -0.34746753058E+02 -0.48405907475E+02  0.89943443606E+02  0.00000000000E+00 0.  1.
<mgrwt>
<rscale>  0 0.46601671E+03</rscale>
<asrwt>0</asrwt>
<pdfrwt beam="1">  1        1 0.12395376E+00 0.46601671E+03</pdfrwt>
<pdfrwt beam="2">  1       -2 0.50591452E-01 0.46601671E+03</pdfrwt>
<totfact> 0.73961363E+01</totfact>
</mgrwt>
</event>
<event>
12    3  0.2269558E-007  0.6703118E+03  0.7818608E-02  0.9769395E-01
         -4   -1    0    0    0  501 -0.00000000000E+00  0.00000000000E+00  0.13779674549E+03  0.13779674549E+03  0.00000000000E+00 0.  1.
          3   -1    0    0  501    0  0.00000000000E+00 -0.00000000000E+00 -0.38863153894E+04  0.38863153894E+04  0.00000000000E+00 0. -1.
        -24    2    1    2    0    0 -0.31304381950E+03  0.50825511978E+03 -0.12801037429E+04  0.14146371817E+04  0.78822989013E+02 0.  0.
    5000000    2    1    2    0    0  0.31304381950E+03 -0.50825511978E+03 -0.24684149010E+04  0.26094749531E+04  0.59997308937E+03 0.  0.
        -24    2    4    4    0    0  0.54879268848E+02 -0.47094437875E+03 -0.92986161690E+03  0.10469149975E+04  0.81166762469E+02 0.  0.
         24    2    4    4    0    0  0.25816455065E+03 -0.37310741026E+02 -0.15385532841E+04  0.15625599557E+04  0.80039868048E+02 0.  0.
         11    1    5    5    0    0  0.66576091337E+02 -0.35516127861E+03 -0.75282559237E+03  0.83505585579E+03  0.00000000000E+00 0. -1.
        -12    1    5    5    0    0 -0.11696822489E+02 -0.11578310014E+03 -0.17703602453E+03  0.21185914169E+03  0.00000000000E+00 0.  1.
         11    1    3    3    0    0 -0.30703100044E+02  0.10771333999E+03 -0.23096917608E+03  0.25669359997E+03  0.00000000000E+00 0. -1.
        -12    1    3    3    0    0 -0.28234071946E+03  0.40054177979E+03 -0.10491345668E+04  0.11579435818E+04  0.00000000000E+00 0.  1.
          2    1    6    6  502    0  0.15556199832E+03 -0.21932313663E+02 -0.11378212680E+04  0.11486156013E+04  0.00000000000E+00 0. -1.
         -1    1    6    6    0  502  0.10260255233E+03 -0.15378427363E+02 -0.40073201611E+03  0.41394435437E+03  0.00000000000E+00 0.  1.
<mgrwt>
<rscale>  0 0.67031184E+03</rscale>
<asrwt>0</asrwt>
<pdfrwt beam="1">  1        3 0.59789470E+00 0.67031184E+03</pdfrwt>
<pdfrwt beam="2">  1       -4 0.21199498E-01 0.67031184E+03</pdfrwt>
<totfact> 0.58930662E-02</totfact>
</mgrwt>
</event>
<event>
12    3  0.2269558E-007  0.5706001E+03  0.7818608E-02  0.9968352E-01
         -2   -1    0    0    0  501 -0.00000000000E+00  0.00000000000E+00  0.22216792199E+04  0.22216792199E+04  0.00000000000E+00 0.  1.
          1   -1    0    0  501    0  0.00000000000E+00 -0.00000000000E+00 -0.19103174289E+03  0.19103174289E+03  0.00000000000E+00 0. -1.
        -24    2    1    2    0    0 -0.43109699507E+03 -0.16476381715E+03  0.12039751195E+04  0.12918600512E+04  0.79715550112E+02 0.  0.
    5000000    2    1    2    0    0  0.43109699507E+03  0.16476381715E+03  0.82667235751E+03  0.11208509116E+04  0.59993986761E+03 0.  0.
        -24    2    4    4    0    0  0.51706540460E+03  0.43705604490E+02  0.78977800683E+03  0.94831420528E+03  0.79269914667E+02 0.  0.
         24    2    4    4    0    0 -0.85968409531E+02  0.12105821266E+03  0.36894350682E+02  0.17253670631E+03  0.79762545236E+02 0.  0.
         11    1    5    5    0    0  0.35110263520E+03 -0.27663728726E+01  0.56232467584E+03  0.66294023435E+03  0.00000000000E+00 0. -1.
        -12    1    5    5    0    0  0.16596276939E+03  0.46471977363E+02  0.22745333099E+03  0.28537397093E+03  0.00000000000E+00 0.  1.
         13    1    3    3    0    0 -0.97736585599E+02 -0.56431738455E+02  0.38057424372E+03  0.39695558473E+03  0.00000000000E+00 0. -1.
        -14    1    3    3    0    0 -0.33336040947E+03 -0.10833207870E+03  0.82340087581E+03  0.89490446650E+03  0.00000000000E+00 0.  1.
          4    1    6    6  502    0 -0.43524550097E+02  0.95155873925E+02  0.56702105678E+02  0.11901325805E+03  0.00000000000E+00 0. -1.
         -3    1    6    6    0  502 -0.42443859434E+02  0.25902338734E+02 -0.19807754996E+02  0.53523448259E+02  0.00000000000E+00 0.  1.
<mgrwt>
<rscale>  0 0.57060009E+03</rscale>
<asrwt>0</asrwt>
<pdfrwt beam="1">  1        1 0.29389500E-01 0.57060009E+03</pdfrwt>
<pdfrwt beam="2">  1       -2 0.34179678E+00 0.57060009E+03</pdfrwt>
<totfact> 0.26174734E+00</totfact>
</mgrwt>
</event>
<event>
12    3  0.2269558E-007  0.6238889E+03  0.7818608E-02  0.9857047E-01
          1   -1    0    0  501    0  0.00000000000E+00  0.00000000000E+00  0.13894111032E+04  0.13894111032E+04  0.00000000000E+00 0. -1.
         -2   -1    0    0    0  501 -0.00000000000E+00 -0.00000000000E+00 -0.38880262484E+03  0.38880262484E+03  0.00000000000E+00 0.  1.
        -24    2    1    2    0    0 -0.20652345051E+03 -0.57077596418E+03  0.35145079591E+03  0.70593400774E+03  0.79925117707E+02 0.  0.
    5000000    2    1    2    0    0  0.20652345051E+03  0.57077596418E+03  0.64915768242E+03  0.10722797203E+04  0.59995080212E+03 0.  0.
        -24    2    4    4    0    0  0.14505703505E+03  0.52401007559E+03  0.74505972043E+03  0.92575698741E+03  0.79271117038E+02 0.  0.
         24    2    4    4    0    0  0.61466415461E+02  0.46765888585E+02 -0.95902038015E+02  0.14652273286E+03  0.79413738002E+02 0.  0.
         13    1    5    5    0    0 -0.57022225755E+01  0.62307817551E+02  0.10582733952E+03  0.12293984407E+03  0.00000000000E+00 0. -1.
        -14    1    5    5    0    0  0.15075925762E+03  0.46170225804E+03  0.63923238091E+03  0.80281714335E+03  0.00000000000E+00 0.  1.
         13    1    3    3    0    0 -0.84153905175E+02 -0.25555281679E+03  0.11116948280E+03  0.29111471249E+03  0.00000000000E+00 0. -1.
        -14    1    3    3    0    0 -0.12236954533E+03 -0.31522314739E+03  0.24028131312E+03  0.41481929525E+03  0.00000000000E+00 0.  1.
          4    1    6    6  502    0  0.21256023020E+02 -0.94042395396E+01  0.54444090254E+01  0.23872574758E+02  0.00000000000E+00 0. -1.
         -3    1    6    6    0  502  0.40210392441E+02  0.56170128125E+02 -0.10134644704E+03  0.12265015810E+03  0.00000000000E+00 0.  1.
<mgrwt>
<rscale>  0 0.62388890E+03</rscale>
<asrwt>0</asrwt>
<pdfrwt beam="1">  1        1 0.21375555E+00 0.62388890E+03</pdfrwt>
<pdfrwt beam="2">  1       -2 0.59815789E-01 0.62388890E+03</pdfrwt>
<totfact> 0.18704579E+01</totfact>
</mgrwt>
</event>
<event>
12    3  0.2269558E-007  0.4621684E+03  0.7818608E-02  0.1024154E+00
         -2   -1    0    0    0  501 -0.00000000000E+00  0.00000000000E+00  0.24290370729E+03  0.24290370729E+03  0.00000000000E+00 0.  1.
          1   -1    0    0  501    0  0.00000000000E+00 -0.00000000000E+00 -0.11696484072E+04  0.11696484072E+04  0.00000000000E+00 0. -1.
        -24    2    1    2    0    0  0.63006466892E+02  0.30109343098E+03 -0.56289973795E+03  0.64640745378E+03  0.79745923182E+02 0.  0.
    5000000    2    1    2    0    0 -0.63006466892E+02 -0.30109343098E+03 -0.36384496201E+03  0.76614466076E+03  0.59997284587E+03 0.  0.
        -24    2    4    4    0    0 -0.11744468440E+03 -0.43801876222E+03 -0.13126215444E+03  0.47878207389E+03  0.79679552820E+02 0.  0.
         24    2    4    4    0    0  0.54438217508E+02  0.13692533124E+03 -0.23258280757E+03  0.28736258687E+03  0.82282611146E+02 0.  0.
         11    1    3    3    0    0  0.26749300998E+01  0.19921700674E+03 -0.36255186673E+03  0.41368880465E+03  0.00000000000E+00 0. -1.
        -12    1    3    3    0    0  0.60331536792E+02  0.10187642424E+03 -0.20034787122E+03  0.23271864913E+03  0.00000000000E+00 0.  1.
         13    1    5    5    0    0 -0.12765447855E+03 -0.40715728832E+03 -0.11262931233E+03  0.44131404388E+03  0.00000000000E+00 0. -1.
        -14    1    5    5    0    0  0.10209794150E+02 -0.30861473895E+02 -0.18632842108E+02  0.37468030007E+02  0.00000000000E+00 0.  1.
          4    1    6    6  502    0  0.21596266020E+02  0.63120268387E+02 -0.38230898106E+02  0.76890627239E+02  0.00000000000E+00 0. -1.
         -3    1    6    6    0  502  0.32841951488E+02  0.73805062852E+02 -0.19435190946E+03  0.21047195963E+03  0.00000000000E+00 0.  1.
<mgrwt>
<rscale>  0 0.46216835E+03</rscale>
<asrwt>0</asrwt>
<pdfrwt beam="1">  1        1 0.17994591E+00 0.46216835E+03</pdfrwt>
<pdfrwt beam="2">  1       -2 0.37369801E-01 0.46216835E+03</pdfrwt>
<totfact> 0.70203447E+01</totfact>
</mgrwt>
</event>
<event>
12    3  0.2269558E-007  0.1147167E+04  0.7818608E-02  0.9160401E-01
         -2   -1    0    0    0  501 -0.00000000000E+00  0.00000000000E+00  0.21398471542E+04  0.21398471542E+04  0.00000000000E+00 0.  1.
          1   -1    0    0  501    0  0.00000000000E+00 -0.00000000000E+00 -0.72020253198E+03  0.72020253198E+03  0.00000000000E+00 0. -1.
        -24    2    1    2    0    0 -0.10900730869E+04  0.14436246714E+03  0.11211007315E+04  0.15723054592E+04  0.78598664096E+02 0.  0.
    5000000    2    1    2    0    0  0.10900730869E+04 -0.14436246714E+03  0.29854389065E+03  0.12877442270E+04  0.60004740039E+03 0.  0.
        -24    2    4    4    0    0 -0.69319576661E+01  0.57226604806E+02 -0.59336072397E+02  0.11369629604E+03  0.77994499231E+02 0.  0.
         24    2    4    4    0    0  0.10970050446E+04 -0.20158907195E+03  0.35787996305E+03  0.11740479309E+04  0.79071198388E+02 0.  0.
         13    1    3    3    0    0 -0.44443657589E+03  0.34378088348E+02  0.49713496675E+03  0.66771917609E+03  0.00000000000E+00 0. -1.
        -14    1    3    3    0    0 -0.64563651102E+03  0.10998437880E+03  0.62396576480E+03  0.90458628310E+03  0.00000000000E+00 0.  1.
         13    1    5    5    0    0  0.20778095396E+02  0.39222518336E+02 -0.66433764581E+02  0.79897310777E+02  0.00000000000E+00 0. -1.
        -14    1    5    5    0    0 -0.27710053062E+02  0.18004086470E+02  0.70976921835E+01  0.33798985261E+02  0.00000000000E+00 0.  1.
          4    1    6    6  502    0  0.70063845374E+03 -0.10772304591E+03  0.19355275436E+03  0.73482049931E+03  0.00000000000E+00 0. -1.
         -3    1    6    6    0  502  0.39636659083E+03 -0.93866026043E+02  0.16432720869E+03  0.43922743162E+03  0.00000000000E+00 0.  1.
<mgrwt>
<rscale>  0 0.11471670E+04</rscale>
<asrwt>0</asrwt>
<pdfrwt beam="1">  1        1 0.11080039E+00 0.11471670E+04</pdfrwt>
<pdfrwt beam="2">  1       -2 0.32920725E+00 0.11471670E+04</pdfrwt>
<totfact> 0.47663638E-01</totfact>
</mgrwt>
</event>
<event>
12    3  0.2269558E-007  0.6633770E+03  0.7818608E-02  0.9781997E-01
         -2   -1    0    0    0  501 -0.00000000000E+00  0.00000000000E+00  0.32976073967E+03  0.32976073967E+03  0.00000000000E+00 0.  1.
          1   -1    0    0  501    0  0.00000000000E+00 -0.00000000000E+00 -0.16911665826E+04  0.16911665826E+04  0.00000000000E+00 0. -1.
        -24    2    1    2    0    0 -0.20716877034E+03 -0.58742616242E+03 -0.54394278023E+03  0.83084419626E+03  0.80249203035E+02 0.  0.
    5000000    2    1    2    0    0  0.20716877034E+03  0.58742616242E+03 -0.81746306267E+03  0.11900831260E+04  0.60005299119E+03 0.  0.
        -24    2    4    4    0    0  0.24618478881E+03  0.22890170373E+03 -0.73125194608E+03  0.80868462665E+03  0.78984026949E+02 0.  0.
         24    2    4    4    0    0 -0.39016018470E+02  0.35852445869E+03 -0.86211116589E+02  0.38139849934E+03  0.89277217139E+02 0.  0.
         13    1    3    3    0    0 -0.16113221396E+03 -0.40360006884E+03 -0.33456952961E+03  0.54844632926E+03  0.00000000000E+00 0. -1.
        -14    1    3    3    0    0 -0.46036556373E+02 -0.18382609359E+03 -0.20937325062E+03  0.28239786699E+03  0.00000000000E+00 0.  1.
         13    1    5    5    0    0  0.24567068311E+03  0.21020988687E+03 -0.71130788765E+03  0.78134575708E+03  0.00000000000E+00 0. -1.
        -14    1    5    5    0    0  0.51410569943E+00  0.18691816866E+02 -0.19944058437E+02  0.27338869570E+02  0.00000000000E+00 0.  1.
          4    1    6    6  502    0 -0.37381184450E+02  0.33972786777E+03 -0.56815025971E+02  0.34646835969E+03  0.00000000000E+00 0. -1.
         -3    1    6    6    0  502 -0.16348340197E+01  0.18796590923E+02 -0.29396090618E+02  0.34930139654E+02  0.00000000000E+00 0.  1.
<mgrwt>
<rscale>  0 0.66337703E+03</rscale>
<asrwt>0</asrwt>
<pdfrwt beam="1">  1        1 0.26017948E+00 0.66337703E+03</pdfrwt>
<pdfrwt beam="2">  1       -2 0.50732421E-01 0.66337703E+03</pdfrwt>
<totfact> 0.16311257E+01</totfact>
</mgrwt>
</event>
<event>
12    3  0.2269558E-007  0.1361143E+04  0.7818608E-02  0.8982435E-01
         -2   -1    0    0    0  501 -0.00000000000E+00  0.00000000000E+00  0.76911445165E+03  0.76911445165E+03  0.00000000000E+00 0.  1.
          1   -1    0    0  501    0  0.00000000000E+00 -0.00000000000E+00 -0.26024914432E+04  0.26024914432E+04  0.00000000000E+00 0. -1.
        -24    2    1    2    0    0 -0.87314019484E+03  0.99401094478E+03 -0.55688474987E+03  0.14376900909E+04  0.80003841827E+02 0.  0.
    5000000    2    1    2    0    0  0.87314019484E+03 -0.99401094478E+03 -0.12764922417E+04  0.19339158040E+04  0.60013859690E+03 0.  0.
        -24    2    4    4    0    0  0.29372404415E+03 -0.67201966987E+03 -0.91798792281E+03  0.11773372156E+04  0.74409959489E+02 0.  0.
         24    2    4    4    0    0  0.57941615069E+03 -0.32199127491E+03 -0.35850431892E+03  0.75657858835E+03  0.66965340744E+02 0.  0.
         13    1    5    5    0    0  0.29209865070E+01 -0.44129052078E+02 -0.70725173388E+02  0.83414360576E+02  0.00000000000E+00 0. -1.
        -14    1    5    5    0    0  0.29080305764E+03 -0.62789061779E+03 -0.84726274943E+03  0.10939228551E+04  0.00000000000E+00 0.  1.
         13    1    3    3    0    0 -0.73320668888E+03  0.83117326210E+03 -0.49777736388E+03  0.12149993186E+04  0.00000000000E+00 0. -1.
        -14    1    3    3    0    0 -0.13993350596E+03  0.16283768268E+03 -0.59107385991E+02  0.22269077231E+03  0.00000000000E+00 0.  1.
          2    1    6    6  502    0  0.12462063679E+03 -0.62245859351E+02 -0.46055851338E+02  0.14671738671E+03  0.00000000000E+00 0. -1.
         -1    1    6    6    0  502  0.45479551390E+03 -0.25974541556E+03 -0.31244846758E+03  0.60986120164E+03  0.00000000000E+00 0.  1.
<mgrwt>
<rscale>  0 0.13611434E+04</rscale>
<asrwt>0</asrwt>
<pdfrwt beam="1">  1        1 0.40038330E+00 0.13611434E+04</pdfrwt>
<pdfrwt beam="2">  1       -2 0.11832530E+00 0.13611434E+04</pdfrwt>
<totfact> 0.53583842E-01</totfact>
</mgrwt>
</event>
<event>
12    3  0.2269558E-007  0.8860143E+03  0.7818608E-02  0.9443235E-01
         -2   -1    0    0    0  501 -0.00000000000E+00  0.00000000000E+00  0.64583403277E+03  0.64583403277E+03  0.00000000000E+00 0.  1.
          1   -1    0    0  501    0  0.00000000000E+00 -0.00000000000E+00 -0.17222294637E+04  0.17222294637E+04  0.00000000000E+00 0. -1.
        -24    2    1    2    0    0  0.72948750482E+03 -0.30434986607E+03  0.13076972515E+03  0.80535583312E+03  0.81953866696E+02 0.  0.
    5000000    2    1    2    0    0 -0.72948750482E+03  0.30434986607E+03 -0.12071651561E+04  0.15627076634E+04  0.60002222157E+03 0.  0.
        -24    2    4    4    0    0 -0.46600584956E+03  0.47281900612E+03 -0.77735045432E+03  0.10252271665E+04  0.78088089918E+02 0.  0.
         24    2    4    4    0    0 -0.26348165525E+03 -0.16846914005E+03 -0.42981470178E+03  0.53748049684E+03  0.79625202077E+02 0.  0.
         11    1    3    3    0    0  0.41792617107E+03 -0.17217657804E+03  0.11573013614E+03  0.46658388625E+03  0.00000000000E+00 0. -1.
        -12    1    3    3    0    0  0.31156133374E+03 -0.13217328802E+03  0.15039589015E+02  0.33877194687E+03  0.00000000000E+00 0.  1.
         11    1    5    5    0    0 -0.34276304929E+03  0.36628561156E+03 -0.53689307633E+03  0.73478284725E+03  0.00000000000E+00 0. -1.
        -12    1    5    5    0    0 -0.12324280027E+03  0.10653339455E+03 -0.24045737799E+03  0.29044431928E+03  0.00000000000E+00 0.  1.
          4    1    6    6  502    0 -0.18032075397E+03 -0.85510551743E+02 -0.22006758881E+03  0.29708142388E+03  0.00000000000E+00 0. -1.
         -3    1    6    6    0  502 -0.83160901286E+02 -0.82958588307E+02 -0.20974711298E+03  0.24039907296E+03  0.00000000000E+00 0.  1.
<mgrwt>
<rscale>  0 0.88601426E+03</rscale>
<asrwt>0</asrwt>
<pdfrwt beam="1">  1        1 0.26495838E+00 0.88601426E+03</pdfrwt>
<pdfrwt beam="2">  1       -2 0.99359083E-01 0.88601426E+03</pdfrwt>
<totfact> 0.34462273E+00</totfact>
</mgrwt>
</event>
<event>
12    3  0.2269558E-007  0.9338787E+03  0.7818608E-02  0.9384195E-01
         -2   -1    0    0    0  501 -0.00000000000E+00  0.00000000000E+00  0.10991891569E+04  0.10991891569E+04  0.00000000000E+00 0.  1.
          1   -1    0    0  501    0  0.00000000000E+00 -0.00000000000E+00 -0.12017690025E+04  0.12017690025E+04  0.00000000000E+00 0. -1.
        -24    2    1    2    0    0 -0.89805873021E+03  0.34559958423E+02  0.53252600516E+03  0.10475135800E+04  0.77439528289E+02 0.  0.
    5000000    2    1    2    0    0  0.89805873021E+03 -0.34559958423E+02 -0.63510585081E+03  0.12534445794E+04  0.60004999639E+03 0.  0.
        -24    2    4    4    0    0  0.23907484389E+03  0.13059073180E+03  0.46580855260E+02  0.28779973933E+03  0.80300645512E+02 0.  0.
         24    2    4    4    0    0  0.65898388632E+03 -0.16515069023E+03 -0.68168670607E+03  0.96564484002E+03  0.78985308324E+02 0.  0.
         11    1    5    5    0    0  0.16192344845E+03  0.12863015889E+03  0.35841537022E+02  0.20987981492E+03  0.00000000000E+00 0. -1.
        -12    1    5    5    0    0  0.77151395442E+02  0.19605729118E+01  0.10739318238E+02  0.77919924416E+02  0.00000000000E+00 0.  1.
         13    1    3    3    0    0 -0.51398200606E+03 -0.14253189306E+02  0.32426306558E+03  0.60788748273E+03  0.00000000000E+00 0. -1.
        -14    1    3    3    0    0 -0.38407672415E+03  0.48813147730E+02  0.20826293958E+03  0.43962609730E+03  0.00000000000E+00 0.  1.
          2    1    6    6  502    0  0.31474011868E+03 -0.11222886828E+03 -0.36577541336E+03  0.49542740558E+03  0.00000000000E+00 0. -1.
         -1    1    6    6    0  502  0.34424376764E+03 -0.52921821944E+02 -0.31591129271E+03  0.47021743445E+03  0.00000000000E+00 0.  1.
<mgrwt>
<rscale>  0 0.93387875E+03</rscale>
<asrwt>0</asrwt>
<pdfrwt beam="1">  1        1 0.18488754E+00 0.93387875E+03</pdfrwt>
<pdfrwt beam="2">  1       -2 0.16910602E+00 0.93387875E+03</pdfrwt>
<totfact> 0.20297748E+00</totfact>
</mgrwt>
</event>
<event>
12    3  0.2269558E-007  0.2864186E+03  0.7818608E-02  0.1092234E+00
          1   -1    0    0  501    0  0.00000000000E+00  0.00000000000E+00  0.14792116301E+04  0.14792116301E+04  0.00000000000E+00 0. -1.
         -2   -1    0    0    0  501 -0.00000000000E+00 -0.00000000000E+00 -0.14876057244E+03  0.14876057244E+03  0.00000000000E+00 0.  1.
        -24    2    1    2    0    0 -0.85848318022E+02 -0.16796776668E+03  0.64917921873E+02  0.21481517639E+03  0.79675084419E+02 0.  0.
    5000000    2    1    2    0    0  0.85848318022E+02  0.16796776668E+03  0.12655331358E+04  0.14131570262E+04  0.59987961996E+03 0.  0.
        -24    2    4    4    0    0 -0.11564305585E+03  0.77946739133E+02  0.11304334296E+04  0.11417950143E+04  0.79794143896E+02 0.  0.
         24    2    4    4    0    0  0.20149137387E+03  0.90021027544E+02  0.13509970622E+03  0.27136201189E+03  0.81748710890E+02 0.  0.
         11    1    5    5    0    0  0.11663060003E+02  0.91676496378E+01  0.15163272291E+03  0.15235667175E+03  0.00000000000E+00 0. -1.
        -12    1    5    5    0    0 -0.12730611585E+03  0.68779089496E+02  0.97880070669E+03  0.98943834254E+03  0.00000000000E+00 0.  1.
         13    1    3    3    0    0 -0.51981459036E+02 -0.11495438426E+03  0.24851412735E+01  0.12618541307E+03  0.00000000000E+00 0. -1.
        -14    1    3    3    0    0 -0.33866858986E+02 -0.53013382417E+02  0.62432780599E+02  0.88629763321E+02  0.00000000000E+00 0.  1.
          2    1    6    6  502    0  0.13178823188E+03  0.79040207389E+02  0.12881246034E+03  0.20051968079E+03  0.00000000000E+00 0. -1.
         -1    1    6    6    0  502  0.69703141991E+02  0.10980820156E+02  0.62872458796E+01  0.70842331099E+02  0.00000000000E+00 0.  1.
<mgrwt>
<rscale>  0 0.28641864E+03</rscale>
<asrwt>0</asrwt>
<pdfrwt beam="1">  1        1 0.22757101E+00 0.28641864E+03</pdfrwt>
<pdfrwt beam="2">  1       -2 0.22886243E-01 0.28641864E+03</pdfrwt>
<totfact> 0.10846868E+02</totfact>
</mgrwt>
</event>
<event>
12    3  0.2269558E-007  0.1350872E+04  0.7818608E-02  0.8990168E-01
          1   -1    0    0  501    0  0.00000000000E+00  0.00000000000E+00  0.20148413971E+04  0.20148413971E+04  0.00000000000E+00 0. -1.
         -2   -1    0    0    0  501 -0.00000000000E+00 -0.00000000000E+00 -0.10842939713E+04  0.10842939713E+04  0.00000000000E+00 0.  1.
        -24    2    1    2    0    0 -0.12478862787E+04  0.50241283034E+03 -0.16948491226E+02  0.13477575976E+04  0.80774216817E+02 0.  0.
    5000000    2    1    2    0    0  0.12478862787E+04 -0.50241283034E+03  0.94749591697E+03  0.17513777708E+04  0.59994730325E+03 0.  0.
        -24    2    4    4    0    0  0.38236910812E+03 -0.19079599861E+03  0.64979117494E+03  0.78112924936E+03  0.72973181673E+02 0.  0.
         24    2    4    4    0    0  0.86551717053E+03 -0.31161683173E+03  0.29770474203E+03  0.97024852140E+03  0.80802583769E+02 0.  0.
         11    1    3    3    0    0 -0.41150225321E+03  0.19002924075E+03 -0.36489185400E+02  0.45472703613E+03  0.00000000000E+00 0. -1.
        -12    1    3    3    0    0 -0.83638402545E+03  0.31238358959E+03  0.19540694174E+02  0.89303056152E+03  0.00000000000E+00 0.  1.
         11    1    5    5    0    0  0.37362824560E+03 -0.19667319373E+03  0.62571014863E+03  0.75484541539E+03  0.00000000000E+00 0. -1.
        -12    1    5    5    0    0  0.87408625274E+01  0.58771951110E+01  0.24081026303E+02  0.26283833965E+02  0.00000000000E+00 0.  1.
          2    1    6    6  502    0  0.32757855826E+03 -0.15652793082E+03  0.10088989566E+03  0.37681225565E+03  0.00000000000E+00 0. -1.
         -1    1    6    6    0  502  0.53793861227E+03 -0.15508890091E+03  0.19681484637E+03  0.59343626575E+03  0.00000000000E+00 0.  1.
<mgrwt>
<rscale>  0 0.13508720E+04</rscale>
<asrwt>0</asrwt>
<pdfrwt beam="1">  1        1 0.30997560E+00 0.13508720E+04</pdfrwt>
<pdfrwt beam="2">  1       -2 0.16681446E+00 0.13508720E+04</pdfrwt>
<totfact> 0.55043061E-01</totfact>
</mgrwt>
</event>
<event>
12    3  0.2269558E-007  0.3874623E+03  0.7818608E-02  0.1048210E+00
          1   -1    0    0  501    0  0.00000000000E+00  0.00000000000E+00  0.41558059355E+03  0.41558059355E+03  0.00000000000E+00 0. -1.
         -2   -1    0    0    0  501 -0.00000000000E+00 -0.00000000000E+00 -0.64740871501E+03  0.64740871501E+03  0.00000000000E+00 0.  1.
        -24    2    1    2    0    0  0.16393215384E+03  0.24563601913E+03 -0.24899709319E+03  0.39418145602E+03  0.78540835856E+02 0.  0.
    5000000    2    1    2    0    0 -0.16393215384E+03 -0.24563601913E+03  0.17168971734E+02  0.66880785254E+03  0.59983194736E+03 0.  0.
        -24    2    4    4    0    0  0.10192515684E+03 -0.68221463149E+02  0.22972848622E+03  0.27679092480E+03  0.93782370620E+02 0.  0.
         24    2    4    4    0    0 -0.26585731068E+03 -0.17741455598E+03 -0.21255951449E+03  0.39201692774E+03  0.79622171023E+02 0.  0.
         11    1    3    3    0    0  0.80142959464E+02  0.13955432988E+03 -0.18317602362E+03  0.24382731711E+03  0.00000000000E+00 0. -1.
        -12    1    3    3    0    0  0.83789194374E+02  0.10608168925E+03 -0.65821069569E+02  0.15035413891E+03  0.00000000000E+00 0.  1.
         11    1    5    5    0    0  0.50321798302E+02 -0.82750372414E+02  0.11640523461E+03  0.15142683436E+03  0.00000000000E+00 0. -1.
        -12    1    5    5    0    0  0.51603358541E+02  0.14528909264E+02  0.11332325161E+03  0.12536409044E+03  0.00000000000E+00 0.  1.
          2    1    6    6  502    0 -0.21838339767E+03 -0.17663194994E+03 -0.17040695357E+03  0.32852501266E+03  0.00000000000E+00 0. -1.
         -3    1    6    6    0  502 -0.47473913013E+02 -0.78260604436E+00 -0.42152560919E+02  0.63491915084E+02  0.00000000000E+00 0.  1.
<mgrwt>
<rscale>  0 0.38746228E+03</rscale>
<asrwt>0</asrwt>
<pdfrwt beam="1">  1        1 0.63935476E-01 0.38746228E+03</pdfrwt>
<pdfrwt beam="2">  1       -2 0.99601340E-01 0.38746228E+03</pdfrwt>
<totfact> 0.43652777E+01</totfact>
</mgrwt>
</event>
<event>
12    3  0.2269558E-007  0.8008836E+03  0.7818608E-02  0.9558739E-01
         -2   -1    0    0    0  501 -0.00000000000E+00  0.00000000000E+00  0.73392056002E+03  0.73392056002E+03  0.00000000000E+00 0.  1.
          1   -1    0    0  501    0  0.00000000000E+00 -0.00000000000E+00 -0.97147381099E+03  0.97147381099E+03  0.00000000000E+00 0. -1.
        -24    2    1    2    0    0 -0.69791310290E+03 -0.19545645795E+02 -0.33756521888E+03  0.77943632946E+03  0.78140791001E+02 0.  0.
    5000000    2    1    2    0    0  0.69791310290E+03  0.19545645795E+02  0.10001196791E+03  0.92595804155E+03  0.59994263852E+03 0.  0.
        -24    2    4    4    0    0  0.67927548326E+03 -0.17688468450E+03  0.11442728338E+03  0.71558186592E+03  0.79122878400E+02 0.  0.
         24    2    4    4    0    0  0.18637619634E+02  0.19643033030E+03 -0.14415315474E+02  0.21037617562E+03  0.71540886366E+02 0.  0.
         11    1    5    5    0    0  0.34310222888E+03 -0.99605052824E+02  0.96994138936E+02  0.37020017422E+03  0.00000000000E+00 0. -1.
        -12    1    5    5    0    0  0.33617325439E+03 -0.77279631681E+02  0.17433144446E+02  0.34538169170E+03  0.00000000000E+00 0.  1.
         13    1    3    3    0    0 -0.21480902084E+03 -0.37974701426E+02 -0.12389381512E+03  0.25086783534E+03  0.00000000000E+00 0. -1.
        -14    1    3    3    0    0 -0.48310408205E+03  0.18429055631E+02 -0.21367140376E+03  0.52856849412E+03  0.00000000000E+00 0.  1.
          2    1    6    6  502    0 -0.23612757289E+01  0.47554065504E+02  0.26590640739E+02  0.54534639854E+02  0.00000000000E+00 0. -1.
         -1    1    6    6    0  502  0.20998895363E+02  0.14887626479E+03 -0.41005956213E+02  0.15584153577E+03  0.00000000000E+00 0.  1.
<mgrwt>
<rscale>  0 0.80088358E+03</rscale>
<asrwt>0</asrwt>
<pdfrwt beam="1">  1        1 0.14945751E+00 0.80088358E+03</pdfrwt>
<pdfrwt beam="2">  1       -2 0.11291086E+00 0.80088358E+03</pdfrwt>
<totfact> 0.87671214E+00</totfact>
</mgrwt>
</event>
<event>
12    3  0.2269558E-007  0.1259381E+04  0.7818608E-02  0.9062411E-01
         -2   -1    0    0    0  501 -0.00000000000E+00  0.00000000000E+00  0.12988221509E+04  0.12988221509E+04  0.00000000000E+00 0.  1.
          1   -1    0    0  501    0  0.00000000000E+00 -0.00000000000E+00 -0.12699856353E+04  0.12699856353E+04  0.00000000000E+00 0. -1.
        -24    2    1    2    0    0 -0.11331990292E+04 -0.42689397146E+03  0.83128810199E+02  0.12163472558E+04  0.78814623672E+02 0.  0.
    5000000    2    1    2    0    0  0.11331990292E+04  0.42689397146E+03 -0.54292294660E+02  0.13524605304E+04  0.59985275732E+03 0.  0.
        -24    2    4    4    0    0  0.90980387757E+03  0.53340045365E+03  0.78464506475E+02  0.10606065227E+04  0.80438657248E+02 0.  0.
         24    2    4    4    0    0  0.22339515161E+03 -0.10650648219E+03 -0.13275680114E+03  0.29185400774E+03  0.79406354116E+02 0.  0.
         11    1    5    5    0    0  0.71091416870E+03  0.38220542804E+03  0.76551864776E+02  0.81076515248E+03  0.00000000000E+00 0. -1.
        -12    1    5    5    0    0  0.19888970887E+03  0.15119502560E+03  0.19126416994E+01  0.24984137019E+03  0.00000000000E+00 0.  1.
         11    1    3    3    0    0 -0.96849811185E+03 -0.33617656120E+03  0.79802564272E+02  0.10282858174E+04  0.00000000000E+00 0. -1.
        -12    1    3    3    0    0 -0.16470091732E+03 -0.90717410262E+02  0.33262459269E+01  0.18806143838E+03  0.00000000000E+00 0.  1.
          2    1    6    6  502    0  0.14168713650E+03 -0.55038249873E+02 -0.38258088540E+02  0.15674225638E+03  0.00000000000E+00 0. -1.
         -1    1    6    6    0  502  0.81708015110E+02 -0.51468232314E+02 -0.94498712596E+02  0.13511175135E+03  0.00000000000E+00 0.  1.
<mgrwt>
<rscale>  0 0.12593811E+04</rscale>
<asrwt>0</asrwt>
<pdfrwt beam="1">  1        1 0.19538241E+00 0.12593811E+04</pdfrwt>
<pdfrwt beam="2">  1       -2 0.19981879E+00 0.12593811E+04</pdfrwt>
<totfact> 0.10761456E+00</totfact>
</mgrwt>
</event>
<event>
12    3  0.2269558E-007  0.7772891E+03  0.7818608E-02  0.9593485E-01
          1   -1    0    0  501    0  0.00000000000E+00  0.00000000000E+00  0.34925664938E+03  0.34925664938E+03  0.00000000000E+00 0. -1.
         -2   -1    0    0    0  501 -0.00000000000E+00 -0.00000000000E+00 -0.18492237211E+04  0.18492237211E+04  0.00000000000E+00 0.  1.
        -24    2    1    2    0    0 -0.48348749174E+03  0.45513464129E+03 -0.39932634191E+03  0.77991722162E+03  0.88891219290E+02 0.  0.
    5000000    2    1    2    0    0  0.48348749174E+03 -0.45513464129E+03 -0.11006407298E+04  0.14185631488E+04  0.60000307898E+03 0.  0.
        -24    2    4    4    0    0  0.61114661938E+03 -0.37527375371E+03 -0.83501130673E+03  0.11036177331E+04  0.79985235359E+02 0.  0.
         24    2    4    4    0    0 -0.12765912764E+03 -0.79860887580E+02 -0.26562942304E+03  0.31494541571E+03  0.77181670441E+02 0.  0.
         13    1    5    5    0    0  0.75893571013E+02 -0.51598626779E+02 -0.69918734731E+02  0.11537279520E+03  0.00000000000E+00 0. -1.
        -14    1    5    5    0    0  0.53525304837E+03 -0.32367512693E+03 -0.76509257200E+03  0.98824493791E+03  0.00000000000E+00 0.  1.
         13    1    3    3    0    0 -0.15676091268E+03  0.20562663859E+03 -0.14354251400E+03  0.29573763976E+03  0.00000000000E+00 0. -1.
        -14    1    3    3    0    0 -0.32672657906E+03  0.24950800269E+03 -0.25578382791E+03  0.48417958186E+03  0.00000000000E+00 0.  1.
          4    1    6    6  502    0 -0.34021964098E+02 -0.64246761540E+02 -0.13680990430E+03  0.15492608019E+03  0.00000000000E+00 0. -1.
         -3    1    6    6    0  502 -0.93637163542E+02 -0.15614126040E+02 -0.12881951874E+03  0.16001933551E+03  0.00000000000E+00 0.  1.
<mgrwt>
<rscale>  0 0.77728911E+03</rscale>
<asrwt>0</asrwt>
<pdfrwt beam="1">  1        1 0.53731791E-01 0.77728911E+03</pdfrwt>
<pdfrwt beam="2">  1       -2 0.28449596E+00 0.77728911E+03</pdfrwt>
<totfact> 0.25743601E+00</totfact>
</mgrwt>
</event>
<event>
12    3  0.2269558E-007  0.6861362E+03  0.7818608E-02  0.9741239E-01
         -2   -1    0    0    0  501 -0.00000000000E+00  0.00000000000E+00  0.38921925817E+03  0.38921925817E+03  0.00000000000E+00 0.  1.
          1   -1    0    0  501    0  0.00000000000E+00 -0.00000000000E+00 -0.15473550326E+04  0.15473550326E+04  0.00000000000E+00 0. -1.
        -24    2    1    2    0    0 -0.78432837989E+02  0.58663417945E+03 -0.85090209655E+03  0.10395464379E+04  0.79567883575E+02 0.  0.
    5000000    2    1    2    0    0  0.78432837989E+02 -0.58663417945E+03 -0.30723367789E+03  0.89702785287E+03  0.59997922083E+03 0.  0.
        -24    2    4    4    0    0 -0.17681419214E+03 -0.73030369963E+02  0.54482405701E+02  0.21428682034E+03  0.79710823360E+02 0.  0.
         24    2    4    4    0    0  0.25524703013E+03 -0.51360380948E+03 -0.36171608359E+03  0.68274103253E+03  0.79729999797E+02 0.  0.
         13    1    3    3    0    0 -0.82062142984E+01  0.30801398382E+03 -0.40080889425E+03  0.50555684734E+03  0.00000000000E+00 0. -1.
        -14    1    3    3    0    0 -0.70226623690E+02  0.27862019563E+03 -0.45009320230E+03  0.53398959057E+03  0.00000000000E+00 0.  1.
         13    1    5    5    0    0 -0.42484371785E+00  0.77080824577E+01  0.14194649498E+02  0.16158066151E+02  0.00000000000E+00 0. -1.
        -14    1    5    5    0    0 -0.17638934842E+03 -0.80738452421E+02  0.40287756203E+02  0.19812875419E+03  0.00000000000E+00 0.  1.
          2    1    6    6  502    0  0.14339164438E+03 -0.24079479517E+03 -0.21608646979E+03  0.35388791938E+03  0.00000000000E+00 0. -1.
         -1    1    6    6    0  502  0.11185538575E+03 -0.27280901431E+03 -0.14562961380E+03  0.32885311315E+03  0.00000000000E+00 0.  1.
<mgrwt>
<rscale>  0 0.68613616E+03</rscale>
<asrwt>0</asrwt>
<pdfrwt beam="1">  1        1 0.23805462E+00 0.68613616E+03</pdfrwt>
<pdfrwt beam="2">  1       -2 0.59879886E-01 0.68613616E+03</pdfrwt>
<totfact> 0.14417540E+01</totfact>
</mgrwt>
</event>
<event>
12    3  0.2269558E-007  0.7214317E+03  0.7818608E-02  0.9681267E-01
          1   -1    0    0  501    0  0.00000000000E+00  0.00000000000E+00  0.80722889545E+03  0.80722889545E+03  0.00000000000E+00 0. -1.
         -2   -1    0    0    0  501 -0.00000000000E+00 -0.00000000000E+00 -0.99091383119E+03  0.99091383119E+03  0.00000000000E+00 0.  1.
        -24    2    1    2    0    0  0.52113807025E+03  0.44684837410E+03 -0.47779933658E+03  0.84012834227E+03  0.79152181014E+02 0.  0.
    5000000    2    1    2    0    0 -0.52113807025E+03 -0.44684837410E+03  0.29411440084E+03  0.95801438437E+03  0.60002493464E+03 0.  0.
        -24    2    4    4    0    0 -0.53341789196E+03 -0.40173681665E+03  0.24459834240E+02  0.67293725900E+03  0.79493105016E+02 0.  0.
         24    2    4    4    0    0  0.12279821709E+02 -0.45111557453E+02  0.26965456660E+03  0.28507712538E+03  0.79809369685E+02 0.  0.
         11    1    3    3    0    0  0.27796048375E+03  0.20729178956E+03 -0.20210345006E+03  0.40134489043E+03  0.00000000000E+00 0. -1.
        -12    1    3    3    0    0  0.24317758650E+03  0.23955658454E+03 -0.27569588652E+03  0.43878345185E+03  0.00000000000E+00 0.  1.
         13    1    5    5    0    0 -0.62436295762E+02 -0.79824373896E+02 -0.70284244193E+01  0.10158553266E+03  0.00000000000E+00 0. -1.
        -14    1    5    5    0    0 -0.47098159619E+03 -0.32191244275E+03  0.31488258660E+02  0.57135172633E+03  0.00000000000E+00 0.  1.
          2    1    6    6  502    0  0.14918503479E+02 -0.63058469358E+02  0.14133281684E+03  0.15547957235E+03  0.00000000000E+00 0. -1.
         -1    1    6    6    0  502 -0.26386817709E+01  0.17946911906E+02  0.12832174976E+03  0.12959755302E+03  0.00000000000E+00 0.  1.
<mgrwt>
<rscale>  0 0.72143173E+03</rscale>
<asrwt>0</asrwt>
<pdfrwt beam="1">  1        1 0.12418906E+00 0.72143173E+03</pdfrwt>
<pdfrwt beam="2">  1       -2 0.15244828E+00 0.72143173E+03</pdfrwt>
<totfact> 0.56284680E+00</totfact>
</mgrwt>
</event>
<event>
12    3  0.2269558E-007  0.6170279E+03  0.7818608E-02  0.9870695E-01
          1   -1    0    0  501    0  0.00000000000E+00  0.00000000000E+00  0.27453906607E+04  0.27453906607E+04  0.00000000000E+00 0. -1.
         -2   -1    0    0    0  501 -0.00000000000E+00 -0.00000000000E+00 -0.29854099559E+03  0.29854099559E+03  0.00000000000E+00 0.  1.
        -24    2    1    2    0    0  0.21350853131E+03 -0.42341400977E+03  0.53449445974E+00  0.48089507658E+03  0.79965444945E+02 0.  0.
    5000000    2    1    2    0    0 -0.21350853131E+03  0.42341400977E+03  0.24463151706E+04  0.25630365797E+04  0.59986104902E+03 0.  0.
        -24    2    4    4    0    0  0.17880030024E+03  0.24134174662E+02  0.55860062701E+03  0.59241636617E+03  0.79815315957E+02 0.  0.
         24    2    4    4    0    0 -0.39230883155E+03  0.39927983511E+03  0.18877145436E+04  0.19706202135E+04  0.80914903879E+02 0.  0.
         11    1    3    3    0    0  0.10315974591E+03 -0.15882101228E+03 -0.33075979208E+02  0.19225001305E+03  0.00000000000E+00 0. -1.
        -12    1    3    3    0    0  0.11034878540E+03 -0.26459299749E+03  0.33610473667E+02  0.28864506353E+03  0.00000000000E+00 0.  1.
         13    1    5    5    0    0  0.17158014589E+03  0.42504754374E+02  0.48476429837E+03  0.51598723394E+03  0.00000000000E+00 0. -1.
        -14    1    5    5    0    0  0.72201543460E+01 -0.18370579712E+02  0.73836328633E+02  0.76429132232E+02  0.00000000000E+00 0.  1.
          2    1    6    6  502    0 -0.20920150285E+03  0.18153319906E+03  0.10496921704E+04  0.10856211234E+04  0.00000000000E+00 0. -1.
         -1    1    6    6    0  502 -0.18310732870E+03  0.21774663605E+03  0.83802237326E+03  0.88499909007E+03  0.00000000000E+00 0.  1.
<mgrwt>
<rscale>  0 0.61702788E+03</rscale>
<asrwt>0</asrwt>
<pdfrwt beam="1">  1        1 0.42236778E+00 0.61702788E+03</pdfrwt>
<pdfrwt beam="2">  1       -2 0.45929386E-01 0.61702788E+03</pdfrwt>
<totfact> 0.39193003E+00</totfact>
</mgrwt>
</event>
<event>
12    3  0.2269558E-007  0.1301861E+04  0.7818608E-02  0.9028091E-01
         -2   -1    0    0    0  501 -0.00000000000E+00  0.00000000000E+00  0.80843505359E+03  0.80843505359E+03  0.00000000000E+00 0.  1.
          1   -1    0    0  501    0  0.00000000000E+00 -0.00000000000E+00 -0.22411760341E+04  0.22411760341E+04  0.00000000000E+00 0. -1.
        -24    2    1    2    0    0 -0.60038727563E+03  0.11260352382E+04 -0.75985512242E+03  0.14872311130E+04  0.77822476666E+02 0.  0.
    5000000    2    1    2    0    0  0.60038727563E+03 -0.11260352382E+04 -0.67288585809E+03  0.15623799747E+04  0.59986295850E+03 0.  0.
        -24    2    4    4    0    0  0.26493174818E+03 -0.81961741322E+03 -0.17203236514E+03  0.88146704999E+03  0.73671502790E+02 0.  0.
         24    2    4    4    0    0  0.33545552745E+03 -0.30641782500E+03 -0.50085349296E+03  0.68091292474E+03  0.79786560868E+02 0.  0.
         11    1    3    3    0    0 -0.33509361300E+03  0.55208145664E+03 -0.40128181614E+03  0.76033463699E+03  0.00000000000E+00 0. -1.
        -12    1    3    3    0    0 -0.26529366262E+03  0.57395378157E+03 -0.35857330627E+03  0.72689647597E+03  0.00000000000E+00 0.  1.
         13    1    5    5    0    0  0.87533315939E+02 -0.17343334520E+03 -0.31757003058E+02  0.19684947008E+03  0.00000000000E+00 0. -1.
        -14    1    5    5    0    0  0.17739843224E+03 -0.64618406801E+03 -0.14027536208E+03  0.68461757991E+03  0.00000000000E+00 0.  1.
          2    1    6    6  502    0  0.60315726876E+02 -0.10190320845E+03 -0.13300704692E+03  0.17808179393E+03  0.00000000000E+00 0. -1.
         -1    1    6    6    0  502  0.27513980058E+03 -0.20451461655E+03 -0.36784644604E+03  0.50283113081E+03  0.00000000000E+00 0.  1.
<mgrwt>
<rscale>  0 0.13018609E+04</rscale>
<asrwt>0</asrwt>
<pdfrwt beam="1">  1        1 0.34479631E+00 0.13018609E+04</pdfrwt>
<pdfrwt beam="2">  1       -2 0.12437462E+00 0.13018609E+04</pdfrwt>
<totfact> 0.84377188E-01</totfact>
</mgrwt>
</event>
<event>
12    3  0.2269558E-007  0.5553326E+03  0.7818608E-02  0.1000267E+00
          1   -1    0    0  501    0  0.00000000000E+00  0.00000000000E+00  0.84629986355E+03  0.84629986355E+03  0.00000000000E+00 0. -1.
         -2   -1    0    0    0  501 -0.00000000000E+00 -0.00000000000E+00 -0.45777740550E+03  0.45777740550E+03  0.00000000000E+00 0.  1.
        -24    2    1    2    0    0 -0.41340456399E+03  0.23088576826E+03  0.14866224873E+03  0.50292976264E+03  0.81402152494E+02 0.  0.
    5000000    2    1    2    0    0  0.41340456399E+03 -0.23088576826E+03  0.23986020932E+03  0.80114750641E+03  0.60007735793E+03 0.  0.
        -24    2    4    4    0    0  0.35082528629E+03  0.35062171472E+02 -0.81208528061E+02  0.37065850792E+03  0.80530535148E+02 0.  0.
         24    2    4    4    0    0  0.62579277703E+02 -0.26594793973E+03  0.32106873738E+03  0.43048899849E+03  0.87127326684E+02 0.  0.
         11    1    5    5    0    0  0.53290747380E+02 -0.96414805107E+01 -0.39225855321E+02  0.66869496995E+02  0.00000000000E+00 0. -1.
        -12    1    5    5    0    0  0.29753453891E+03  0.44703651983E+02 -0.41982672740E+02  0.30378901092E+03  0.00000000000E+00 0.  1.
         11    1    3    3    0    0 -0.25746337564E+03  0.14927069255E+03  0.51963524424E+02  0.30210815501E+03  0.00000000000E+00 0. -1.
        -12    1    3    3    0    0 -0.15594118836E+03  0.81615075708E+02  0.96698724308E+02  0.20082160763E+03  0.00000000000E+00 0.  1.
          2    1    6    6  502    0 -0.90343589928E+01 -0.11052909158E+03  0.89250620832E+02  0.14235158252E+03  0.00000000000E+00 0. -1.
         -1    1    6    6    0  502  0.71613636696E+02 -0.15541884815E+03  0.23181811655E+03  0.28813741597E+03  0.00000000000E+00 0.  1.
<mgrwt>
<rscale>  0 0.55533263E+03</rscale>
<asrwt>0</asrwt>
<pdfrwt beam="1">  1        1 0.13019998E+00 0.55533263E+03</pdfrwt>
<pdfrwt beam="2">  1       -2 0.70427293E-01 0.55533263E+03</pdfrwt>
<totfact> 0.33782495E+01</totfact>
</mgrwt>
</event>
<event>
12    3  0.2269558E-007  0.7228476E+03  0.7818608E-02  0.9678938E-01
         -2   -1    0    0    0  501 -0.00000000000E+00  0.00000000000E+00  0.80480349506E+03  0.80480349506E+03  0.00000000000E+00 0.  1.
          1   -1    0    0  501    0  0.00000000000E+00 -0.00000000000E+00 -0.70198669241E+03  0.70198669241E+03  0.00000000000E+00 0. -1.
        -24    2    1    2    0    0  0.48888497553E+03 -0.38136504166E+03 -0.62978775762E+02  0.62815784848E+03  0.78537520414E+02 0.  0.
    5000000    2    1    2    0    0 -0.48888497553E+03  0.38136504166E+03  0.16579557841E+03  0.87863233899E+03  0.60004899717E+03 0.  0.
        -24    2    4    4    0    0 -0.53380274605E+03  0.11412133114E+03  0.20751543444E+03  0.58912484444E+03  0.77694123974E+02 0.  0.
         24    2    4    4    0    0  0.44917770518E+02  0.26724371052E+03 -0.41719856029E+02  0.28950749455E+03  0.92936731681E+02 0.  0.
         11    1    5    5    0    0 -0.50686340570E+03  0.12510678385E+03  0.19295219410E+03  0.55659030589E+03  0.00000000000E+00 0. -1.
        -12    1    5    5    0    0 -0.26939340349E+02 -0.10985452711E+02  0.14563240340E+02  0.32534538553E+02  0.00000000000E+00 0.  1.
         11    1    3    3    0    0  0.28824460797E+03 -0.26387496256E+03 -0.17073176203E+02  0.39116038045E+03  0.00000000000E+00 0. -1.
        -12    1    3    3    0    0  0.20064036756E+03 -0.11749007910E+03 -0.45905599559E+02  0.23699746803E+03  0.00000000000E+00 0.  1.
          4    1    6    6  502    0  0.28162700284E+02  0.13327856546E+03 -0.67549258980E+02  0.15205004468E+03  0.00000000000E+00 0. -1.
         -3    1    6    6    0  502  0.16755070234E+02  0.13396514505E+03  0.25829402951E+02  0.13745744987E+03  0.00000000000E+00 0.  1.
<mgrwt>
<rscale>  0 0.72284756E+03</rscale>
<asrwt>0</asrwt>
<pdfrwt beam="1">  1        1 0.10799795E+00 0.72284756E+03</pdfrwt>
<pdfrwt beam="2">  1       -2 0.12381592E+00 0.72284756E+03</pdfrwt>
<totfact> 0.11941610E+01</totfact>
</mgrwt>
</event>
<event>
12    3  0.2269558E-007  0.1001293E+04  0.7818608E-02  0.9307128E-01
         -2   -1    0    0    0  501 -0.00000000000E+00  0.00000000000E+00  0.19221183922E+04  0.19221183922E+04  0.00000000000E+00 0.  1.
          1   -1    0    0  501    0  0.00000000000E+00 -0.00000000000E+00 -0.53999511883E+03  0.53999511883E+03  0.00000000000E+00 0. -1.
        -24    2    1    2    0    0 -0.12450907464E+01 -0.92863488902E+03  0.62758580023E+03  0.11235888886E+04  0.78890725611E+02 0.  0.
    5000000    2    1    2    0    0  0.12450907464E+01  0.92863488902E+03  0.75453747312E+03  0.13385246224E+04  0.59996421483E+03 0.  0.
        -24    2    4    4    0    0  0.15346349125E+03  0.87751762046E+03  0.49277137046E+03  0.10214036797E+04  0.82786689497E+02 0.  0.
         24    2    4    4    0    0 -0.15221840050E+03  0.51117268556E+02  0.26176610265E+03  0.31712094271E+03  0.79125111133E+02 0.  0.
         11    1    5    5    0    0  0.88287841666E+02  0.68872299432E+03  0.39793131847E+03  0.80030209303E+03  0.00000000000E+00 0. -1.
        -12    1    5    5    0    0  0.65175649583E+02  0.18879462614E+03  0.94840051996E+02  0.22110158666E+03  0.00000000000E+00 0.  1.
         11    1    3    3    0    0 -0.30427208390E+02 -0.77499428522E+03  0.52312663878E+03  0.93552308220E+03  0.00000000000E+00 0. -1.
        -12    1    3    3    0    0  0.29182117644E+02 -0.15364060380E+03  0.10445916145E+03  0.18806580640E+03  0.00000000000E+00 0.  1.
          2    1    6    6  502    0 -0.15017912757E+03  0.64166306520E+02  0.25346279712E+03  0.30152027258E+03  0.00000000000E+00 0. -1.
         -1    1    6    6    0  502 -0.20392729293E+01 -0.13049037964E+02  0.83033055334E+01  0.15600670135E+02  0.00000000000E+00 0.  1.
<mgrwt>
<rscale>  0 0.10012929E+04</rscale>
<asrwt>0</asrwt>
<pdfrwt beam="1">  1        1 0.83076173E-01 0.10012929E+04</pdfrwt>
<pdfrwt beam="2">  1       -2 0.29571052E+00 0.10012929E+04</pdfrwt>
<totfact> 0.11876968E+00</totfact>
</mgrwt>
</event>
<event>
12    3  0.2269558E-007  0.3494179E+03  0.7818608E-02  0.1062854E+00
         -2   -1    0    0    0  501 -0.00000000000E+00  0.00000000000E+00  0.95578970800E+02  0.95578970800E+02  0.00000000000E+00 0.  1.
          1   -1    0    0  501    0  0.00000000000E+00 -0.00000000000E+00 -0.27836012079E+04  0.27836012079E+04  0.00000000000E+00 0. -1.
        -24    2    1    2    0    0 -0.17265083176E+03  0.15842810421E+03 -0.22669038487E+03  0.33495604629E+03  0.76806565068E+02 0.  0.
    5000000    2    1    2    0    0  0.17265083176E+03 -0.15842810421E+03 -0.24613318522E+04  0.25442241324E+04  0.60001181259E+03 0.  0.
        -24    2    4    4    0    0 -0.96309071988E+02  0.49846497787E+02 -0.17154104480E+04  0.17207156623E+04  0.80431801263E+02 0.  0.
         24    2    4    4    0    0  0.26895990375E+03 -0.20827460200E+03 -0.74592140418E+03  0.82350847007E+03  0.77779942214E+02 0.  0.
         11    1    3    3    0    0 -0.13753799207E+03  0.89522660234E+02 -0.18426216434E+03  0.24674592431E+03  0.00000000000E+00 0. -1.
        -12    1    3    3    0    0 -0.35112839697E+02  0.68905443975E+02 -0.42428220531E+02  0.88210121972E+02  0.00000000000E+00 0.  1.
         13    1    5    5    0    0 -0.66499944339E+02  0.53640457758E+02 -0.75219727295E+03  0.75703386895E+03  0.00000000000E+00 0. -1.
        -14    1    5    5    0    0 -0.29809127649E+02 -0.37939599707E+01 -0.96321317506E+03  0.96368179335E+03  0.00000000000E+00 0.  1.
          2    1    6    6  502    0  0.10581800103E+03 -0.61112870325E+02 -0.19179917539E+03  0.22741845999E+03  0.00000000000E+00 0. -1.
         -1    1    6    6    0  502  0.16314190272E+03 -0.14716173167E+03 -0.55412222878E+03  0.59609001008E+03  0.00000000000E+00 0.  1.
<mgrwt>
<rscale>  0 0.34941791E+03</rscale>
<asrwt>0</asrwt>
<pdfrwt beam="1">  1        1 0.42824631E+00 0.34941791E+03</pdfrwt>
<pdfrwt beam="2">  1       -2 0.14704458E-01 0.34941791E+03</pdfrwt>
<totfact> 0.31059373E+01</totfact>
</mgrwt>
</event>
<event>
12    3  0.2269558E-007  0.1098732E+04  0.7818608E-02  0.9206428E-01
         -2   -1    0    0    0  501 -0.00000000000E+00  0.00000000000E+00  0.76294202641E+03  0.76294202641E+03  0.00000000000E+00 0.  1.
          1   -1    0    0  501    0  0.00000000000E+00 -0.00000000000E+00 -0.21477409185E+04  0.21477409185E+04  0.00000000000E+00 0. -1.
        -24    2    1    2    0    0  0.85848745351E+01 -0.10610172779E+04  0.17020350622E+01  0.10644157277E+04  0.84537449753E+02 0.  0.
    5000000    2    1    2    0    0 -0.85848745351E+01  0.10610172779E+04 -0.13865009272E+04  0.18462672172E+04  0.60040524015E+03 0.  0.
        -24    2    4    4    0    0 -0.17608268938E+03  0.36285897874E+03 -0.21302074820E+03  0.46822421132E+03  0.10575594993E+03 0.  0.
         24    2    4    4    0    0  0.16749781485E+03  0.69815829913E+03 -0.11734801790E+04  0.13780430059E+04  0.80413102901E+02 0.  0.
         11    1    3    3    0    0  0.69266775888E+01 -0.17157701819E+03 -0.30437200908E+02  0.17439344951E+03  0.00000000000E+00 0. -1.
        -12    1    3    3    0    0  0.16581969463E+01 -0.88944025969E+03  0.32139235970E+02  0.89002227818E+03  0.00000000000E+00 0.  1.
         11    1    5    5    0    0 -0.13307934703E+03  0.34160765467E+03 -0.17133713163E+03  0.40467556760E+03  0.00000000000E+00 0. -1.
        -12    1    5    5    0    0 -0.43003342348E+02  0.21251324069E+02 -0.41683616567E+02  0.63548643715E+02  0.00000000000E+00 0.  1.
          4    1    6    6  502    0  0.62695853450E+02  0.13435903323E+03 -0.26689178947E+03  0.30531024735E+03  0.00000000000E+00 0. -1.
         -3    1    6    6    0  502  0.10480196140E+03  0.56379926590E+03 -0.90658838951E+03  0.10727327586E+04  0.00000000000E+00 0.  1.
<mgrwt>
<rscale>  0 0.10987323E+04</rscale>
<asrwt>0</asrwt>
<pdfrwt beam="1">  1        1 0.33042168E+00 0.10987323E+04</pdfrwt>
<pdfrwt beam="2">  1       -2 0.11737569E+00 0.10987323E+04</pdfrwt>
<totfact> 0.11564193E+00</totfact>
</mgrwt>
</event>
<event>
12    3  0.2269558E-007  0.6579283E+03  0.7818608E-02  0.9792015E-01
          1   -1    0    0  501    0  0.00000000000E+00  0.00000000000E+00  0.67669760607E+03  0.67669760607E+03  0.00000000000E+00 0. -1.
         -2   -1    0    0    0  501 -0.00000000000E+00 -0.00000000000E+00 -0.72631552926E+03  0.72631552926E+03  0.00000000000E+00 0.  1.
        -24    2    1    2    0    0 -0.20283331503E+03 -0.49451998308E+03 -0.21706958219E+03  0.58216931573E+03  0.78169951498E+02 0.  0.
    5000000    2    1    2    0    0  0.20283331503E+03  0.49451998308E+03  0.16745165900E+03  0.82084381960E+03  0.60004429063E+03 0.  0.
        -24    2    4    4    0    0  0.39642927623E+03  0.40068093220E+03  0.15273765067E+03  0.58954199933E+03  0.80805931433E+02 0.  0.
         24    2    4    4    0    0 -0.19359596120E+03  0.93839050876E+02  0.14714008328E+02  0.23130182027E+03  0.83659227559E+02 0.  0.
         11    1    3    3    0    0 -0.61389419625E+02 -0.12327623013E+03 -0.21567068704E+02  0.13939450566E+03  0.00000000000E+00 0. -1.
        -12    1    3    3    0    0 -0.14144389541E+03 -0.37124375295E+03 -0.19550251349E+03  0.44277481007E+03  0.00000000000E+00 0.  1.
         13    1    5    5    0    0  0.18588927407E+03  0.15771622441E+03  0.10115742537E+03  0.26393570119E+03  0.00000000000E+00 0. -1.
        -14    1    5    5    0    0  0.21054000216E+03  0.24296470779E+03  0.51580225297E+02  0.32560629813E+03  0.00000000000E+00 0.  1.
          4    1    6    6  502    0 -0.77478144719E+01  0.70456963070E+01  0.23781698918E+02  0.25985374136E+02  0.00000000000E+00 0. -1.
         -3    1    6    6    0  502 -0.18584814673E+03  0.86793354569E+02 -0.90676905898E+01  0.20531644613E+03  0.00000000000E+00 0.  1.
<mgrwt>
<rscale>  0 0.65792826E+03</rscale>
<asrwt>0</asrwt>
<pdfrwt beam="1">  1        1 0.10410732E+00 0.65792826E+03</pdfrwt>
<pdfrwt beam="2">  1       -2 0.11174085E+00 0.65792826E+03</pdfrwt>
<totfact> 0.16355818E+01</totfact>
</mgrwt>
</event>
<event>
12    3  0.2269558E-007  0.1831786E+04  0.7818608E-02  0.8689576E-01
         -2   -1    0    0    0  501 -0.00000000000E+00  0.00000000000E+00  0.18071555394E+04  0.18071555394E+04  0.00000000000E+00 0.  1.
          1   -1    0    0  501    0  0.00000000000E+00 -0.00000000000E+00 -0.25597806872E+04  0.25597806872E+04  0.00000000000E+00 0. -1.
        -24    2    1    2    0    0  0.12511995613E+04  0.12954440940E+04 -0.14811923240E+04  0.23335681883E+04  0.89073259831E+02 0.  0.
    5000000    2    1    2    0    0 -0.12511995613E+04 -0.12954440940E+04  0.72856717618E+03  0.20333680383E+04  0.60008308254E+03 0.  0.
        -24    2    4    4    0    0 -0.11460802334E+04 -0.93504931800E+03  0.72642512618E+03  0.16495992992E+04  0.75281176734E+02 0.  0.
         24    2    4    4    0    0 -0.10511932788E+03 -0.36039477604E+03  0.21420500013E+01  0.38376873905E+03  0.79620280100E+02 0.  0.
         11    1    3    3    0    0  0.86908738949E+03  0.95745130814E+03 -0.10652296585E+04  0.16753328396E+04  0.00000000000E+00 0. -1.
        -12    1    3    3    0    0  0.38211217181E+03  0.33799278591E+03 -0.41596266550E+03  0.65823534869E+03  0.00000000000E+00 0.  1.
         13    1    5    5    0    0 -0.54114851690E+03 -0.42763083143E+03  0.29867575378E+03  0.75160964019E+03  0.00000000000E+00 0. -1.
        -14    1    5    5    0    0 -0.60493171653E+03 -0.50741848657E+03  0.42774937240E+03  0.89798965905E+03  0.00000000000E+00 0.  1.
          4    1    6    6  502    0 -0.82333029091E+02 -0.16547421211E+03 -0.21627802530E+02  0.18608655082E+03  0.00000000000E+00 0. -1.
         -3    1    6    6    0  502 -0.22786298787E+02 -0.19492056393E+03  0.23769852531E+02  0.19768218823E+03  0.00000000000E+00 0.  1.
<mgrwt>
<rscale>  0 0.18317859E+04</rscale>
<asrwt>0</asrwt>
<pdfrwt beam="1">  1        1 0.39381242E+00 0.18317859E+04</pdfrwt>
<pdfrwt beam="2">  1       -2 0.27802393E+00 0.18317859E+04</pdfrwt>
<totfact> 0.42215925E-02</totfact>
</mgrwt>
</event>
<event>
12    3  0.2269558E-007  0.9573789E+03  0.7818608E-02  0.9356567E-01
          1   -1    0    0  501    0  0.00000000000E+00  0.00000000000E+00  0.59737478086E+03  0.59737478086E+03  0.00000000000E+00 0. -1.
         -2   -1    0    0    0  501 -0.00000000000E+00 -0.00000000000E+00 -0.17269933188E+04  0.17269933188E+04  0.00000000000E+00 0.  1.
        -24    2    1    2    0    0 -0.91394001438E+03  0.60298456296E+01 -0.35197821164E+03  0.98268754448E+03  0.80395520255E+02 0.  0.
    5000000    2    1    2    0    0  0.91394001438E+03 -0.60298456296E+01 -0.77764032634E+03  0.13416805552E+04  0.60004960310E+03 0.  0.
        -24    2    4    4    0    0 -0.15975093366E+02 -0.26893945826E+00 -0.26866498226E+03  0.27829615191E+03  0.70799714280E+02 0.  0.
         24    2    4    4    0    0  0.92991510775E+03 -0.57609061713E+01 -0.50897534408E+03  0.10633844033E+04  0.83397797639E+02 0.  0.
         11    1    5    5    0    0 -0.19799566622E+02  0.32226397180E+02 -0.11085283895E+03  0.11712777389E+03  0.00000000000E+00 0. -1.
        -12    1    5    5    0    0  0.38244732558E+01 -0.32495336638E+02 -0.15781214331E+03  0.16116837802E+03  0.00000000000E+00 0.  1.
         13    1    3    3    0    0 -0.73101796225E+03  0.91615190705E+01 -0.24652053112E+03  0.77152029579E+03  0.00000000000E+00 0. -1.
        -14    1    3    3    0    0 -0.18292205214E+03 -0.31316734410E+01 -0.10545768052E+03  0.21116724869E+03  0.00000000000E+00 0.  1.
          4    1    6    6  502    0  0.56323833958E+03 -0.14199182948E+02 -0.26309156619E+03  0.62181686707E+03  0.00000000000E+00 0. -1.
         -3    1    6    6    0  502  0.36667676817E+03  0.84382767764E+01 -0.24588377789E+03  0.44156753624E+03  0.00000000000E+00 0.  1.
<mgrwt>
<rscale>  0 0.95737889E+03</rscale>
<asrwt>0</asrwt>
<pdfrwt beam="1">  1        1 0.91903813E-01 0.95737889E+03</pdfrwt>
<pdfrwt beam="2">  1       -2 0.26569128E+00 0.95737889E+03</pdfrwt>
<totfact> 0.15696681E+00</totfact>
</mgrwt>
</event>
<event>
12    3  0.2269558E-007  0.5207727E+03  0.7818608E-02  0.1008495E+00
          1   -1    0    0  501    0  0.00000000000E+00  0.00000000000E+00  0.15707145956E+04  0.15707145956E+04  0.00000000000E+00 0. -1.
         -2   -1    0    0    0  501 -0.00000000000E+00 -0.00000000000E+00 -0.30426553752E+03  0.30426553752E+03  0.00000000000E+00 0.  1.
        -24    2    1    2    0    0 -0.44015293397E+03 -0.19853242996E+03  0.13649068295E+03  0.50743676169E+03  0.75581939328E+02 0.  0.
    5000000    2    1    2    0    0  0.44015293397E+03  0.19853242996E+03  0.11299583752E+04  0.13675433715E+04  0.60018264903E+03 0.  0.
        -24    2    4    4    0    0  0.89280070517E+02 -0.58901882130E+02 -0.19755860520E+02  0.13621695991E+03  0.82002459914E+02 0.  0.
         24    2    4    4    0    0  0.35087286346E+03  0.25743431209E+03  0.11497142357E+04  0.12313264116E+04  0.70268888594E+02 0.  0.
         11    1    3    3    0    0 -0.22996277975E+03 -0.14260673420E+03  0.62732558843E+02  0.27776777108E+03  0.00000000000E+00 0. -1.
        -12    1    3    3    0    0 -0.21019015422E+03 -0.55925695759E+02  0.73758124112E+02  0.22966899061E+03  0.00000000000E+00 0.  1.
         13    1    5    5    0    0  0.64387311898E+02 -0.19755354478E+02 -0.47268032491E+02  0.82281631362E+02  0.00000000000E+00 0. -1.
        -14    1    5    5    0    0  0.24892758619E+02 -0.39146527652E+02  0.27512171971E+02  0.53935328547E+02  0.00000000000E+00 0.  1.
          2    1    6    6  502    0  0.13920716179E+03  0.14097124993E+03  0.47488016814E+03  0.51455097054E+03  0.00000000000E+00 0. -1.
         -1    1    6    6    0  502  0.21166570167E+03  0.11646306216E+03  0.67483406756E+03  0.71677544102E+03  0.00000000000E+00 0.  1.
<mgrwt>
<rscale>  0 0.52077267E+03</rscale>
<asrwt>0</asrwt>
<pdfrwt beam="1">  1        1 0.24164839E+00 0.52077267E+03</pdfrwt>
<pdfrwt beam="2">  1       -2 0.46810084E-01 0.52077267E+03</pdfrwt>
<totfact> 0.23652075E+01</totfact>
</mgrwt>
</event>
<event>
12    3  0.2269558E-007  0.6935145E+03  0.7818608E-02  0.9728388E-01
         -2   -1    0    0    0  501 -0.00000000000E+00  0.00000000000E+00  0.34300641313E+03  0.34300641313E+03  0.00000000000E+00 0.  1.
          1   -1    0    0  501    0  0.00000000000E+00 -0.00000000000E+00 -0.15920610594E+04  0.15920610594E+04  0.00000000000E+00 0. -1.
        -24    2    1    2    0    0  0.50100078479E+02  0.56630853403E+03 -0.82777581596E+03  0.10075753346E+04  0.82340026127E+02 0.  0.
    5000000    2    1    2    0    0 -0.50100078479E+02 -0.56630853403E+03 -0.42127883028E+03  0.92749213786E+03  0.59962524912E+03 0.  0.
        -24    2    4    4    0    0 -0.25157219905E+03 -0.69211849782E+02 -0.21348777562E+03  0.34667310704E+03  0.80785898045E+02 0.  0.
         24    2    4    4    0    0  0.20147212057E+03 -0.49709668424E+03 -0.20779105466E+03  0.58081903082E+03  0.80482888314E+02 0.  0.
         11    1    3    3    0    0 -0.42197740587E+01  0.29756715015E+03 -0.38212759800E+03  0.48434028998E+03  0.00000000000E+00 0. -1.
        -12    1    3    3    0    0  0.54319852538E+02  0.26874138387E+03 -0.44564821796E+03  0.52323504466E+03  0.00000000000E+00 0.  1.
         13    1    5    5    0    0 -0.16177115359E+03 -0.34950867109E+01 -0.12981358562E+03  0.20744562848E+03  0.00000000000E+00 0. -1.
        -14    1    5    5    0    0 -0.89801045460E+02 -0.65716763071E+02 -0.83674189999E+02  0.13922747856E+03  0.00000000000E+00 0.  1.
          4    1    6    6  502    0  0.13879831886E+03 -0.23723205707E+03 -0.11340743226E+03  0.29733023377E+03  0.00000000000E+00 0. -1.
         -3    1    6    6    0  502  0.62673801715E+02 -0.25986462718E+03 -0.94383622399E+02  0.28348879705E+03  0.00000000000E+00 0.  1.
<mgrwt>
<rscale>  0 0.69351453E+03</rscale>
<asrwt>0</asrwt>
<pdfrwt beam="1">  1        1 0.24493247E+00 0.69351453E+03</pdfrwt>
<pdfrwt beam="2">  1       -2 0.52770218E-01 0.69351453E+03</pdfrwt>
<totfact> 0.17474055E+01</totfact>
</mgrwt>
</event>
<event>
12    3  0.2269558E-007  0.1571718E+04  0.7818608E-02  0.8838114E-01
          1   -1    0    0  501    0  0.00000000000E+00  0.00000000000E+00  0.15991349199E+04  0.15991349199E+04  0.00000000000E+00 0. -1.
         -2   -1    0    0    0  501 -0.00000000000E+00 -0.00000000000E+00 -0.15736101091E+04  0.15736101091E+04  0.00000000000E+00 0.  1.
        -24    2    1    2    0    0 -0.51683947167E+03  0.14290911627E+04 -0.15190673316E+03  0.15293521562E+04  0.80110993738E+02 0.  0.
    5000000    2    1    2    0    0  0.51683947167E+03 -0.14290911627E+04  0.17743154398E+03  0.16433928729E+04  0.59986130995E+03 0.  0.
        -24    2    4    4    0    0  0.62984509596E+03 -0.10181604230E+04  0.14750486272E+03  0.12089311363E+04  0.80008224382E+02 0.  0.
         24    2    4    4    0    0 -0.11300562429E+03 -0.41093073972E+03  0.29926681262E+02  0.43446173662E+03  0.78911661775E+02 0.  0.
         13    1    3    3    0    0 -0.83466939413E+02  0.21674935856E+03  0.52463490297E+01  0.23232421008E+03  0.00000000000E+00 0. -1.
        -14    1    3    3    0    0 -0.43337253225E+03  0.12123418041E+04 -0.15715308219E+03  0.12970279461E+04  0.00000000000E+00 0.  1.
         13    1    5    5    0    0  0.28676712466E+03 -0.45551859448E+03  0.26475290425E+02  0.53891883870E+03  0.00000000000E+00 0. -1.
        -14    1    5    5    0    0  0.34307797130E+03 -0.56264182847E+03  0.12102957229E+03  0.67001229758E+03  0.00000000000E+00 0.  1.
          2    1    6    6  502    0 -0.49049739746E+02 -0.15148579177E+03 -0.26333549956E+02  0.16139169102E+03  0.00000000000E+00 0. -1.
         -1    1    6    6    0  502 -0.63955884545E+02 -0.25944494795E+03  0.56260231218E+02  0.27307004560E+03  0.00000000000E+00 0.  1.
<mgrwt>
<rscale>  0 0.15717180E+04</rscale>
<asrwt>0</asrwt>
<pdfrwt beam="1">  1        1 0.24602076E+00 0.15717180E+04</pdfrwt>
<pdfrwt beam="2">  1       -2 0.24209386E+00 0.15717180E+04</pdfrwt>
<totfact> 0.32936117E-01</totfact>
</mgrwt>
</event>
<event>
12    3  0.2269558E-007  0.8904744E+03  0.7818608E-02  0.9437568E-01
         -2   -1    0    0    0  501 -0.00000000000E+00  0.00000000000E+00  0.49594945357E+03  0.49594945357E+03  0.00000000000E+00 0.  1.
          1   -1    0    0  501    0  0.00000000000E+00 -0.00000000000E+00 -0.27871396352E+04  0.27871396352E+04  0.00000000000E+00 0. -1.
        -24    2    1    2    0    0  0.39456847212E+03  0.68905083452E+03 -0.21305490823E+04  0.22750054757E+04  0.77040188754E+02 0.  0.
    5000000    2    1    2    0    0 -0.39456847212E+03 -0.68905083452E+03 -0.16064109931E+03  0.10080836130E+04  0.59995972895E+03 0.  0.
        -24    2    4    4    0    0  0.11235996449E+03 -0.35562304903E+03 -0.76779392297E+02  0.38920087221E+03  0.80558855652E+02 0.  0.
         24    2    4    4    0    0 -0.50692843661E+03 -0.33342778549E+03 -0.83861707014E+02  0.61888274084E+03  0.88501598970E+02 0.  0.
         11    1    5    5    0    0  0.49365573526E+02 -0.13609019839E+03 -0.69766320125E+02  0.16070109325E+03  0.00000000000E+00 0. -1.
        -12    1    5    5    0    0  0.62994390967E+02 -0.21953285064E+03 -0.70130721714E+01  0.22849977896E+03  0.00000000000E+00 0.  1.
         11    1    3    3    0    0  0.28733563755E+03  0.53371588353E+03 -0.17025538949E+04  0.18072366137E+04  0.00000000000E+00 0. -1.
        -12    1    3    3    0    0  0.10723283458E+03  0.15533495098E+03 -0.42799518740E+03  0.46776886199E+03  0.00000000000E+00 0.  1.
          4    1    6    6  502    0 -0.26581717699E+02 -0.45960960120E+02 -0.19790579703E+01  0.53131104275E+02  0.00000000000E+00 0. -1.
         -3    1    6    6    0  502 -0.48034671892E+03 -0.28746682537E+03 -0.81882649044E+02  0.56575163657E+03  0.00000000000E+00 0.  1.
<mgrwt>
<rscale>  0 0.89047435E+03</rscale>
<asrwt>0</asrwt>
<pdfrwt beam="1">  1        1 0.42879071E+00 0.89047435E+03</pdfrwt>
<pdfrwt beam="2">  1       -2 0.76299916E-01 0.89047435E+03</pdfrwt>
<totfact> 0.11922749E+00</totfact>
</mgrwt>
</event>
<event>
12    3  0.2269558E-007  0.9879172E+03  0.7818608E-02  0.9321897E-01
         -2   -1    0    0    0  501 -0.00000000000E+00  0.00000000000E+00  0.51016288826E+03  0.51016288826E+03  0.00000000000E+00 0.  1.
          1   -1    0    0  501    0  0.00000000000E+00 -0.00000000000E+00 -0.21061584650E+04  0.21061584650E+04  0.00000000000E+00 0. -1.
        -24    2    1    2    0    0 -0.44136845306E+03  0.83087845844E+03 -0.58667431776E+03  0.11116598686E+04  0.80223340062E+02 0.  0.
    5000000    2    1    2    0    0  0.44136845306E+03 -0.83087845844E+03 -0.10093212590E+04  0.15046614847E+04  0.60009303907E+03 0.  0.
        -24    2    4    4    0    0  0.17900561975E+03 -0.71877308573E+03 -0.44615577369E+03  0.86810420342E+03  0.76630104647E+02 0.  0.
         24    2    4    4    0    0  0.26236283331E+03 -0.11210537271E+03 -0.56316548529E+03  0.63655728124E+03  0.81534885691E+02 0.  0.
         11    1    3    3    0    0 -0.24564058197E+03  0.43054016041E+03 -0.26509435496E+03  0.56212022047E+03  0.00000000000E+00 0. -1.
        -12    1    3    3    0    0 -0.19572787109E+03  0.40033829803E+03 -0.32157996280E+03  0.54953964813E+03  0.00000000000E+00 0.  1.
         13    1    5    5    0    0  0.60435108009E+02 -0.35137723807E+03 -0.24672499846E+03  0.43357997022E+03  0.00000000000E+00 0. -1.
        -14    1    5    5    0    0  0.11857051174E+03 -0.36739584766E+03 -0.19943077523E+03  0.43452423321E+03  0.00000000000E+00 0.  1.
          2    1    6    6  502    0  0.54287532769E+02  0.25740745258E+01 -0.15535079635E+03  0.16458320692E+03  0.00000000000E+00 0. -1.
         -1    1    6    6    0  502  0.20807530054E+03 -0.11467944724E+03 -0.40781468894E+03  0.47197407432E+03  0.00000000000E+00 0.  1.
<mgrwt>
<rscale>  0 0.98791721E+03</rscale>
<asrwt>0</asrwt>
<pdfrwt beam="1">  1        1 0.32402438E+00 0.98791721E+03</pdfrwt>
<pdfrwt beam="2">  1       -2 0.78486598E-01 0.98791721E+03</pdfrwt>
<totfact> 0.32307914E+00</totfact>
</mgrwt>
</event>
<event>
12    3  0.2269558E-007  0.1059925E+04  0.7818608E-02  0.9245156E-01
         -2   -1    0    0    0  501 -0.00000000000E+00  0.00000000000E+00  0.72316676179E+03  0.72316676179E+03  0.00000000000E+00 0.  1.
          1   -1    0    0  501    0  0.00000000000E+00 -0.00000000000E+00 -0.16830270876E+04  0.16830270876E+04  0.00000000000E+00 0. -1.
        -24    2    1    2    0    0  0.10264485727E+03  0.10146088744E+04 -0.46652539521E+03  0.11242733379E+04  0.79858995414E+02 0.  0.
    5000000    2    1    2    0    0 -0.10264485727E+03 -0.10146088744E+04 -0.49333493057E+03  0.12819205115E+04  0.59997809070E+03 0.  0.
        -24    2    4    4    0    0  0.14602197414E+03 -0.37106420504E+03  0.35779724440E+02  0.40875611612E+03  0.82403353034E+02 0.  0.
         24    2    4    4    0    0 -0.24866683141E+03 -0.64354466936E+03 -0.52911465501E+03  0.87316439537E+03  0.80428904585E+02 0.  0.
         11    1    5    5    0    0  0.15287948611E+03 -0.33785996616E+03  0.45157282043E+02  0.37357820349E+03  0.00000000000E+00 0. -1.
        -12    1    5    5    0    0 -0.68575119679E+01 -0.33204238879E+02 -0.93775576027E+01  0.35177912623E+02  0.00000000000E+00 0.  1.
         13    1    3    3    0    0  0.50015399000E+02  0.67661604735E+03 -0.34600289282E+03  0.76159622997E+03  0.00000000000E+00 0. -1.
        -14    1    3    3    0    0  0.52629458268E+02  0.33799282705E+03 -0.12052250239E+03  0.36267710790E+03  0.00000000000E+00 0.  1.
          4    1    6    6  502    0 -0.23006227819E+03 -0.50679837876E+03 -0.42210543371E+03  0.69853149230E+03  0.00000000000E+00 0. -1.
         -3    1    6    6    0  502 -0.18604553213E+02 -0.13674629060E+03 -0.10700922129E+03  0.17463290307E+03  0.00000000000E+00 0.  1.
<mgrwt>
<rscale>  0 0.10599253E+04</rscale>
<asrwt>0</asrwt>
<pdfrwt beam="1">  1        1 0.25892724E+00 0.10599253E+04</pdfrwt>
<pdfrwt beam="2">  1       -2 0.11125643E+00 0.10599253E+04</pdfrwt>
<totfact> 0.27304355E+00</totfact>
</mgrwt>
</event>
<event>
12    3  0.2269558E-007  0.9807884E+03  0.7818608E-02  0.9329870E-01
          1   -1    0    0  501    0  0.00000000000E+00  0.00000000000E+00  0.34315971328E+04  0.34315971328E+04  0.00000000000E+00 0. -1.
         -2   -1    0    0    0  501 -0.00000000000E+00 -0.00000000000E+00 -0.53867350982E+03  0.53867350982E+03  0.00000000000E+00 0.  1.
        -24    2    1    2    0    0 -0.41295573269E+03 -0.82291313177E+03  0.27010116482E+04  0.28547222685E+04  0.79100233400E+02 0.  0.
    5000000    2    1    2    0    0  0.41295573269E+03  0.82291313177E+03  0.19191197474E+03  0.11155483741E+04  0.59991625187E+03 0.  0.
        -24    2    4    4    0    0 -0.75202488092E+02  0.29824644001E+03 -0.10637392060E+03  0.33521581161E+03  0.80298668577E+02 0.  0.
         24    2    4    4    0    0  0.48815822078E+03  0.52466669177E+03  0.29828589534E+03  0.78033256248E+03  0.79817584120E+02 0.  0.
         11    1    5    5    0    0 -0.62164946994E+02  0.95133907954E+02 -0.48964548254E+02  0.12374355766E+03  0.00000000000E+00 0. -1.
        -12    1    5    5    0    0 -0.13037541098E+02  0.20311253205E+03 -0.57409372347E+02  0.21147225394E+03  0.00000000000E+00 0.  1.
         13    1    3    3    0    0 -0.21426008641E+03 -0.50619061481E+03  0.15589284370E+04  0.16529955217E+04  0.00000000000E+00 0. -1.
        -14    1    3    3    0    0 -0.19869564628E+03 -0.31672251696E+03  0.11420832112E+04  0.12017267468E+04  0.00000000000E+00 0.  1.
          2    1    6    6  502    0  0.23649219223E+03  0.19772907494E+03  0.13727623154E+03  0.33744645176E+03  0.00000000000E+00 0. -1.
         -1    1    6    6    0  502  0.25166602855E+03  0.32693761683E+03  0.16100966380E+03  0.44288611071E+03  0.00000000000E+00 0.  1.
<mgrwt>
<rscale>  0 0.98078842E+03</rscale>
<asrwt>0</asrwt>
<pdfrwt beam="1">  1        1 0.52793801E+00 0.98078842E+03</pdfrwt>
<pdfrwt beam="2">  1       -2 0.82872850E-01 0.98078842E+03</pdfrwt>
<totfact> 0.32865493E-01</totfact>
</mgrwt>
</event>
<event>
12    3  0.2269558E-007  0.3776017E+03  0.7818608E-02  0.1051824E+00
         -4   -1    0    0    0  501 -0.00000000000E+00  0.00000000000E+00  0.12194104598E+04  0.12194104598E+04  0.00000000000E+00 0.  1.
          3   -1    0    0  501    0  0.00000000000E+00 -0.00000000000E+00 -0.13879728511E+03  0.13879728511E+03  0.00000000000E+00 0. -1.
        -24    2    1    2    0    0  0.90923197998E+02  0.12849496721E+03  0.40074022057E+03  0.43781635670E+03  0.79450948863E+02 0.  0.
    5000000    2    1    2    0    0 -0.90923197998E+02 -0.12849496721E+03  0.67987295409E+03  0.92039138818E+03  0.60009590001E+03 0.  0.
        -24    2    4    4    0    0 -0.26028833225E+02  0.22414781293E+03  0.17769745849E+03  0.29827429466E+03  0.80445173235E+02 0.  0.
         24    2    4    4    0    0 -0.64894364773E+02 -0.35264278014E+03  0.50217549559E+03  0.62211709353E+03  0.79254278844E+02 0.  0.
         11    1    5    5    0    0 -0.13536423398E+02  0.94580582860E+02  0.12620320011E+03  0.15829077399E+03  0.00000000000E+00 0. -1.
        -12    1    5    5    0    0 -0.12492409827E+02  0.12956723007E+03  0.51494258384E+02  0.13998352067E+03  0.00000000000E+00 0.  1.
         11    1    3    3    0    0  0.70194800972E+02  0.65364562968E+02  0.14703192789E+03  0.17555120049E+03  0.00000000000E+00 0. -1.
        -12    1    3    3    0    0  0.20728397026E+02  0.63130404241E+02  0.25370829269E+03  0.26226515621E+03  0.00000000000E+00 0.  1.
          2    1    6    6  502    0 -0.17118162591E+02 -0.27786399459E+03  0.38662074453E+03  0.47642106490E+03  0.00000000000E+00 0. -1.
         -1    1    6    6    0  502 -0.47776202181E+02 -0.74778785556E+02  0.11555475106E+03  0.14569602863E+03  0.00000000000E+00 0.  1.
<mgrwt>
<rscale>  0 0.37760165E+03</rscale>
<asrwt>0</asrwt>
<pdfrwt beam="1">  1        3 0.21353429E-01 0.37760165E+03</pdfrwt>
<pdfrwt beam="2">  1       -4 0.18760160E+00 0.37760165E+03</pdfrwt>
<totfact> 0.73873236E+00</totfact>
</mgrwt>
</event>
<event>
12    3  0.2269558E-007  0.4209939E+03  0.7818608E-02  0.1036743E+00
          1   -1    0    0  501    0  0.00000000000E+00  0.00000000000E+00  0.13942834651E+04  0.13942834651E+04  0.00000000000E+00 0. -1.
         -2   -1    0    0    0  501 -0.00000000000E+00 -0.00000000000E+00 -0.14718731055E+03  0.14718731055E+03  0.00000000000E+00 0.  1.
        -24    2    1    2    0    0 -0.18479105616E+03  0.11308702097E+03  0.16007133523E+03  0.28111919989E+03  0.80428623237E+02 0.  0.
    5000000    2    1    2    0    0  0.18479105616E+03 -0.11308702097E+03  0.10870248193E+04  0.12603515758E+04  0.59993893687E+03 0.  0.
        -24    2    4    4    0    0  0.39287308762E+03 -0.45936720894E+02  0.72267132404E+03  0.82785447400E+03  0.81423229056E+02 0.  0.
         24    2    4    4    0    0 -0.20808203146E+03 -0.67150300079E+02  0.36435349531E+03  0.43249710179E+03  0.80579022690E+02 0.  0.
         11    1    3    3    0    0 -0.53894050971E+02  0.72435420547E+02  0.88781183798E+02  0.12662368450E+03  0.00000000000E+00 0. -1.
        -12    1    3    3    0    0 -0.13089700519E+03  0.40651600425E+02  0.71290151429E+02  0.15449551539E+03  0.00000000000E+00 0.  1.
         13    1    5    5    0    0  0.19983236130E+03 -0.19336489207E+02  0.28346476001E+03  0.34736024902E+03  0.00000000000E+00 0. -1.
        -14    1    5    5    0    0  0.19304072632E+03 -0.26600231687E+02  0.43920656403E+03  0.48049422497E+03  0.00000000000E+00 0.  1.
          4    1    6    6  502    0 -0.95863513814E+02 -0.37508797557E+02  0.98780738966E+02  0.14266869862E+03  0.00000000000E+00 0. -1.
         -3    1    6    6    0  502 -0.11221851764E+03 -0.29641502522E+02  0.26557275634E+03  0.28982840317E+03  0.00000000000E+00 0.  1.
<mgrwt>
<rscale>  0 0.42099388E+03</rscale>
<asrwt>0</asrwt>
<pdfrwt beam="1">  1        1 0.21450514E+00 0.42099388E+03</pdfrwt>
<pdfrwt beam="2">  1       -2 0.22644203E-01 0.42099388E+03</pdfrwt>
<totfact> 0.12313499E+02</totfact>
</mgrwt>
</event>
<event>
12    3  0.2269558E-007  0.6565801E+03  0.7818608E-02  0.9794510E-01
         -2   -1    0    0    0  501 -0.00000000000E+00  0.00000000000E+00  0.16715696531E+04  0.16715696531E+04  0.00000000000E+00 0.  1.
          1   -1    0    0  501    0  0.00000000000E+00 -0.00000000000E+00 -0.38817026341E+03  0.38817026341E+03  0.00000000000E+00 0. -1.
        -24    2    1    2    0    0 -0.31989968641E+03 -0.56072740160E+03  0.24114057865E+03  0.69471022618E+03  0.87877707143E+02 0.  0.
    5000000    2    1    2    0    0  0.31989968641E+03  0.56072740160E+03  0.10422588110E+04  0.13650296903E+04  0.60020962838E+03 0.  0.
        -24    2    4    4    0    0  0.18912850930E+03  0.40402752529E+03  0.10520154664E+04  0.11453883452E+04  0.78549892369E+02 0.  0.
         24    2    4    4    0    0  0.13077117711E+03  0.15669987631E+03 -0.97566553777E+01  0.21964134510E+03  0.80567835731E+02 0.  0.
         11    1    3    3    0    0 -0.16595028708E+03 -0.24371467681E+03  0.70530767190E+02  0.30316815564E+03  0.00000000000E+00 0. -1.
        -12    1    3    3    0    0 -0.15394939933E+03 -0.31701272479E+03  0.17060981146E+03  0.39154207054E+03  0.00000000000E+00 0.  1.
         13    1    5    5    0    0  0.17089859695E+03  0.34200946905E+03  0.95622971125E+03  0.10298310871E+04  0.00000000000E+00 0. -1.
        -14    1    5    5    0    0  0.18229912351E+02  0.62018056239E+02  0.95785755109E+02  0.11555725804E+03  0.00000000000E+00 0.  1.
          4    1    6    6  502    0  0.14176349861E+03  0.14305193186E+03 -0.13013864575E+02  0.20181700973E+03  0.00000000000E+00 0. -1.
         -3    1    6    6    0  502 -0.10992321495E+02  0.13647944447E+02  0.32572091970E+01  0.17824335365E+02  0.00000000000E+00 0.  1.
<mgrwt>
<rscale>  0 0.65658006E+03</rscale>
<asrwt>0</asrwt>
<pdfrwt beam="1">  1        1 0.59718503E-01 0.65658006E+03</pdfrwt>
<pdfrwt beam="2">  1       -2 0.25716456E+00 0.65658006E+03</pdfrwt>
<totfact> 0.33267190E+00</totfact>
</mgrwt>
</event>
<event>
12    3  0.2269558E-007  0.7138477E+03  0.7818608E-02  0.9693839E-01
         -2   -1    0    0    0  501 -0.00000000000E+00  0.00000000000E+00  0.10552155434E+04  0.10552155434E+04  0.00000000000E+00 0.  1.
          1   -1    0    0  501    0  0.00000000000E+00 -0.00000000000E+00 -0.60566743693E+03  0.60566743693E+03  0.00000000000E+00 0. -1.
        -24    2    1    2    0    0  0.61811596707E+03  0.29044597930E+03  0.16042131378E+03  0.70720952594E+03  0.89353791317E+02 0.  0.
    5000000    2    1    2    0    0 -0.61811596707E+03 -0.29044597930E+03  0.28912679270E+03  0.95367345439E+03  0.59956028864E+03 0.  0.
        -24    2    4    4    0    0 -0.56686370931E+03 -0.29822840007E+03 -0.34569860029E+01  0.64569327693E+03  0.81444542963E+02 0.  0.
         24    2    4    4    0    0 -0.51252257763E+02  0.77824207690E+01  0.29258377870E+03  0.30798017747E+03  0.80988654476E+02 0.  0.
         11    1    3    3    0    0  0.40447464516E+03  0.14237273235E+03  0.96412052838E+02  0.43950542366E+03  0.00000000000E+00 0. -1.
        -12    1    3    3    0    0  0.21364132191E+03  0.14807324695E+03  0.64009260939E+02  0.26770410228E+03  0.00000000000E+00 0.  1.
         13    1    5    5    0    0 -0.53288753481E+03 -0.29971220553E+03  0.10308277020E+01  0.61138988666E+03  0.00000000000E+00 0. -1.
        -14    1    5    5    0    0 -0.33976174496E+02  0.14838054635E+01 -0.44878137049E+01  0.34303390268E+02  0.00000000000E+00 0.  1.
          2    1    6    6  502    0 -0.36572339567E+02 -0.33591135909E+02  0.11930868251E+03  0.12923026795E+03  0.00000000000E+00 0. -1.
         -1    1    6    6    0  502 -0.14679918195E+02  0.41373556678E+02  0.17327509620E+03  0.17874990952E+03  0.00000000000E+00 0.  1.
<mgrwt>
<rscale>  0 0.71384774E+03</rscale>
<asrwt>0</asrwt>
<pdfrwt beam="1">  1        1 0.93179606E-01 0.71384774E+03</pdfrwt>
<pdfrwt beam="2">  1       -2 0.16234085E+00 0.71384774E+03</pdfrwt>
<totfact> 0.73472005E+00</totfact>
</mgrwt>
</event>
<event>
12    3  0.2269558E-007  0.1515851E+04  0.7818608E-02  0.8873980E-01
         -4   -1    0    0    0  501 -0.00000000000E+00  0.00000000000E+00  0.29133622965E+04  0.29133622965E+04  0.00000000000E+00 0.  1.
          3   -1    0    0  501    0  0.00000000000E+00 -0.00000000000E+00 -0.83468115535E+03  0.83468115535E+03  0.00000000000E+00 0. -1.
        -24    2    1    2    0    0  0.14344034608E+04 -0.39365420533E+03  0.12396528341E+04  0.19379401229E+04  0.79974053944E+02 0.  0.
    5000000    2    1    2    0    0 -0.14344034608E+04  0.39365420533E+03  0.83902830712E+03  0.18101033290E+04  0.60002386612E+03 0.  0.
        -24    2    4    4    0    0 -0.51292781006E+03 -0.44721800727E+02  0.52288593688E+03  0.73887874908E+03  0.86238767739E+02 0.  0.
         24    2    4    4    0    0 -0.92147565070E+03  0.43837600605E+03  0.31614237024E+03  0.10712245799E+04  0.79279283889E+02 0.  0.
         13    1    5    5    0    0 -0.39596791673E+03 -0.32147593898E+00  0.41612340617E+03  0.57441220703E+03  0.00000000000E+00 0. -1.
        -14    1    5    5    0    0 -0.11695989333E+03 -0.44400324788E+02  0.10676253071E+03  0.16446654204E+03  0.00000000000E+00 0.  1.
         13    1    3    3    0    0  0.33292068178E+03 -0.91863918484E+02  0.33273827750E+03  0.47957264433E+03  0.00000000000E+00 0. -1.
        -14    1    3    3    0    0  0.11014827790E+04 -0.30179028684E+03  0.90691455656E+03  0.14583674786E+04  0.00000000000E+00 0.  1.
          4    1    6    6  502    0 -0.32724932369E+03  0.11635534637E+03  0.12004708155E+03  0.36748059578E+03  0.00000000000E+00 0. -1.
         -3    1    6    6    0  502 -0.59422632701E+03  0.32202065968E+03  0.19609528869E+03  0.70374398414E+03  0.00000000000E+00 0.  1.
<mgrwt>
<rscale>  0 0.15158515E+04</rscale>
<asrwt>0</asrwt>
<pdfrwt beam="1">  1        3 0.12841249E+00 0.15158515E+04</pdfrwt>
<pdfrwt beam="2">  1       -4 0.44820958E+00 0.15158515E+04</pdfrwt>
<totfact> 0.31257829E-03</totfact>
</mgrwt>
</event>
<event>
12    3  0.2269558E-007  0.1519752E+04  0.7818608E-02  0.8871423E-01
         -2   -1    0    0    0  501 -0.00000000000E+00  0.00000000000E+00  0.16158360237E+04  0.16158360237E+04  0.00000000000E+00 0.  1.
          1   -1    0    0  501    0  0.00000000000E+00 -0.00000000000E+00 -0.25686492956E+04  0.25686492956E+04  0.00000000000E+00 0. -1.
        -24    2    1    2    0    0 -0.12090935630E+04  0.82264669273E+03 -0.18557454760E+04  0.23641492132E+04  0.82191273280E+02 0.  0.
    5000000    2    1    2    0    0  0.12090935630E+04 -0.82264669273E+03  0.90293220411E+03  0.18203361061E+04  0.59973506570E+03 0.  0.
        -24    2    4    4    0    0  0.73643533370E+03 -0.81382653390E+03  0.60062687943E+03  0.12537390254E+04  0.80363347190E+02 0.  0.
         24    2    4    4    0    0  0.47265822926E+03 -0.88201588353E+01  0.30230532468E+03  0.56659708072E+03  0.78486595378E+02 0.  0.
         11    1    3    3    0    0 -0.58991751270E+03  0.35314839287E+03 -0.88674474037E+03  0.11220662609E+04  0.00000000000E+00 0. -1.
        -12    1    3    3    0    0 -0.61917605027E+03  0.46949829986E+03 -0.96900073560E+03  0.12420829523E+04  0.00000000000E+00 0.  1.
         13    1    5    5    0    0  0.55644671152E+03 -0.65671160701E+03  0.48996540817E+03  0.99043888188E+03  0.00000000000E+00 0. -1.
        -14    1    5    5    0    0  0.17998862218E+03 -0.15711492689E+03  0.11066147126E+03  0.26330014354E+03  0.00000000000E+00 0.  1.
          2    1    6    6  502    0  0.29511250122E+03  0.18069961016E+02  0.22280000685E+03  0.37021312095E+03  0.00000000000E+00 0. -1.
         -1    1    6    6    0  502  0.17754572804E+03 -0.26890119852E+02  0.79505317830E+02  0.19638395977E+03  0.00000000000E+00 0.  1.
<mgrwt>
<rscale>  0 0.15197518E+04</rscale>
<asrwt>0</asrwt>
<pdfrwt beam="1">  1        1 0.39517681E+00 0.15197518E+04</pdfrwt>
<pdfrwt beam="2">  1       -2 0.24859016E+00 0.15197518E+04</pdfrwt>
<totfact> 0.65429511E-02</totfact>
</mgrwt>
</event>
<event>
12    3  0.2269558E-007  0.2013212E+04  0.7818608E-02  0.8600469E-01
          1   -1    0    0  501    0  0.00000000000E+00  0.00000000000E+00  0.18348154391E+04  0.18348154391E+04  0.00000000000E+00 0. -1.
         -2   -1    0    0    0  501 -0.00000000000E+00 -0.00000000000E+00 -0.22693568812E+04  0.22693568812E+04  0.00000000000E+00 0.  1.
        -24    2    1    2    0    0 -0.10796040634E+04 -0.16676856008E+04 -0.23272571357E+02  0.19883629917E+04  0.79533499400E+02 0.  0.
    5000000    2    1    2    0    0  0.10796040634E+04  0.16676856008E+04 -0.41126887073E+03  0.21158093286E+04  0.60065533728E+03 0.  0.
        -24    2    4    4    0    0  0.10408349236E+04  0.12928789673E+04 -0.19257989819E+03  0.16728333820E+04  0.80069622511E+02 0.  0.
         24    2    4    4    0    0  0.38769139747E+02  0.37480663348E+03 -0.21868897253E+03  0.44297594658E+03  0.80123428784E+02 0.  0.
         11    1    3    3    0    0 -0.58915245552E+03 -0.97312831617E+03  0.60290414569E+01  0.11375920556E+04  0.00000000000E+00 0. -1.
        -12    1    3    3    0    0 -0.49045160787E+03 -0.69455728460E+03 -0.29301612814E+02  0.85077093613E+03  0.00000000000E+00 0.  1.
         11    1    5    5    0    0  0.46196035851E+03  0.63703326892E+03 -0.96453929570E+02  0.79279386922E+03  0.00000000000E+00 0. -1.
        -12    1    5    5    0    0  0.57887456513E+03  0.65584569837E+03 -0.96125968622E+02  0.88003951279E+03  0.00000000000E+00 0.  1.
          2    1    6    6  502    0  0.22279471212E+02  0.17411137865E+03 -0.56465596258E+02  0.18438956199E+03  0.00000000000E+00 0. -1.
         -1    1    6    6    0  502  0.16489668535E+02  0.20069525483E+03 -0.16222337628E+03  0.25858638458E+03  0.00000000000E+00 0.  1.
<mgrwt>
<rscale>  0 0.20132116E+04</rscale>
<asrwt>0</asrwt>
<pdfrwt beam="1">  1        1 0.28227930E+00 0.20132116E+04</pdfrwt>
<pdfrwt beam="2">  1       -2 0.34913183E+00 0.20132116E+04</pdfrwt>
<totfact> 0.47415473E-02</totfact>
</mgrwt>
</event>
<event>
12    3  0.2269558E-007  0.3036481E+03  0.7818608E-02  0.1083431E+00
          1   -1    0    0  501    0  0.00000000000E+00  0.00000000000E+00  0.89471496574E+03  0.89471496574E+03  0.00000000000E+00 0. -1.
         -2   -1    0    0    0  501 -0.00000000000E+00 -0.00000000000E+00 -0.19282525857E+03  0.19282525857E+03  0.00000000000E+00 0.  1.
        -24    2    1    2    0    0 -0.13105437195E+03 -0.52393018037E+01 -0.19365167889E+01  0.15347338459E+03  0.79672021384E+02 0.  0.
    5000000    2    1    2    0    0  0.13105437195E+03  0.52393018037E+01  0.70382622396E+03  0.93406683972E+03  0.59992233567E+03 0.  0.
        -24    2    4    4    0    0  0.13865626189E+03 -0.20138195857E+03  0.74762127021E+02  0.26754486634E+03  0.78807535628E+02 0.  0.
         24    2    4    4    0    0 -0.76018899400E+01  0.20662126037E+03  0.62906409694E+03  0.66652197338E+03  0.76024791801E+02 0.  0.
         11    1    5    5    0    0  0.88982893277E+02 -0.62174668442E+02  0.23192537000E+02  0.11100242549E+03  0.00000000000E+00 0. -1.
        -12    1    5    5    0    0  0.49673368610E+02 -0.13920729013E+03  0.51569590021E+02  0.15654244085E+03  0.00000000000E+00 0.  1.
         11    1    3    3    0    0 -0.10009899151E+03  0.96479870025E+01  0.31656690739E+02  0.10542787973E+03  0.00000000000E+00 0. -1.
        -12    1    3    3    0    0 -0.30955380433E+02 -0.14887288806E+02 -0.33593207528E+02  0.48045504866E+02  0.00000000000E+00 0.  1.
          4    1    6    6  502    0 -0.32336999441E+02  0.69009119135E+02  0.16297419465E+03  0.17991255703E+03  0.00000000000E+00 0. -1.
         -3    1    6    6    0  502  0.24735109501E+02  0.13761214124E+03  0.46608990229E+03  0.48660941635E+03  0.00000000000E+00 0.  1.
<mgrwt>
<rscale>  0 0.30364810E+03</rscale>
<asrwt>0</asrwt>
<pdfrwt beam="1">  1        1 0.13764845E+00 0.30364810E+03</pdfrwt>
<pdfrwt beam="2">  1       -2 0.29665425E-01 0.30364810E+03</pdfrwt>
<totfact> 0.17776022E+02</totfact>
</mgrwt>
</event>
<event>
12    3  0.2269558E-007  0.9349481E+03  0.7818608E-02  0.9382919E-01
          1   -1    0    0  501    0  0.00000000000E+00  0.00000000000E+00  0.13056268528E+04  0.13056268528E+04  0.00000000000E+00 0. -1.
         -2   -1    0    0    0  501 -0.00000000000E+00 -0.00000000000E+00 -0.70420673856E+03  0.70420673856E+03  0.00000000000E+00 0.  1.
        -24    2    1    2    0    0 -0.71217246782E+03  0.45053196608E+03  0.76381112254E+02  0.84973423928E+03  0.77752985175E+02 0.  0.
    5000000    2    1    2    0    0  0.71217246782E+03 -0.45053196608E+03  0.52503900199E+03  0.11600993521E+04  0.59999656391E+03 0.  0.
        -24    2    4    4    0    0  0.78987102558E+03 -0.43560798126E+03  0.42728029777E+03  0.10014056404E+04  0.81205008700E+02 0.  0.
         24    2    4    4    0    0 -0.77698557759E+02 -0.14923984816E+02  0.97758704219E+02  0.15869371164E+03  0.96783979379E+02 0.  0.
         11    1    5    5    0    0  0.38864126246E+03 -0.24241000967E+03  0.25235597285E+03  0.52296097437E+03  0.00000000000E+00 0. -1.
        -12    1    5    5    0    0  0.40122976312E+03 -0.19319797159E+03  0.17492432492E+03  0.47844466606E+03  0.00000000000E+00 0.  1.
         11    1    3    3    0    0 -0.30480523116E+03  0.20706871498E+03  0.70213404865E+02  0.37511811992E+03  0.00000000000E+00 0. -1.
        -12    1    3    3    0    0 -0.40736723666E+03  0.24346325110E+03  0.61677073888E+01  0.47461611936E+03  0.00000000000E+00 0.  1.
          4    1    6    6  502    0  0.19822864709E+02 -0.16713722870E+02  0.31405966830E+02  0.40726272232E+02  0.00000000000E+00 0. -1.
         -3    1    6    6    0  502 -0.97521422468E+02  0.17897380538E+01  0.66352737389E+02  0.11796743941E+03  0.00000000000E+00 0.  1.
<mgrwt>
<rscale>  0 0.93494813E+03</rscale>
<asrwt>0</asrwt>
<pdfrwt beam="1">  1        1 0.20086567E+00 0.93494813E+03</pdfrwt>
<pdfrwt beam="2">  1       -2 0.10833950E+00 0.93494813E+03</pdfrwt>
<totfact> 0.53909209E+00</totfact>
</mgrwt>
</event>
<event>
12    3  0.2269558E-007  0.5662275E+03  0.7818608E-02  0.9978062E-01
         -2   -1    0    0    0  501 -0.00000000000E+00  0.00000000000E+00  0.23382849643E+03  0.23382849643E+03  0.00000000000E+00 0.  1.
          1   -1    0    0  501    0  0.00000000000E+00 -0.00000000000E+00 -0.17537809113E+04  0.17537809113E+04  0.00000000000E+00 0. -1.
        -24    2    1    2    0    0 -0.41211692365E+03 -0.23532294149E+02 -0.16953194347E+03  0.45338649921E+03  0.80150547027E+02 0.  0.
    5000000    2    1    2    0    0  0.41211692365E+03  0.23532294149E+02 -0.13504204714E+04  0.15342229085E+04  0.59984194239E+03 0.  0.
        -24    2    4    4    0    0  0.32983724287E+03 -0.25162498398E+03 -0.68000064406E+03  0.80063214044E+03  0.80642476666E+02 0.  0.
         24    2    4    4    0    0  0.82279680781E+02  0.27515727813E+03 -0.67041982736E+03  0.73359076810E+03  0.78811144808E+02 0.  0.
         13    1    3    3    0    0 -0.33918969811E+03 -0.45580389830E+02 -0.12072877095E+03  0.36290861023E+03  0.00000000000E+00 0. -1.
        -14    1    3    3    0    0 -0.72927225533E+02  0.22048095681E+02 -0.48803172518E+02  0.90477888984E+02  0.00000000000E+00 0.  1.
         13    1    5    5    0    0  0.19188751381E+03 -0.12477020485E+03 -0.30417880075E+03  0.38067461802E+03  0.00000000000E+00 0. -1.
        -14    1    5    5    0    0  0.13794972905E+03 -0.12685477914E+03 -0.37582184331E+03  0.41995752242E+03  0.00000000000E+00 0.  1.
          4    1    6    6  502    0  0.22356462471E+02  0.20170422449E+03 -0.44905728748E+03  0.49278479383E+03  0.00000000000E+00 0. -1.
         -3    1    6    6    0  502  0.59923218310E+02  0.73453053641E+02 -0.22136253988E+03  0.24080597427E+03  0.00000000000E+00 0.  1.
<mgrwt>
<rscale>  0 0.56622750E+03</rscale>
<asrwt>0</asrwt>
<pdfrwt beam="1">  1        1 0.26981245E+00 0.56622750E+03</pdfrwt>
<pdfrwt beam="2">  1       -2 0.35973614E-01 0.56622750E+03</pdfrwt>
<totfact> 0.29588631E+01</totfact>
</mgrwt>
</event>
<event>
12    3  0.2269558E-007  0.7741229E+03  0.7818608E-02  0.9598247E-01
         -2   -1    0    0    0  501 -0.00000000000E+00  0.00000000000E+00  0.61891581843E+03  0.61891581843E+03  0.00000000000E+00 0.  1.
          1   -1    0    0  501    0  0.00000000000E+00 -0.00000000000E+00 -0.12173533306E+04  0.12173533306E+04  0.00000000000E+00 0. -1.
        -24    2    1    2    0    0  0.65418491277E+03 -0.10278038408E+03 -0.66298087877E+03  0.94025729590E+03  0.77578537220E+02 0.  0.
    5000000    2    1    2    0    0 -0.65418491277E+03  0.10278038408E+03  0.64543366583E+02  0.89601185315E+03  0.60012472650E+03 0.  0.
        -24    2    4    4    0    0 -0.68104314683E+03 -0.81550416989E+02  0.56538555866E+02  0.69347667095E+03  0.85106089605E+02 0.  0.
         24    2    4    4    0    0  0.26858234062E+02  0.18433080107E+03  0.80048107168E+01  0.20253518220E+03  0.79102554164E+02 0.  0.
         11    1    3    3    0    0  0.57889984387E+03 -0.10405033853E+03 -0.55553884484E+03  0.80905803890E+03  0.00000000000E+00 0. -1.
        -12    1    3    3    0    0  0.75285068904E+02  0.12699544526E+01 -0.10744203393E+03  0.13119925700E+03  0.00000000000E+00 0.  1.
         13    1    5    5    0    0 -0.36601674049E+03 -0.86454574819E+02  0.33030324538E+02  0.37753628986E+03  0.00000000000E+00 0. -1.
        -14    1    5    5    0    0 -0.31502640634E+03  0.49041578302E+01  0.23508231328E+02  0.31594038108E+03  0.00000000000E+00 0.  1.
          2    1    6    6  502    0 -0.13494509914E+00  0.14975818763E+03  0.31116089306E+02  0.15295667356E+03  0.00000000000E+00 0. -1.
         -3    1    6    6    0  502  0.26993179161E+02  0.34572613436E+02 -0.23111278589E+02  0.49578508641E+02  0.00000000000E+00 0.  1.
<mgrwt>
<rscale>  0 0.77412295E+03</rscale>
<asrwt>0</asrwt>
<pdfrwt beam="1">  1        1 0.18728513E+00 0.77412295E+03</pdfrwt>
<pdfrwt beam="2">  1       -2 0.95217819E-01 0.77412295E+03</pdfrwt>
<totfact> 0.86443058E+00</totfact>
</mgrwt>
</event>
<event>
12    3  0.2269558E-007  0.3496337E+03  0.7818608E-02  0.1062765E+00
         -2   -1    0    0    0  501 -0.00000000000E+00  0.00000000000E+00  0.18244942377E+03  0.18244942377E+03  0.00000000000E+00 0.  1.
          1   -1    0    0  501    0  0.00000000000E+00 -0.00000000000E+00 -0.15161688368E+04  0.15161688368E+04  0.00000000000E+00 0. -1.
        -24    2    1    2    0    0  0.11576444533E+03 -0.15259482915E+03 -0.92487252160E+03  0.94785745195E+03  0.79736938255E+02 0.  0.
    5000000    2    1    2    0    0 -0.11576444533E+03  0.15259482915E+03 -0.40884689140E+03  0.75076080858E+03  0.59983282872E+03 0.  0.
        -24    2    4    4    0    0 -0.14556552216E+03 -0.13251565416E+03  0.35434664583E+02  0.21591071080E+03  0.81314818742E+02 0.  0.
         24    2    4    4    0    0  0.29801076832E+02  0.28511048331E+03 -0.44428155598E+03  0.53485009778E+03  0.80637672564E+02 0.  0.
         11    1    5    5    0    0 -0.11088484290E+03 -0.77900063734E+02  0.57983799462E+02  0.14739738571E+03  0.00000000000E+00 0. -1.
        -12    1    5    5    0    0 -0.34680679257E+02 -0.54615590422E+02 -0.22549134879E+02  0.68513325088E+02  0.00000000000E+00 0.  1.
         11    1    3    3    0    0  0.64356759495E+02 -0.35384542367E+02 -0.23486403146E+03  0.24607919783E+03  0.00000000000E+00 0. -1.
        -12    1    3    3    0    0  0.51407685832E+02 -0.11721028678E+03 -0.69000849015E+03  0.70177825413E+03  0.00000000000E+00 0.  1.
          4    1    6    6  502    0 -0.25506753845E+02  0.14057912355E+03 -0.22211820112E+03  0.26410145728E+03  0.00000000000E+00 0. -1.
         -3    1    6    6    0  502  0.55307830677E+02  0.14453135975E+03 -0.22216335487E+03  0.27074864050E+03  0.00000000000E+00 0.  1.
<mgrwt>
<rscale>  0 0.34963374E+03</rscale>
<asrwt>0</asrwt>
<pdfrwt beam="1">  1        1 0.23325675E+00 0.34963374E+03</pdfrwt>
<pdfrwt beam="2">  1       -2 0.28069141E-01 0.34963374E+03</pdfrwt>
<totfact> 0.70280493E+01</totfact>
</mgrwt>
</event>
<event>
12    3  0.2269558E-007  0.9895880E+03  0.7818608E-02  0.9320039E-01
          1   -1    0    0  501    0  0.00000000000E+00  0.00000000000E+00  0.10650671567E+04  0.10650671567E+04  0.00000000000E+00 0. -1.
         -2   -1    0    0    0  501 -0.00000000000E+00 -0.00000000000E+00 -0.97818507273E+03  0.97818507273E+03  0.00000000000E+00 0.  1.
        -24    2    1    2    0    0 -0.20693938072E+03  0.90619974477E+03 -0.55172889591E+01  0.93295000278E+03  0.79645354526E+02 0.  0.
    5000000    2    1    2    0    0  0.20693938072E+03 -0.90619974477E+03  0.92399372895E+02  0.11103022266E+04  0.60017622878E+03 0.  0.
        -24    2    4    4    0    0  0.21424971666E+03 -0.94323926114E+03  0.17658298623E+03  0.98657792603E+03  0.80939534551E+02 0.  0.
         24    2    4    4    0    0 -0.73103359434E+01  0.37039516370E+02 -0.84183613340E+02  0.12372430058E+03  0.82434549891E+02 0.  0.
         11    1    5    5    0    0  0.19589085199E+03 -0.72168647514E+03  0.12230311389E+03  0.75773520834E+03  0.00000000000E+00 0. -1.
        -12    1    5    5    0    0  0.18358864673E+02 -0.22155278600E+03  0.54279872349E+02  0.22884271769E+03  0.00000000000E+00 0.  1.
         13    1    3    3    0    0 -0.84217044160E+02  0.22595893838E+03 -0.15688739050E+02  0.24165282720E+03  0.00000000000E+00 0. -1.
        -14    1    3    3    0    0 -0.12272233656E+03  0.68024080639E+03  0.10171450091E+02  0.69129717558E+03  0.00000000000E+00 0.  1.
          2    1    6    6  502    0  0.26782483364E+02  0.58863768720E+00 -0.11113032194E+01  0.26811991801E+02  0.00000000000E+00 0. -1.
         -1    1    6    6    0  502 -0.34092819307E+02  0.36450878683E+02 -0.83072310120E+02  0.96912308784E+02  0.00000000000E+00 0.  1.
<mgrwt>
<rscale>  0 0.98958803E+03</rscale>
<asrwt>0</asrwt>
<pdfrwt beam="1">  1        1 0.16385649E+00 0.98958803E+03</pdfrwt>
<pdfrwt beam="2">  1       -2 0.15049001E+00 0.98958803E+03</pdfrwt>
<totfact> 0.34997050E+00</totfact>
</mgrwt>
</event>
<event>
12    3  0.2269558E-007  0.6951890E+03  0.7818608E-02  0.9725495E-01
         -2   -1    0    0    0  501 -0.00000000000E+00  0.00000000000E+00  0.21965223245E+04  0.21965223245E+04  0.00000000000E+00 0.  1.
          1   -1    0    0  501    0  0.00000000000E+00 -0.00000000000E+00 -0.29267199331E+03  0.29267199331E+03  0.00000000000E+00 0. -1.
        -24    2    1    2    0    0 -0.62421504114E+03 -0.19387340577E+03  0.11491479888E+04  0.13243808265E+04  0.78817245809E+02 0.  0.
    5000000    2    1    2    0    0  0.62421504114E+03  0.19387340577E+03  0.75470234239E+03  0.11648134914E+04  0.59998627404E+03 0.  0.
        -24    2    4    4    0    0  0.16940832104E+02  0.11575366269E+03 -0.50982157909E+02  0.14972704024E+03  0.78314136243E+02 0.  0.
         24    2    4    4    0    0  0.60727420904E+03  0.78119743084E+02  0.80568450030E+03  0.10150864511E+04  0.79927029514E+02 0.  0.
         13    1    5    5    0    0  0.27283639883E+02  0.66370668798E+02 -0.65570649692E+02  0.97205826898E+02  0.00000000000E+00 0. -1.
        -14    1    5    5    0    0 -0.10342807778E+02  0.49382993889E+02  0.14588491783E+02  0.52521213339E+02  0.00000000000E+00 0.  1.
         13    1    3    3    0    0 -0.16698903167E+03 -0.36693493662E+02  0.36681666577E+03  0.40470509691E+03  0.00000000000E+00 0. -1.
        -14    1    3    3    0    0 -0.45722600947E+03 -0.15717991211E+03  0.78233132306E+03  0.91967572957E+03  0.00000000000E+00 0.  1.
          2    1    6    6  502    0  0.42684080412E+03  0.35573624726E+02  0.50888060215E+03  0.66514511355E+03  0.00000000000E+00 0. -1.
         -1    1    6    6    0  502  0.18043340492E+03  0.42546118358E+02  0.29680389815E+03  0.34994133759E+03  0.00000000000E+00 0.  1.
<mgrwt>
<rscale>  0 0.69518902E+03</rscale>
<asrwt>0</asrwt>
<pdfrwt beam="1">  1        1 0.45026462E-01 0.69518902E+03</pdfrwt>
<pdfrwt beam="2">  1       -2 0.33792650E+00 0.69518902E+03</pdfrwt>
<totfact> 0.15584193E+00</totfact>
</mgrwt>
</event>
<event>
12    3  0.2269558E-007  0.6197186E+03  0.7818608E-02  0.9865320E-01
          1   -1    0    0  501    0  0.00000000000E+00  0.00000000000E+00  0.10651169064E+04  0.10651169064E+04  0.00000000000E+00 0. -1.
         -2   -1    0    0    0  501 -0.00000000000E+00 -0.00000000000E+00 -0.45591970993E+03  0.45591970993E+03  0.00000000000E+00 0.  1.
        -24    2    1    2    0    0 -0.45306593616E+03 -0.16860467040E+03  0.56603732330E+03  0.74952661976E+03  0.87724711295E+02 0.  0.
    5000000    2    1    2    0    0  0.45306593616E+03  0.16860467040E+03  0.43159873142E+02  0.77150999654E+03  0.59972378870E+03 0.  0.
        -24    2    4    4    0    0  0.50917404026E+03 -0.53745868587E+02 -0.33061617268E+02  0.51866986181E+03  0.76016664979E+02 0.  0.
         24    2    4    4    0    0 -0.56108104097E+02  0.22235053899E+03  0.76221490409E+02  0.25284013473E+03  0.74367577592E+02 0.  0.
         11    1    5    5    0    0  0.23488753894E+03 -0.48205588685E+02  0.14560658036E+02  0.24022478535E+03  0.00000000000E+00 0. -1.
        -12    1    5    5    0    0  0.27428650131E+03 -0.55402799015E+01 -0.47622275303E+02  0.27844507647E+03  0.00000000000E+00 0.  1.
         13    1    3    3    0    0 -0.12683674384E+02 -0.22021140884E+02  0.45497078675E+02  0.52113246010E+02  0.00000000000E+00 0. -1.
        -14    1    3    3    0    0 -0.44038226178E+03 -0.14658352952E+03  0.52054024463E+03  0.69741337375E+03  0.00000000000E+00 0.  1.
          2    1    6    6  502    0 -0.64587949862E+01  0.13601421431E+03  0.17668750322E+02  0.13730902106E+03  0.00000000000E+00 0. -1.
         -1    1    6    6    0  502 -0.49649309111E+02  0.86336324682E+02  0.58552740087E+02  0.11553111367E+03  0.00000000000E+00 0.  1.
<mgrwt>
<rscale>  0 0.61971856E+03</rscale>
<asrwt>0</asrwt>
<pdfrwt beam="1">  1        1 0.16386414E+00 0.61971856E+03</pdfrwt>
<pdfrwt beam="2">  1       -2 0.70141494E-01 0.61971856E+03</pdfrwt>
<totfact> 0.22736109E+01</totfact>
</mgrwt>
</event>
<event>
12    3  0.2269558E-007  0.3459304E+03  0.7818608E-02  0.1064298E+00
         -2   -1    0    0    0  501 -0.00000000000E+00  0.00000000000E+00  0.18852695576E+03  0.18852695576E+03  0.00000000000E+00 0.  1.
          1   -1    0    0  501    0  0.00000000000E+00 -0.00000000000E+00 -0.73263373724E+03  0.73263373724E+03  0.00000000000E+00 0. -1.
        -24    2    1    2    0    0 -0.92868928938E+02 -0.92580372879E+01 -0.35040839496E+02  0.12884508866E+03  0.81626265522E+02 0.  0.
    5000000    2    1    2    0    0  0.92868928938E+02  0.92580372879E+01 -0.50906594199E+03  0.79231560434E+03  0.59992127347E+03 0.  0.
        -24    2    4    4    0    0  0.31442154499E+03  0.92324103256E+02 -0.19100400763E+03  0.38796929820E+03  0.81565908477E+02 0.  0.
         24    2    4    4    0    0 -0.22155261605E+03 -0.83066065968E+02 -0.31806193436E+03  0.40434630613E+03  0.79668112812E+02 0.  0.
         11    1    3    3    0    0 -0.39879003235E+02 -0.44750042637E+02 -0.12732029059E+02  0.61278101954E+02  0.00000000000E+00 0. -1.
        -12    1    3    3    0    0 -0.52989925703E+02  0.35492005349E+02 -0.22308810437E+02  0.67566986708E+02  0.00000000000E+00 0.  1.
         13    1    5    5    0    0  0.10934635705E+03  0.21657963181E+02 -0.23520443790E+02  0.11392499482E+03  0.00000000000E+00 0. -1.
        -14    1    5    5    0    0  0.20507518794E+03  0.70666140074E+02 -0.16748356384E+03  0.27404430338E+03  0.00000000000E+00 0.  1.
          2    1    6    6  502    0 -0.11326582586E+03 -0.21796781684E+02 -0.97143186644E+02  0.15080134519E+03  0.00000000000E+00 0. -1.
         -1    1    6    6    0  502 -0.10828679019E+03 -0.61269284284E+02 -0.22091874772E+03  0.25354496094E+03  0.00000000000E+00 0.  1.
<mgrwt>
<rscale>  0 0.34593041E+03</rscale>
<asrwt>0</asrwt>
<pdfrwt beam="1">  1        1 0.11271288E+00 0.34593041E+03</pdfrwt>
<pdfrwt beam="2">  1       -2 0.29004146E-01 0.34593041E+03</pdfrwt>
<totfact> 0.25204461E+02</totfact>
</mgrwt>
</event>
<event>
12    3  0.2269558E-007  0.1517138E+04  0.7818608E-02  0.8873135E-01
         -2   -1    0    0    0  501 -0.00000000000E+00  0.00000000000E+00  0.16273058228E+04  0.16273058228E+04  0.00000000000E+00 0.  1.
          1   -1    0    0  501    0  0.00000000000E+00 -0.00000000000E+00 -0.15743274692E+04  0.15743274692E+04  0.00000000000E+00 0. -1.
        -24    2    1    2    0    0  0.28865542724E+03 -0.14858068322E+04 -0.27612218100E+03  0.15406279488E+04  0.79668811930E+02 0.  0.
    5000000    2    1    2    0    0 -0.28865542724E+03  0.14858068322E+04  0.32910053466E+03  0.16610053432E+04  0.59973968501E+03 0.  0.
        -24    2    4    4    0    0 -0.16537960275E+03  0.95750246890E+03  0.48787448887E+03  0.10902954589E+04  0.81001727987E+02 0.  0.
         24    2    4    4    0    0 -0.12327582448E+03  0.52830436330E+03 -0.15877395421E+03  0.57070988421E+03  0.78728484145E+02 0.  0.
         11    1    5    5    0    0 -0.15349970334E+03  0.67508784222E+03  0.35219887342E+03  0.77675594628E+03  0.00000000000E+00 0. -1.
        -12    1    5    5    0    0 -0.11879899416E+02  0.28241462668E+03  0.13567561545E+03  0.31353951266E+03  0.00000000000E+00 0.  1.
         11    1    3    3    0    0  0.24383655167E+03 -0.13632258710E+04 -0.24365139821E+03  0.14061319438E+04  0.00000000000E+00 0. -1.
        -12    1    3    3    0    0  0.44818875570E+02 -0.12258096116E+03 -0.32470782785E+02  0.13449600508E+03  0.00000000000E+00 0.  1.
          2    1    6    6  502    0 -0.34518073520E+02  0.83718334659E+02 -0.53886371919E+02  0.10537550966E+03  0.00000000000E+00 0. -1.
         -1    1    6    6    0  502 -0.88757750964E+02  0.44458602864E+03 -0.10488758229E+03  0.46533437455E+03  0.00000000000E+00 0.  1.
<mgrwt>
<rscale>  0 0.15171385E+04</rscale>
<asrwt>0</asrwt>
<pdfrwt beam="1">  1        1 0.24220423E+00 0.15171385E+04</pdfrwt>
<pdfrwt beam="2">  1       -2 0.25035474E+00 0.15171385E+04</pdfrwt>
<totfact> 0.30632870E-01</totfact>
</mgrwt>
</event>
<event>
12    3  0.2269558E-007  0.7566867E+03  0.7818608E-02  0.9624918E-01
          1   -1    0    0  501    0  0.00000000000E+00  0.00000000000E+00  0.92091807824E+03  0.92091807824E+03  0.00000000000E+00 0. -1.
         -2   -1    0    0    0  501 -0.00000000000E+00 -0.00000000000E+00 -0.85799053147E+03  0.85799053147E+03  0.00000000000E+00 0.  1.
        -24    2    1    2    0    0 -0.52044459981E+03 -0.38166445677E+03 -0.41978517773E+03  0.77414016459E+03  0.80889183147E+02 0.  0.
    5000000    2    1    2    0    0  0.52044459981E+03  0.38166445677E+03  0.48271272450E+03  0.10047684451E+04  0.60001476222E+03 0.  0.
        -24    2    4    4    0    0  0.30801731231E+03 -0.11015198033E+03  0.23185807207E+03  0.40832906069E+03  0.77242040193E+02 0.  0.
         24    2    4    4    0    0  0.21242728750E+03  0.49181643710E+03  0.25085465243E+03  0.59643938443E+03  0.76178227682E+02 0.  0.
         11    1    5    5    0    0  0.14288182076E+03 -0.78071514644E+02  0.78757454901E+02  0.18086766655E+03  0.00000000000E+00 0. -1.
        -12    1    5    5    0    0  0.16513549155E+03 -0.32080465685E+02  0.15310061717E+03  0.22746139414E+03  0.00000000000E+00 0.  1.
         11    1    3    3    0    0 -0.13833443964E+03 -0.88803037353E+02 -0.68079673659E+02  0.17792481164E+03  0.00000000000E+00 0. -1.
        -12    1    3    3    0    0 -0.38211016017E+03 -0.29286141942E+03 -0.35170550407E+03  0.59621535294E+03  0.00000000000E+00 0.  1.
          2    1    6    6  502    0  0.17436834320E+03  0.37284570973E+03  0.22424670959E+03  0.46872681717E+03  0.00000000000E+00 0. -1.
         -1    1    6    6    0  502  0.38058944307E+02  0.11897072738E+03  0.26607942838E+02  0.12771256726E+03  0.00000000000E+00 0.  1.
<mgrwt>
<rscale>  0 0.75668670E+03</rscale>
<asrwt>0</asrwt>
<pdfrwt beam="1">  1        1 0.14167970E+00 0.75668670E+03</pdfrwt>
<pdfrwt beam="2">  1       -2 0.13199854E+00 0.75668670E+03</pdfrwt>
<totfact> 0.65535007E+00</totfact>
</mgrwt>
</event>
<event>
12    3  0.2269558E-007  0.5148385E+03  0.7818608E-02  0.1009977E+00
          1   -1    0    0  501    0  0.00000000000E+00  0.00000000000E+00  0.11093349119E+04  0.11093349119E+04  0.00000000000E+00 0. -1.
         -2   -1    0    0    0  501 -0.00000000000E+00 -0.00000000000E+00 -0.40467125445E+03  0.40467125445E+03  0.00000000000E+00 0.  1.
        -24    2    1    2    0    0  0.29856038464E+02 -0.35654299083E+03  0.72805022940E+03  0.81502894058E+03  0.78744841796E+02 0.  0.
    5000000    2    1    2    0    0 -0.29856038464E+02  0.35654299083E+03 -0.23386571946E+02  0.69897722577E+03  0.60000661918E+03 0.  0.
        -24    2    4    4    0    0  0.13747496213E+03 -0.10426764093E+03 -0.64965262238E+02  0.20089079462E+03  0.79784208376E+02 0.  0.
         24    2    4    4    0    0 -0.16733100060E+03  0.46081063176E+03  0.41578690292E+02  0.49808643115E+03  0.77557741725E+02 0.  0.
         11    1    5    5    0    0  0.96092224019E+02 -0.83151126881E+02 -0.79203449552E+01  0.12732068678E+03  0.00000000000E+00 0. -1.
        -12    1    5    5    0    0  0.41382738115E+02 -0.21116514053E+02 -0.57044917282E+02  0.73570107839E+02  0.00000000000E+00 0.  1.
         13    1    3    3    0    0 -0.21064660363E+02 -0.87168991553E+02  0.14068204763E+03  0.16683402389E+03  0.00000000000E+00 0. -1.
        -14    1    3    3    0    0  0.50920698827E+02 -0.26937399928E+03  0.58736818177E+03  0.64819491668E+03  0.00000000000E+00 0.  1.
          4    1    6    6  502    0 -0.12811448772E+03  0.28952987763E+03  0.56998744977E+02  0.32169819541E+03  0.00000000000E+00 0. -1.
         -1    1    6    6    0  502 -0.39216512874E+02  0.17128075413E+03 -0.15420054685E+02  0.17638823573E+03  0.00000000000E+00 0.  1.
<mgrwt>
<rscale>  0 0.51483853E+03</rscale>
<asrwt>0</asrwt>
<pdfrwt beam="1">  1        1 0.17066691E+00 0.51483853E+03</pdfrwt>
<pdfrwt beam="2">  1       -2 0.62257116E-01 0.51483853E+03</pdfrwt>
<totfact> 0.27629408E+01</totfact>
</mgrwt>
</event>
<event>
12    3  0.2269558E-007  0.5624111E+03  0.7818608E-02  0.9986614E-01
         -2   -1    0    0    0  501 -0.00000000000E+00  0.00000000000E+00  0.33046561519E+03  0.33046561519E+03  0.00000000000E+00 0.  1.
          1   -1    0    0  501    0  0.00000000000E+00 -0.00000000000E+00 -0.12634840508E+04  0.12634840508E+04  0.00000000000E+00 0. -1.
        -24    2    1    2    0    0  0.37428549659E+02  0.48335523189E+03 -0.20713562404E+03  0.53476181556E+03  0.89620623240E+02 0.  0.
    5000000    2    1    2    0    0 -0.37428549659E+02 -0.48335523189E+03 -0.72588281158E+03  0.10591878504E+04  0.59994988944E+03 0.  0.
        -24    2    4    4    0    0 -0.24967202402E+02  0.48893951880E+02  0.54673224359E+02  0.11099023558E+03  0.79471323163E+02 0.  0.
         24    2    4    4    0    0 -0.12461347256E+02 -0.53224918377E+03 -0.78055603594E+03  0.94819761486E+03  0.79790430390E+02 0.  0.
         11    1    3    3    0    0  0.61777866380E+02  0.36389648906E+03 -0.13447734178E+03  0.39283751728E+03  0.00000000000E+00 0. -1.
        -12    1    3    3    0    0 -0.24349316721E+02  0.11945874282E+03 -0.72658282261E+02  0.14192429828E+03  0.00000000000E+00 0.  1.
         13    1    5    5    0    0 -0.20260535951E+02 -0.19001703402E+02  0.97321389978E+01  0.29432440923E+02  0.00000000000E+00 0. -1.
        -14    1    5    5    0    0 -0.47066664515E+01  0.67895655282E+02  0.44941085361E+02  0.81557794653E+02  0.00000000000E+00 0.  1.
          2    1    6    6  502    0 -0.43356696171E+02 -0.22268586101E+03 -0.31183995902E+03  0.38563318820E+03  0.00000000000E+00 0. -1.
         -1    1    6    6    0  502  0.30895348915E+02 -0.30956332276E+03 -0.46871607692E+03  0.56256442666E+03  0.00000000000E+00 0.  1.
<mgrwt>
<rscale>  0 0.56241114E+03</rscale>
<asrwt>0</asrwt>
<pdfrwt beam="1">  1        1 0.19438216E+00 0.56241114E+03</pdfrwt>
<pdfrwt beam="2">  1       -2 0.50840864E-01 0.56241114E+03</pdfrwt>
<totfact> 0.32347780E+01</totfact>
</mgrwt>
</event>
<event>
12    3  0.2269558E-007  0.8493956E+03  0.7818608E-02  0.9491148E-01
          3   -1    0    0  501    0  0.00000000000E+00  0.00000000000E+00  0.61803742524E+03  0.61803742524E+03  0.00000000000E+00 0. -1.
         -4   -1    0    0    0  501 -0.00000000000E+00 -0.00000000000E+00 -0.16038603658E+04  0.16038603658E+04  0.00000000000E+00 0.  1.
        -24    2    1    2    0    0 -0.54939713411E+02  0.76230008669E+03  0.88257871272E+02  0.77352035775E+03  0.80152964656E+02 0.  0.
    5000000    2    1    2    0    0  0.54939713411E+02 -0.76230008669E+03 -0.10740808119E+04  0.14483774333E+04  0.60002317010E+03 0.  0.
        -24    2    4    4    0    0  0.25996764006E+03 -0.20926263010E+03 -0.22212874486E+03  0.40835503976E+03  0.77708667291E+02 0.  0.
         24    2    4    4    0    0 -0.20502792664E+03 -0.55303745659E+03 -0.85195206702E+03  0.10400223936E+04  0.89091949866E+02 0.  0.
         11    1    5    5    0    0  0.26850512288E+02 -0.54146366044E+02 -0.22584913288E+02  0.64520208262E+02  0.00000000000E+00 0. -1.
        -12    1    5    5    0    0  0.23311712777E+03 -0.15511626405E+03 -0.19954383157E+03  0.34383483150E+03  0.00000000000E+00 0.  1.
         13    1    3    3    0    0  0.19054419507E+02  0.26051861580E+03  0.25974544018E+02  0.26250275621E+03  0.00000000000E+00 0. -1.
        -14    1    3    3    0    0 -0.73994132918E+02  0.50178147089E+03  0.62283327253E+02  0.51101760154E+03  0.00000000000E+00 0.  1.
          2    1    6    6  502    0 -0.75986554750E+02 -0.22047084462E+03 -0.26333956906E+03  0.35175144416E+03  0.00000000000E+00 0. -1.
         -1    1    6    6    0  502 -0.12904137189E+03 -0.33256661197E+03 -0.58861249795E+03  0.68827094941E+03  0.00000000000E+00 0.  1.
<mgrwt>
<rscale>  0 0.84939563E+03</rscale>
<asrwt>0</asrwt>
<pdfrwt beam="1">  1        3 0.95082682E-01 0.84939563E+03</pdfrwt>
<pdfrwt beam="2">  1       -4 0.24674775E+00 0.84939563E+03</pdfrwt>
<totfact> 0.14694399E-01</totfact>
</mgrwt>
</event>
<event>
12    3  0.2269558E-007  0.1912468E+04  0.7818608E-02  0.8648675E-01
          1   -1    0    0  501    0  0.00000000000E+00  0.00000000000E+00  0.43425261641E+04  0.43425261641E+04  0.00000000000E+00 0. -1.
         -2   -1    0    0    0  501 -0.00000000000E+00 -0.00000000000E+00 -0.92217063890E+03  0.92217063890E+03  0.00000000000E+00 0.  1.
        -24    2    1    2    0    0  0.10405622775E+04 -0.15877516009E+04  0.22890055886E+04  0.29748009827E+04  0.78544909692E+02 0.  0.
    5000000    2    1    2    0    0 -0.10405622775E+04  0.15877516009E+04  0.11313499366E+04  0.22898958203E+04  0.59995432266E+03 0.  0.
        -24    2    4    4    0    0 -0.45535571149E+03  0.45284635652E+03  0.11845847343E+03  0.65797204376E+03  0.80474553995E+02 0.  0.
         24    2    4    4    0    0 -0.58520656598E+03  0.11349052443E+04  0.10128914632E+04  0.16319237765E+04  0.82155082904E+02 0.  0.
         13    1    3    3    0    0  0.94132349193E+03 -0.14687407924E+04  0.21206632411E+04  0.27459974533E+04  0.00000000000E+00 0. -1.
        -14    1    3    3    0    0  0.99238785536E+02 -0.11901080847E+03  0.16834234747E+03  0.22880352934E+03  0.00000000000E+00 0.  1.
         13    1    5    5    0    0 -0.19294915697E+03  0.24834210918E+03  0.53590485353E+02  0.31902213166E+03  0.00000000000E+00 0. -1.
        -14    1    5    5    0    0 -0.26240655452E+03  0.20450424734E+03  0.64867988073E+02  0.33894991210E+03  0.00000000000E+00 0.  1.
          4    1    6    6  502    0 -0.25000135307E+03  0.42134722878E+03  0.42333789349E+03  0.64749450639E+03  0.00000000000E+00 0. -1.
         -3    1    6    6    0  502 -0.33520521291E+03  0.71355801556E+03  0.58955356968E+03  0.98442927011E+03  0.00000000000E+00 0.  1.
<mgrwt>
<rscale>  0 0.19124685E+04</rscale>
<asrwt>0</asrwt>
<pdfrwt beam="1">  1        1 0.66808094E+00 0.19124685E+04</pdfrwt>
<pdfrwt beam="2">  1       -2 0.14187241E+00 0.19124685E+04</pdfrwt>
<totfact> 0.12900504E-02</totfact>
</mgrwt>
</event>
<event>
12    3  0.2269558E-007  0.1654125E+04  0.7818608E-02  0.8787970E-01
          1   -1    0    0  501    0  0.00000000000E+00  0.00000000000E+00  0.27288124312E+04  0.27288124312E+04  0.00000000000E+00 0. -1.
         -2   -1    0    0    0  501 -0.00000000000E+00 -0.00000000000E+00 -0.12513281038E+04  0.12513281038E+04  0.00000000000E+00 0.  1.
        -24    2    1    2    0    0  0.38947155946E+03  0.15587190252E+04 -0.15017973693E+03  0.16156707650E+04  0.80901003117E+02 0.  0.
    5000000    2    1    2    0    0 -0.38947155946E+03 -0.15587190252E+04  0.16276640643E+04  0.23644697700E+04  0.60011156620E+03 0.  0.
        -24    2    4    4    0    0 -0.15219433346E+01 -0.10827287734E+04  0.11591709370E+04  0.15882282080E+04  0.80546053340E+02 0.  0.
         24    2    4    4    0    0 -0.38794961613E+03 -0.47599025182E+03  0.46849312734E+03  0.77624156196E+03  0.77417876925E+02 0.  0.
         11    1    5    5    0    0  0.19846976251E+01 -0.22459191910E+03  0.19458752043E+03  0.29716960183E+03  0.00000000000E+00 0. -1.
        -12    1    5    5    0    0 -0.35066409597E+01 -0.85813685426E+03  0.96458341654E+03  0.12910586062E+04  0.00000000000E+00 0.  1.
         11    1    3    3    0    0  0.82055115690E+02  0.31475026324E+03  0.19864444478E+01  0.32527636893E+03  0.00000000000E+00 0. -1.
        -12    1    3    3    0    0  0.30741644377E+03  0.12439687619E+04 -0.15216618138E+03  0.12903943960E+04  0.00000000000E+00 0.  1.
          4    1    6    6  502    0 -0.24921708391E+03 -0.36090752236E+03  0.32640497836E+03  0.54672077380E+03  0.00000000000E+00 0. -1.
         -3    1    6    6    0  502 -0.13873253222E+03 -0.11508272946E+03  0.14208814898E+03  0.22952078815E+03  0.00000000000E+00 0.  1.
<mgrwt>
<rscale>  0 0.16541253E+04</rscale>
<asrwt>0</asrwt>
<pdfrwt beam="1">  1        1 0.41981730E+00 0.16541253E+04</pdfrwt>
<pdfrwt beam="2">  1       -2 0.19251202E+00 0.16541253E+04</pdfrwt>
<totfact> 0.11347178E-01</totfact>
</mgrwt>
</event>
<event>
12    3  0.2269558E-007  0.8406323E+03  0.7818608E-02  0.9502997E-01
          1   -1    0    0  501    0  0.00000000000E+00  0.00000000000E+00  0.82991643529E+03  0.82991643529E+03  0.00000000000E+00 0. -1.
         -2   -1    0    0    0  501 -0.00000000000E+00 -0.00000000000E+00 -0.11513717147E+04  0.11513717147E+04  0.00000000000E+00 0.  1.
        -24    2    1    2    0    0  0.74395869771E+03 -0.14138829677E+02 -0.62873398179E+03  0.97724326335E+03  0.77611374820E+02 0.  0.
    5000000    2    1    2    0    0 -0.74395869771E+03  0.14138829677E+02  0.30727870238E+03  0.10040448866E+04  0.60000956913E+03 0.  0.
        -24    2    4    4    0    0  0.75335179895E+02 -0.39668318620E+02  0.97349455699E+02  0.15296383170E+03  0.81682632503E+02 0.  0.
         24    2    4    4    0    0 -0.81929387760E+03  0.53807148297E+02  0.20992924668E+03  0.85108105494E+03  0.78300743114E+02 0.  0.
         13    1    5    5    0    0  0.58362678269E+02  0.10371904622E+02  0.74986097485E+02  0.95586052519E+02  0.00000000000E+00 0. -1.
        -14    1    5    5    0    0  0.16972501626E+02 -0.50040223242E+02  0.22363358215E+02  0.57377779185E+02  0.00000000000E+00 0.  1.
         13    1    3    3    0    0  0.48735230372E+03  0.38628869749E+00 -0.45721871459E+03  0.66825247484E+03  0.00000000000E+00 0. -1.
        -14    1    3    3    0    0  0.25660639399E+03 -0.14525118375E+02 -0.17151526720E+03  0.30899078851E+03  0.00000000000E+00 0.  1.
          2    1    6    6  502    0 -0.43438637374E+03  0.67643034445E+02  0.11356566246E+03  0.45405314831E+03  0.00000000000E+00 0. -1.
         -1    1    6    6    0  502 -0.38490750387E+03 -0.13835886148E+02  0.96363584219E+02  0.39702790663E+03  0.00000000000E+00 0.  1.
<mgrwt>
<rscale>  0 0.84063231E+03</rscale>
<asrwt>0</asrwt>
<pdfrwt beam="1">  1        1 0.12767945E+00 0.84063231E+03</pdfrwt>
<pdfrwt beam="2">  1       -2 0.17713411E+00 0.84063231E+03</pdfrwt>
<totfact> 0.35140191E+00</totfact>
</mgrwt>
</event>
<event>
12    3  0.2269558E-007  0.1365069E+04  0.7818608E-02  0.8979499E-01
          3   -1    0    0  501    0  0.00000000000E+00  0.00000000000E+00  0.14569398322E+04  0.14569398322E+04  0.00000000000E+00 0. -1.
         -4   -1    0    0    0  501 -0.00000000000E+00 -0.00000000000E+00 -0.14867311355E+04  0.14867311355E+04  0.00000000000E+00 0.  1.
        -24    2    1    2    0    0  0.25495349632E+03 -0.13318435877E+04 -0.39857793816E+03  0.14155918529E+04  0.78913204127E+02 0.  0.
    5000000    2    1    2    0    0 -0.25495349632E+03  0.13318435877E+04  0.36878663487E+03  0.15280791148E+04  0.60017794987E+03 0.  0.
        -24    2    4    4    0    0 -0.34977426271E+01  0.26618448856E+03  0.32674878011E+03  0.42955926735E+03  0.83005919713E+02 0.  0.
         24    2    4    4    0    0 -0.25145575369E+03  0.10656590992E+04  0.42037854762E+02  0.10985198474E+04  0.78226352723E+02 0.  0.
         11    1    3    3    0    0  0.11950250420E+03 -0.75284241176E+03 -0.25595736348E+03  0.80409372424E+03  0.00000000000E+00 0. -1.
        -12    1    3    3    0    0  0.13545099212E+03 -0.57900117598E+03 -0.14262057469E+03  0.61149812868E+03  0.00000000000E+00 0.  1.
         13    1    5    5    0    0  0.38636775657E+02  0.13013800332E+03  0.17439858646E+03  0.22100580830E+03  0.00000000000E+00 0. -1.
        -14    1    5    5    0    0 -0.42134518285E+02  0.13604648524E+03  0.15235019365E+03  0.20855345905E+03  0.00000000000E+00 0.  1.
          2    1    6    6  502    0 -0.13670536026E+03  0.61673462743E+03  0.61947034837E+02  0.63473411073E+03  0.00000000000E+00 0. -1.
         -1    1    6    6    0  502 -0.11475039343E+03  0.44892447174E+03 -0.19909180075E+02  0.46378573671E+03  0.00000000000E+00 0.  1.
<mgrwt>
<rscale>  0 0.13650691E+04</rscale>
<asrwt>0</asrwt>
<pdfrwt beam="1">  1        3 0.22414459E+00 0.13650691E+04</pdfrwt>
<pdfrwt beam="2">  1       -4 0.22872787E+00 0.13650691E+04</pdfrwt>
<totfact> 0.19124585E-02</totfact>
</mgrwt>
</event>
<event>
12    3  0.2269558E-007  0.7183904E+03  0.7818608E-02  0.9686289E-01
          1   -1    0    0  501    0  0.00000000000E+00  0.00000000000E+00  0.89877594738E+03  0.89877594738E+03  0.00000000000E+00 0. -1.
         -2   -1    0    0    0  501 -0.00000000000E+00 -0.00000000000E+00 -0.16311492502E+04  0.16311492502E+04  0.00000000000E+00 0.  1.
        -24    2    1    2    0    0  0.31097313746E+03 -0.51179894858E+03 -0.13514670255E+04  0.14804267616E+04  0.80980363967E+02 0.  0.
    5000000    2    1    2    0    0 -0.31097313746E+03  0.51179894858E+03  0.61909372268E+03  0.10494984360E+04  0.59960609882E+03 0.  0.
        -24    2    4    4    0    0 -0.46154919528E+03  0.23771334586E+03  0.33944499980E+03  0.62245255161E+03  0.51855343591E+02 0.  0.
         24    2    4    4    0    0  0.15057605782E+03  0.27408560272E+03  0.27964872288E+03  0.42704588440E+03  0.79804212691E+02 0.  0.
         11    1    5    5    0    0 -0.24169004385E+03  0.15195243286E+03  0.19576522024E+03  0.34616129276E+03  0.00000000000E+00 0. -1.
        -12    1    5    5    0    0 -0.21985915143E+03  0.85760912998E+02  0.14367977956E+03  0.27629125885E+03  0.00000000000E+00 0.  1.
         13    1    3    3    0    0  0.16000815651E+03 -0.31827682832E+03 -0.86705903865E+03  0.93738686043E+03  0.00000000000E+00 0. -1.
        -14    1    3    3    0    0  0.15096498095E+03 -0.19352212025E+03 -0.48440798690E+03  0.54303990118E+03  0.00000000000E+00 0.  1.
          4    1    6    6  502    0  0.32771554337E+02  0.81802056148E+02  0.12760098218E+03  0.15507276297E+03  0.00000000000E+00 0. -1.
         -3    1    6    6    0  502  0.11780450349E+03  0.19228354657E+03  0.15204774071E+03  0.27197312143E+03  0.00000000000E+00 0.  1.
<mgrwt>
<rscale>  0 0.71839037E+03</rscale>
<asrwt>0</asrwt>
<pdfrwt beam="1">  1        1 0.13827322E+00 0.71839037E+03</pdfrwt>
<pdfrwt beam="2">  1       -2 0.25094604E+00 0.71839037E+03</pdfrwt>
<totfact> 0.10605425E+00</totfact>
</mgrwt>
</event>
<event>
12    3  0.2269558E-007  0.4372267E+03  0.7818608E-02  0.1031601E+00
         -4   -1    0    0    0  501 -0.00000000000E+00  0.00000000000E+00  0.28260937016E+03  0.28260937016E+03  0.00000000000E+00 0.  1.
          3   -1    0    0  501    0  0.00000000000E+00 -0.00000000000E+00 -0.13855789897E+04  0.13855789897E+04  0.00000000000E+00 0. -1.
        -24    2    1    2    0    0  0.62013544497E+01  0.24412060700E+03 -0.97443949306E+03  0.10077326136E+04  0.79745640811E+02 0.  0.
    5000000    2    1    2    0    0 -0.62013544497E+01 -0.24412060700E+03 -0.12853012650E+03  0.66045574632E+03  0.60004039187E+03 0.  0.
        -24    2    4    4    0    0 -0.63960592705E+02 -0.42627015174E+03 -0.57711745823E+02  0.44279971725E+03  0.83329132419E+02 0.  0.
         24    2    4    4    0    0  0.57759238256E+02  0.18214954473E+03 -0.70818380673E+02  0.21765602907E+03  0.76448137310E+02 0.  0.
         11    1    5    5    0    0 -0.10164649231E+00 -0.14758431147E+03  0.13366229401E+02  0.14818837813E+03  0.00000000000E+00 0. -1.
        -12    1    5    5    0    0 -0.63858946213E+02 -0.27868584027E+03 -0.71077975225E+02  0.29461133912E+03  0.00000000000E+00 0.  1.
         13    1    3    3    0    0  0.21945531135E+02  0.86439531648E+02 -0.48952786947E+03  0.49758510222E+03  0.00000000000E+00 0. -1.
        -14    1    3    3    0    0 -0.15744176685E+02  0.15768107536E+03 -0.48491162360E+03  0.51014751134E+03  0.00000000000E+00 0.  1.
          4    1    6    6  502    0  0.17876632680E+02  0.10452413305E+03 -0.12500001840E+01  0.10604919088E+03  0.00000000000E+00 0. -1.
         -3    1    6    6    0  502  0.39882605575E+02  0.77625411683E+02 -0.69568380489E+02  0.11160683819E+03  0.00000000000E+00 0.  1.
<mgrwt>
<rscale>  0 0.43722669E+03</rscale>
<asrwt>0</asrwt>
<pdfrwt beam="1">  1        3 0.21316600E+00 0.43722669E+03</pdfrwt>
<pdfrwt beam="2">  1       -4 0.43478365E-01 0.43722669E+03</pdfrwt>
<totfact> 0.14458777E+00</totfact>
</mgrwt>
</event>
<event>
12    3  0.2346061E-007  0.8806346E+03  0.7818608E-02  0.9450118E-01
          1   -1    0    0  501    0  0.00000000000E+00  0.00000000000E+00  0.21648241497E+04  0.21648241497E+04  0.00000000000E+00 0. -1.
         -2   -1    0    0    0  501 -0.00000000000E+00 -0.00000000000E+00 -0.47271394156E+03  0.47271394156E+03  0.00000000000E+00 0.  1.
        -24    2    1    2    0    0 -0.57883170088E+03  0.60632402531E+03  0.12697085944E+04  0.15234843387E+04  0.78547146108E+02 0.  0.
    5000000    2    1    2    0    0  0.57883170088E+03 -0.60632402531E+03  0.42240161383E+03  0.11140537526E+04  0.60001473204E+03 0.  0.
        -24    2    4    4    0    0  0.62597554346E+03 -0.51019346586E+03  0.17065476875E+03  0.82926165811E+03  0.80056816685E+02 0.  0.
         24    2    4    4    0    0 -0.47143842583E+02 -0.96130559445E+02  0.25174684508E+03  0.28479209447E+03  0.79160828135E+02 0.  0.
         13    1    3    3    0    0 -0.18038279988E+03  0.17844087791E+03  0.32233980251E+03  0.41022195174E+03  0.00000000000E+00 0. -1.
        -14    1    3    3    0    0 -0.39844890100E+03  0.42788314739E+03  0.94736879185E+03  0.11132623870E+04  0.00000000000E+00 0.  1.
         13    1    5    5    0    0  0.27058142976E+03 -0.24701046413E+03  0.42470409239E+02  0.36882545355E+03  0.00000000000E+00 0. -1.
        -14    1    5    5    0    0  0.35539411370E+03 -0.26318300173E+03  0.12818435951E+03  0.46043620456E+03  0.00000000000E+00 0.  1.
          2    1    6    6  502    0 -0.53538649509E+02 -0.74776108462E+02  0.12008023964E+03  0.15125183417E+03  0.00000000000E+00 0. -1.
         -1    1    6    6    0  502  0.63948069260E+01 -0.21354450983E+02  0.13166660544E+03  0.13354026029E+03  0.00000000000E+00 0.  1.
<mgrwt>
<rscale>  0 0.88063462E+03</rscale>
<asrwt>0</asrwt>
<pdfrwt beam="1">  1        1 0.33304986E+00 0.88063462E+03</pdfrwt>
<pdfrwt beam="2">  1       -2 0.72725223E-01 0.88063462E+03</pdfrwt>
<totfact> 0.35466129E+00</totfact>
</mgrwt>
</event>
<event>
12    3  0.2269558E-007  0.1018390E+04  0.7818608E-02  0.9288602E-01
         -2   -1    0    0    0  501 -0.00000000000E+00  0.00000000000E+00  0.13536456136E+04  0.13536456136E+04  0.00000000000E+00 0.  1.
          1   -1    0    0  501    0  0.00000000000E+00 -0.00000000000E+00 -0.86369966292E+03  0.86369966292E+03  0.00000000000E+00 0. -1.
        -24    2    1    2    0    0 -0.49089132408E+03 -0.80398034786E+03 -0.10711607725E+03  0.95091143033E+03  0.73484709411E+02 0.  0.
    5000000    2    1    2    0    0  0.49089132408E+03  0.80398034786E+03  0.59706202789E+03  0.12664338461E+04  0.60001077465E+03 0.  0.
        -24    2    4    4    0    0 -0.10250558189E+03  0.42611843847E+02  0.13901091268E+03  0.19499737363E+03  0.79854732625E+02 0.  0.
         24    2    4    4    0    0  0.59339690597E+03  0.76136850402E+03  0.45805111521E+03  0.10714364725E+04  0.79770944364E+02 0.  0.
         11    1    5    5    0    0 -0.76753565165E+02  0.73298363563E+00  0.45179260421E+02  0.89066338213E+02  0.00000000000E+00 0. -1.
        -12    1    5    5    0    0 -0.25752016723E+02  0.41878860211E+02  0.93831652259E+02  0.10593103541E+03  0.00000000000E+00 0.  1.
         11    1    3    3    0    0 -0.49352659580E+02 -0.45069567473E+02 -0.88866999044E+01  0.67423470357E+02  0.00000000000E+00 0. -1.
        -12    1    3    3    0    0 -0.44153866450E+03 -0.75891078039E+03 -0.98229377350E+02  0.88348795997E+03  0.00000000000E+00 0.  1.
          2    1    6    6  502    0  0.42150830477E+03  0.51278492891E+03  0.27807777485E+03  0.71968387725E+03  0.00000000000E+00 0. -1.
         -1    1    6    6    0  502  0.17188860120E+03  0.24858357510E+03  0.17997334036E+03  0.35175259526E+03  0.00000000000E+00 0.  1.
<mgrwt>
<rscale>  0 0.10183901E+04</rscale>
<asrwt>0</asrwt>
<pdfrwt beam="1">  1        1 0.13287687E+00 0.10183901E+04</pdfrwt>
<pdfrwt beam="2">  1       -2 0.20825317E+00 0.10183901E+04</pdfrwt>
<totfact> 0.19993396E+00</totfact>
</mgrwt>
</event>
<event>
12    3  0.2269558E-007  0.2065159E+04  0.7818608E-02  0.8576749E-01
          1   -1    0    0  501    0  0.00000000000E+00  0.00000000000E+00  0.35766214000E+04  0.35766214000E+04  0.00000000000E+00 0. -1.
         -2   -1    0    0    0  501 -0.00000000000E+00 -0.00000000000E+00 -0.13625551910E+04  0.13625551910E+04  0.00000000000E+00 0.  1.
        -24    2    1    2    0    0 -0.20137930484E+04  0.43223487710E+03  0.33709472353E+03  0.20886482846E+04  0.81420962903E+02 0.  0.
    5000000    2    1    2    0    0  0.20137930484E+04 -0.43223487710E+03  0.18769714855E+04  0.28505283064E+04  0.60025014589E+03 0.  0.
        -24    2    4    4    0    0  0.70192500622E+03 -0.24877467373E+03  0.10404545384E+04  0.12818907778E+04  0.78171395326E+02 0.  0.
         24    2    4    4    0    0  0.13118680422E+04 -0.18346020337E+03  0.83651694704E+03  0.15686375286E+04  0.78788876961E+02 0.  0.
         11    1    5    5    0    0  0.36893543551E+03 -0.13501228419E+03  0.61500028856E+03  0.72977190093E+03  0.00000000000E+00 0. -1.
        -12    1    5    5    0    0  0.33298957071E+03 -0.11376238954E+03  0.42545424988E+03  0.55211887689E+03  0.00000000000E+00 0.  1.
         13    1    3    3    0    0 -0.15390131983E+04  0.29893560935E+03  0.23993576985E+03  0.15860306733E+04  0.00000000000E+00 0. -1.
        -14    1    3    3    0    0 -0.47477985014E+03  0.13329926774E+03  0.97158953681E+02  0.50261761127E+03  0.00000000000E+00 0.  1.
          4    1    6    6  502    0  0.25265150946E+03 -0.32510275647E+02  0.19836100441E+03  0.32285723055E+03  0.00000000000E+00 0. -1.
         -3    1    6    6    0  502  0.10592165328E+04 -0.15094992772E+03  0.63815594264E+03  0.12457802981E+04  0.00000000000E+00 0.  1.
<mgrwt>
<rscale>  0 0.20651585E+04</rscale>
<asrwt>0</asrwt>
<pdfrwt beam="1">  1        1 0.55024944E+00 0.20651585E+04</pdfrwt>
<pdfrwt beam="2">  1       -2 0.20962388E+00 0.20651585E+04</pdfrwt>
<totfact> 0.19434655E-02</totfact>
</mgrwt>
</event>
<event>
12    3  0.2269558E-007  0.7521261E+03  0.7818608E-02  0.9632021E-01
         -2   -1    0    0    0  501 -0.00000000000E+00  0.00000000000E+00  0.54236987468E+03  0.54236987468E+03  0.00000000000E+00 0.  1.
          1   -1    0    0  501    0  0.00000000000E+00 -0.00000000000E+00 -0.17716319694E+04  0.17716319694E+04  0.00000000000E+00 0. -1.
        -24    2    1    2    0    0 -0.29528824511E+03 -0.65639896737E+03  0.52588282504E+02  0.72611017356E+03  0.80098093789E+02 0.  0.
    5000000    2    1    2    0    0  0.29528824511E+03  0.65639896737E+03 -0.12818503772E+04  0.15878916705E+04  0.60017065545E+03 0.  0.
        -24    2    4    4    0    0  0.74877820888E+02  0.51156677906E+03 -0.11855664136E+04  0.12958954477E+04  0.80436513180E+02 0.  0.
         24    2    4    4    0    0  0.22041042422E+03  0.14483218831E+03 -0.96283963595E+02  0.29199622286E+03  0.80212683801E+02 0.  0.
         11    1    5    5    0    0  0.53023861003E+02  0.36800927009E+03 -0.93620859492E+03  0.10073375233E+04  0.00000000000E+00 0. -1.
        -12    1    5    5    0    0  0.21853959886E+02  0.14355750897E+03 -0.24935781871E+03  0.28855792433E+03  0.00000000000E+00 0.  1.
         11    1    3    3    0    0 -0.17054315455E+02 -0.10051310871E+02 -0.38272346411E+01  0.20162496147E+02  0.00000000000E+00 0. -1.
        -12    1    3    3    0    0 -0.27823392965E+03 -0.64634765649E+03  0.56415517145E+02  0.70594767741E+03  0.00000000000E+00 0.  1.
          2    1    6    6  502    0  0.68576634862E+02  0.43889934051E+02  0.82384592873E+01  0.81834915356E+02  0.00000000000E+00 0. -1.
         -1    1    6    6    0  502  0.15183378936E+03  0.10094225426E+03 -0.10452242288E+03  0.21016130750E+03  0.00000000000E+00 0.  1.
<mgrwt>
<rscale>  0 0.75212605E+03</rscale>
<asrwt>0</asrwt>
<pdfrwt beam="1">  1        1 0.27255877E+00 0.75212605E+03</pdfrwt>
<pdfrwt beam="2">  1       -2 0.83441519E-01 0.75212605E+03</pdfrwt>
<totfact> 0.48775112E+00</totfact>
</mgrwt>
</event>
<event>
12    3  0.2415059E-007  0.7442953E+03  0.7818608E-02  0.9644343E-01
         -2   -1    0    0    0  501 -0.00000000000E+00  0.00000000000E+00  0.12134408032E+04  0.12134408032E+04  0.00000000000E+00 0.  1.
          1   -1    0    0  501    0  0.00000000000E+00 -0.00000000000E+00 -0.62741025780E+03  0.62741025780E+03  0.00000000000E+00 0. -1.
        -24    2    1    2    0    0  0.69602567867E+03  0.19751785167E+03 -0.10447248070E+02  0.72763285855E+03  0.76651058404E+02 0.  0.
    5000000    2    1    2    0    0 -0.69602567867E+03 -0.19751785167E+03  0.59647779342E+03  0.11132182024E+04  0.60000330085E+03 0.  0.
        -24    2    4    4    0    0 -0.12895672477E+03 -0.10211691515E+03  0.48997127624E+03  0.52291162273E+03  0.79416701145E+02 0.  0.
         24    2    4    4    0    0 -0.56706895390E+03 -0.95400936520E+02  0.10650651718E+03  0.59030657968E+03  0.80309916244E+02 0.  0.
         13    1    3    3    0    0  0.44366684690E+03  0.90085968468E+02 -0.20374103350E+02  0.45317861472E+03  0.00000000000E+00 0. -1.
        -14    1    3    3    0    0  0.25235883177E+03  0.10743188320E+03  0.99268552805E+01  0.27445424383E+03  0.00000000000E+00 0.  1.
         13    1    5    5    0    0 -0.92472929163E+02 -0.22745830756E+02  0.26308544726E+03  0.27979022142E+03  0.00000000000E+00 0. -1.
        -14    1    5    5    0    0 -0.36483795607E+02 -0.79371084396E+02  0.22688582898E+03  0.24312140131E+03  0.00000000000E+00 0.  1.
          4    1    6    6  502    0 -0.38634598926E+03 -0.32727338778E+02  0.91872933681E+02  0.39846573010E+03  0.00000000000E+00 0. -1.
         -3    1    6    6    0  502 -0.18072296464E+03 -0.62673597741E+02  0.14633583499E+02  0.19184084958E+03  0.00000000000E+00 0.  1.
<mgrwt>
<rscale>  0 0.74429529E+03</rscale>
<asrwt>0</asrwt>
<pdfrwt beam="1">  1        1 0.96524655E-01 0.74429529E+03</pdfrwt>
<pdfrwt beam="2">  1       -2 0.18668320E+00 0.74429529E+03</pdfrwt>
<totfact> 0.47023951E+00</totfact>
</mgrwt>
</event>
<event>
12    3  0.2269558E-007  0.9693224E+03  0.7818608E-02  0.9342846E-01
          1   -1    0    0  501    0  0.00000000000E+00  0.00000000000E+00  0.10998850816E+04  0.10998850816E+04  0.00000000000E+00 0. -1.
         -2   -1    0    0    0  501 -0.00000000000E+00 -0.00000000000E+00 -0.95090640839E+03  0.95090640839E+03  0.00000000000E+00 0.  1.
        -24    2    1    2    0    0 -0.30010591540E+03  0.82823989998E+03 -0.23957594340E+03  0.91627967975E+03  0.78274686197E+02 0.  0.
    5000000    2    1    2    0    0  0.30010591540E+03 -0.82823989998E+03  0.38855461665E+03  0.11345118103E+04  0.60008121545E+03 0.  0.
        -24    2    4    4    0    0  0.16871091752E+03 -0.87852082885E+03  0.28768769250E+03  0.94304506852E+03  0.79420226778E+02 0.  0.
         24    2    4    4    0    0  0.13139499788E+03  0.50280928874E+02  0.10086692415E+03  0.19146674175E+03  0.81808065205E+02 0.  0.
         13    1    3    3    0    0 -0.14960098588E+03  0.35428181207E+03 -0.70073731085E+02  0.39090457292E+03  0.00000000000E+00 0. -1.
        -14    1    3    3    0    0 -0.15050492953E+03  0.47395808790E+03 -0.16950221232E+03  0.52537510683E+03  0.00000000000E+00 0.  1.
         13    1    5    5    0    0  0.10838409329E+03 -0.55192201549E+03  0.22081974953E+03  0.60425688630E+03  0.00000000000E+00 0. -1.
        -14    1    5    5    0    0  0.60326824230E+02 -0.32659881336E+03  0.66867942964E+02  0.33878818221E+03  0.00000000000E+00 0.  1.
          4    1    6    6  502    0  0.13658902910E+03  0.28133447603E+02  0.91904875686E+02  0.16701664564E+03  0.00000000000E+00 0. -1.
         -3    1    6    6    0  502 -0.51940312274E+01  0.22147481271E+02  0.89620484616E+01  0.24450096107E+02  0.00000000000E+00 0.  1.
<mgrwt>
<rscale>  0 0.96932241E+03</rscale>
<asrwt>0</asrwt>
<pdfrwt beam="1">  1        1 0.16921309E+00 0.96932241E+03</pdfrwt>
<pdfrwt beam="2">  1       -2 0.14629329E+00 0.96932241E+03</pdfrwt>
<totfact> 0.35577465E+00</totfact>
</mgrwt>
</event>
<event>
12    3  0.2269558E-007  0.9963892E+03  0.7818608E-02  0.9312514E-01
         -2   -1    0    0    0  501 -0.00000000000E+00  0.00000000000E+00  0.15417514667E+04  0.15417514667E+04  0.00000000000E+00 0.  1.
          1   -1    0    0  501    0  0.00000000000E+00 -0.00000000000E+00 -0.82737950442E+03  0.82737950442E+03  0.00000000000E+00 0. -1.
        -24    2    1    2    0    0  0.87935862843E+03 -0.30117785194E+03 -0.17584401138E+03  0.94915675539E+03  0.77445039100E+02 0.  0.
    5000000    2    1    2    0    0 -0.87935862843E+03  0.30117785194E+03  0.89021597370E+03  0.14199742158E+04  0.59988548717E+03 0.  0.
        -24    2    4    4    0    0 -0.87094885787E+03  0.12169189703E+03  0.83651514452E+03  0.12163300360E+04  0.79626242692E+02 0.  0.
         24    2    4    4    0    0 -0.84097705611E+01  0.17948595491E+03  0.53700829183E+02  0.20364417981E+03  0.79380354414E+02 0.  0.
         11    1    5    5    0    0 -0.24863855951E+03  0.57472448439E+02  0.20431299780E+03  0.32690674003E+03  0.00000000000E+00 0. -1.
        -12    1    5    5    0    0 -0.62231029836E+03  0.64219448593E+02  0.63220214671E+03  0.88942329592E+03  0.00000000000E+00 0.  1.
         11    1    3    3    0    0  0.53488344311E+03 -0.17749463721E+03 -0.14459883426E+03  0.58181910146E+03  0.00000000000E+00 0. -1.
        -12    1    3    3    0    0  0.34447518532E+03 -0.12368321473E+03 -0.31245177118E+02  0.36733765394E+03  0.00000000000E+00 0.  1.
          2    1    6    6  502    0 -0.20178053073E+02  0.96950766878E+02 -0.88423699703E+01  0.99422293932E+02  0.00000000000E+00 0. -1.
         -1    1    6    6    0  502  0.11768282512E+02  0.82535188029E+02  0.62543199153E+02  0.10422188588E+03  0.00000000000E+00 0.  1.
<mgrwt>
<rscale>  0 0.99638923E+03</rscale>
<asrwt>0</asrwt>
<pdfrwt beam="1">  1        1 0.12728915E+00 0.99638923E+03</pdfrwt>
<pdfrwt beam="2">  1       -2 0.23719253E+00 0.99638923E+03</pdfrwt>
<totfact> 0.14154983E+00</totfact>
</mgrwt>
</event>
<event>
12    3  0.2269558E-007  0.7945782E+03  0.7818608E-02  0.9567898E-01
         -2   -1    0    0    0  501 -0.00000000000E+00  0.00000000000E+00  0.88848232445E+03  0.88848232445E+03  0.00000000000E+00 0.  1.
          1   -1    0    0  501    0  0.00000000000E+00 -0.00000000000E+00 -0.89605509598E+03  0.89605509598E+03  0.00000000000E+00 0. -1.
        -24    2    1    2    0    0  0.33958071558E+03 -0.67273655926E+03 -0.23759221850E+03  0.79417768090E+03  0.79866050329E+02 0.  0.
    5000000    2    1    2    0    0 -0.33958071558E+03  0.67273655926E+03  0.23001944697E+03  0.99035973953E+03  0.60001160584E+03 0.  0.
        -24    2    4    4    0    0 -0.35175313704E+03  0.66405341712E+03  0.99300760584E+01  0.75578896356E+03  0.80132021204E+02 0.  0.
         24    2    4    4    0    0  0.12172421462E+02  0.86831421379E+01  0.22008937091E+03  0.23457077597E+03  0.79753074859E+02 0.  0.
         11    1    3    3    0    0  0.21585738118E+03 -0.43283786172E+03 -0.19219375687E+03  0.52046274000E+03  0.00000000000E+00 0. -1.
        -12    1    3    3    0    0  0.12372333440E+03 -0.23989869754E+03 -0.45398461637E+02  0.27371494090E+03  0.00000000000E+00 0.  1.
         11    1    5    5    0    0 -0.34349423320E+02  0.30421240989E+02 -0.94140078309E+01  0.46839708893E+02  0.00000000000E+00 0. -1.
        -12    1    5    5    0    0 -0.31740371372E+03  0.63363217613E+03  0.19344083889E+02  0.70894925467E+03  0.00000000000E+00 0.  1.
          4    1    6    6  502    0 -0.29497472237E+02 -0.14962573578E+02  0.97105919050E+02  0.10258430187E+03  0.00000000000E+00 0. -1.
         -3    1    6    6    0  502  0.41669893699E+02  0.23645715716E+02  0.12298345186E+03  0.13198647410E+03  0.00000000000E+00 0.  1.
<mgrwt>
<rscale>  0 0.79457816E+03</rscale>
<asrwt>0</asrwt>
<pdfrwt beam="1">  1        1 0.13785463E+00 0.79457816E+03</pdfrwt>
<pdfrwt beam="2">  1       -2 0.13668959E+00 0.79457816E+03</pdfrwt>
<totfact> 0.62513691E+00</totfact>
</mgrwt>
</event>
<event>
12    3  0.2269558E-007  0.3956864E+03  0.7818608E-02  0.1045284E+00
          1   -1    0    0  501    0  0.00000000000E+00  0.00000000000E+00  0.15012900434E+04  0.15012900434E+04  0.00000000000E+00 0. -1.
         -2   -1    0    0    0  501 -0.00000000000E+00 -0.00000000000E+00 -0.29973641843E+03  0.29973641843E+03  0.00000000000E+00 0.  1.
        -24    2    1    2    0    0 -0.14946464542E+03 -0.35740334719E+03 -0.83293044102E+01  0.39610639762E+03  0.82183137620E+02 0.  0.
    5000000    2    1    2    0    0  0.14946464542E+03  0.35740334719E+03  0.12098829294E+04  0.14049200642E+04  0.59992237096E+03 0.  0.
        -24    2    4    4    0    0  0.10156768735E+03  0.12491961348E+03  0.11322047756E+04  0.11463564116E+04  0.79526495628E+02 0.  0.
         24    2    4    4    0    0  0.47896958071E+02  0.23248373371E+03  0.77678153766E+02  0.25856365262E+03  0.66921310891E+02 0.  0.
         11    1    3    3    0    0 -0.14786363868E+03 -0.34023029668E+03  0.97758881007E+01  0.37110090058E+03  0.00000000000E+00 0. -1.
        -12    1    3    3    0    0 -0.16010067456E+01 -0.17173050510E+02 -0.18105192511E+02  0.25005497041E+02  0.00000000000E+00 0.  1.
         11    1    5    5    0    0 -0.22620375238E+01  0.12692850872E+02  0.29657051328E+03  0.29685062679E+03  0.00000000000E+00 0. -1.
        -12    1    5    5    0    0  0.10382972487E+03  0.11222676261E+03  0.83563426230E+03  0.84950578477E+03  0.00000000000E+00 0.  1.
          4    1    6    6  502    0  0.44156243005E+02  0.21252079001E+03  0.89810097604E+02  0.23490575475E+03  0.00000000000E+00 0. -1.
         -3    1    6    6    0  502  0.37407150669E+01  0.19962943705E+02 -0.12131943838E+02  0.23657897875E+02  0.00000000000E+00 0.  1.
<mgrwt>
<rscale>  0 0.39568639E+03</rscale>
<asrwt>0</asrwt>
<pdfrwt beam="1">  1        1 0.23096770E+00 0.39568639E+03</pdfrwt>
<pdfrwt beam="2">  1       -2 0.46113296E-01 0.39568639E+03</pdfrwt>
<totfact> 0.27811023E+01</totfact>
</mgrwt>
</event>
<event>
12    3  0.2269558E-007  0.2590689E+04  0.7818608E-02  0.8371371E-01
         -2   -1    0    0    0  501 -0.00000000000E+00  0.00000000000E+00  0.21418498232E+04  0.21418498232E+04  0.00000000000E+00 0.  1.
          1   -1    0    0  501    0  0.00000000000E+00 -0.00000000000E+00 -0.32007533263E+04  0.32007533263E+04  0.00000000000E+00 0. -1.
        -24    2    1    2    0    0 -0.15261366844E+04  0.20758709664E+04 -0.71315111688E+03  0.26745788875E+04  0.80338417887E+02 0.  0.
    5000000    2    1    2    0    0  0.15261366844E+04 -0.20758709664E+04 -0.34575238624E+03  0.26680242620E+04  0.60039595398E+03 0.  0.
        -24    2    4    4    0    0  0.11459792989E+04 -0.18002283908E+04 -0.44462432192E+03  0.21813870016E+04  0.81655682235E+02 0.  0.
         24    2    4    4    0    0  0.38015738557E+03 -0.27564257555E+03  0.98871935676E+02  0.48663726045E+03  0.80880753813E+02 0.  0.
         11    1    5    5    0    0  0.51996194583E+03 -0.81163943260E+03 -0.24227164457E+03  0.99388859709E+03  0.00000000000E+00 0. -1.
        -12    1    5    5    0    0  0.62601735304E+03 -0.98858895820E+03 -0.20235267734E+03  0.11874984045E+04  0.00000000000E+00 0.  1.
         11    1    3    3    0    0 -0.13022342929E+04  0.17221429694E+04 -0.59174119660E+03  0.22386934146E+04  0.00000000000E+00 0. -1.
        -12    1    3    3    0    0 -0.22390239149E+03  0.35372799700E+03 -0.12140992028E+03  0.43588547294E+03  0.00000000000E+00 0.  1.
          2    1    6    6  502    0  0.19965899925E+03 -0.14939553272E+03  0.93458107855E+02  0.26630275834E+03  0.00000000000E+00 0. -1.
         -1    1    6    6    0  502  0.18049838632E+03 -0.12624704283E+03  0.54138278213E+01  0.22033450211E+03  0.00000000000E+00 0.  1.
<mgrwt>
<rscale>  0 0.25906894E+04</rscale>
<asrwt>0</asrwt>
<pdfrwt beam="1">  1        1 0.49242359E+00 0.25906894E+04</pdfrwt>
<pdfrwt beam="2">  1       -2 0.32951536E+00 0.25906894E+04</pdfrwt>
<totfact> 0.64687549E-03</totfact>
</mgrwt>
</event>
<event>
12    3  0.2269558E-007  0.9783455E+03  0.7818608E-02  0.9332619E-01
          1   -1    0    0  501    0  0.00000000000E+00  0.00000000000E+00  0.11382057280E+04  0.11382057280E+04  0.00000000000E+00 0. -1.
         -2   -1    0    0    0  501 -0.00000000000E+00 -0.00000000000E+00 -0.10740131234E+04  0.10740131234E+04  0.00000000000E+00 0.  1.
        -24    2    1    2    0    0  0.89113519259E+03  0.21086828652E+03 -0.42548036942E+03  0.10129198922E+04  0.79911185673E+02 0.  0.
    5000000    2    1    2    0    0 -0.89113519259E+03 -0.21086828652E+03  0.48967297403E+03  0.11992989591E+04  0.59995917041E+03 0.  0.
        -24    2    4    4    0    0 -0.31175450140E+03  0.15962995922E+03  0.33234376037E+03  0.48876178468E+03  0.75915176929E+02 0.  0.
         24    2    4    4    0    0 -0.57938069119E+03 -0.37049824574E+03  0.15732921366E+03  0.71053717445E+03  0.84614770502E+02 0.  0.
         11    1    5    5    0    0 -0.63045804357E+02  0.13276895109E+02  0.30895334209E+02  0.71453278908E+02  0.00000000000E+00 0. -1.
        -12    1    5    5    0    0 -0.24870869704E+03  0.14635306411E+03  0.30144842616E+03  0.41730850578E+03  0.00000000000E+00 0.  1.
         13    1    3    3    0    0  0.48260217871E+03  0.10886747127E+03 -0.18621021277E+03  0.52861255428E+03  0.00000000000E+00 0. -1.
        -14    1    3    3    0    0  0.40853301388E+03  0.10200081525E+03 -0.23927015665E+03  0.48430733796E+03  0.00000000000E+00 0.  1.
          4    1    6    6  502    0 -0.39363088740E+03 -0.26014730989E+03  0.67836686840E+02  0.47667988676E+03  0.00000000000E+00 0. -1.
         -3    1    6    6    0  502 -0.18574980380E+03 -0.11035093584E+03  0.89492526816E+02  0.23385728769E+03  0.00000000000E+00 0.  1.
<mgrwt>
<rscale>  0 0.97834548E+03</rscale>
<asrwt>0</asrwt>
<pdfrwt beam="1">  1        1 0.17510857E+00 0.97834548E+03</pdfrwt>
<pdfrwt beam="2">  1       -2 0.16523279E+00 0.97834548E+03</pdfrwt>
<totfact> 0.23969509E+00</totfact>
</mgrwt>
</event>
<event>
12    3  0.2269558E-007  0.5545668E+03  0.7818608E-02  0.1000442E+00
         -2   -1    0    0    0  501 -0.00000000000E+00  0.00000000000E+00  0.18339007870E+04  0.18339007870E+04  0.00000000000E+00 0.  1.
          1   -1    0    0  501    0  0.00000000000E+00 -0.00000000000E+00 -0.48203540674E+03  0.48203540674E+03  0.00000000000E+00 0. -1.
        -24    2    1    2    0    0 -0.51360439566E+03  0.20104676438E+03  0.13924440519E+04  0.14997486088E+04  0.78333742813E+02 0.  0.
    5000000    2    1    2    0    0  0.51360439566E+03 -0.20104676438E+03 -0.40578671613E+02  0.81618758494E+03  0.60025516951E+03 0.  0.
        -24    2    4    4    0    0  0.43764894607E+03 -0.15484598345E+03  0.22746561441E+03  0.52322184363E+03  0.80663581165E+02 0.  0.
         24    2    4    4    0    0  0.75955449584E+02 -0.46200780929E+02 -0.26804428603E+03  0.29296574131E+03  0.77957961939E+02 0.  0.
         13    1    5    5    0    0  0.30418050595E+03 -0.89876964970E+02  0.11653931960E+03  0.33791280243E+03  0.00000000000E+00 0. -1.
        -14    1    5    5    0    0  0.13346844012E+03 -0.64969018477E+02  0.11092629482E+03  0.18530904120E+03  0.00000000000E+00 0.  1.
         13    1    3    3    0    0 -0.22334540556E+03  0.11735091582E+03  0.56081226756E+03  0.61495106072E+03  0.00000000000E+00 0. -1.
        -14    1    3    3    0    0 -0.29025899010E+03  0.83695848552E+02  0.83163178431E+03  0.88479754807E+03  0.00000000000E+00 0.  1.
          2    1    6    6  502    0  0.66266170958E+02 -0.42670917953E+02 -0.11409309176E+03  0.13866955773E+03  0.00000000000E+00 0. -1.
         -1    1    6    6    0  502  0.96892786266E+01 -0.35298629760E+01 -0.15395119426E+03  0.15429618358E+03  0.00000000000E+00 0.  1.
<mgrwt>
<rscale>  0 0.55456685E+03</rscale>
<asrwt>0</asrwt>
<pdfrwt beam="1">  1        1 0.74159294E-01 0.55456685E+03</pdfrwt>
<pdfrwt beam="2">  1       -2 0.28213858E+00 0.55456685E+03</pdfrwt>
<totfact> 0.18009834E+00</totfact>
</mgrwt>
</event>
<event>
12    3  0.2269558E-007  0.6637493E+03  0.7818608E-02  0.9781316E-01
          1   -1    0    0  501    0  0.00000000000E+00  0.00000000000E+00  0.11387885445E+04  0.11387885445E+04  0.00000000000E+00 0. -1.
         -2   -1    0    0    0  501 -0.00000000000E+00 -0.00000000000E+00 -0.42778562314E+03  0.42778562314E+03  0.00000000000E+00 0.  1.
        -24    2    1    2    0    0  0.36983137215E+03  0.42675827433E+03  0.33017189160E+03  0.65888481440E+03  0.78853358302E+02 0.  0.
    5000000    2    1    2    0    0 -0.36983137215E+03 -0.42675827433E+03  0.38083102972E+03  0.90768935320E+03  0.59997484962E+03 0.  0.
        -24    2    4    4    0    0 -0.47395765515E+03 -0.22596405390E+03  0.40288524207E+03  0.66677867180E+03  0.81127469846E+02 0.  0.
         24    2    4    4    0    0  0.10412628300E+03 -0.20079422043E+03 -0.22054212349E+02  0.24091068140E+03  0.79943519822E+02 0.  0.
         11    1    3    3    0    0  0.20148170706E+03  0.18116121173E+03  0.13364167377E+03  0.30211646741E+03  0.00000000000E+00 0. -1.
        -12    1    3    3    0    0  0.16834966509E+03  0.24559706260E+03  0.19653021783E+03  0.35676834699E+03  0.00000000000E+00 0.  1.
         11    1    5    5    0    0 -0.28000508469E+03 -0.10063717940E+03  0.26069547927E+03  0.39559173682E+03  0.00000000000E+00 0. -1.
        -12    1    5    5    0    0 -0.19395257045E+03 -0.12532687450E+03  0.14218976280E+03  0.27118693497E+03  0.00000000000E+00 0.  1.
          2    1    6    6  502    0  0.90569426860E+02 -0.13119054779E+03  0.16374420261E+02  0.16025574109E+03  0.00000000000E+00 0. -1.
         -1    1    6    6    0  502  0.13556856135E+02 -0.69603672633E+02 -0.38428632610E+02  0.80654940311E+02  0.00000000000E+00 0.  1.
<mgrwt>
<rscale>  0 0.66374934E+03</rscale>
<asrwt>0</asrwt>
<pdfrwt beam="1">  1        1 0.17519824E+00 0.66374934E+03</pdfrwt>
<pdfrwt beam="2">  1       -2 0.65813173E-01 0.66374934E+03</pdfrwt>
<totfact> 0.22881903E+01</totfact>
</mgrwt>
</event>
<event>
12    3  0.2269558E-007  0.7946134E+03  0.7818608E-02  0.9567847E-01
          1   -1    0    0  501    0  0.00000000000E+00  0.00000000000E+00  0.76812308807E+03  0.76812308807E+03  0.00000000000E+00 0. -1.
         -2   -1    0    0    0  501 -0.00000000000E+00 -0.00000000000E+00 -0.10540908938E+04  0.10540908938E+04  0.00000000000E+00 0.  1.
        -24    2    1    2    0    0 -0.74717379843E+03 -0.17537600156E+03 -0.34689599882E+03  0.84605037305E+03  0.80243210007E+02 0.  0.
    5000000    2    1    2    0    0  0.74717379843E+03  0.17537600156E+03  0.60928193079E+02  0.97616360884E+03  0.60013141854E+03 0.  0.
        -24    2    4    4    0    0  0.55852258451E+03  0.24659037463E+03  0.27271800348E+03  0.67321346948E+03  0.78019073320E+02 0.  0.
         24    2    4    4    0    0  0.18865121392E+03 -0.71214373072E+02 -0.21178981040E+03  0.30295013935E+03  0.79139722635E+02 0.  0.
         11    1    5    5    0    0  0.66235987520E+02  0.47325298533E+01  0.38946171947E+02  0.76983161736E+02  0.00000000000E+00 0. -1.
        -12    1    5    5    0    0  0.49228659699E+03  0.24185784478E+03  0.23377183153E+03  0.59623030775E+03  0.00000000000E+00 0.  1.
         13    1    3    3    0    0 -0.15865874980E+03 -0.46359840410E+02 -0.11058180778E+03  0.19887224518E+03  0.00000000000E+00 0. -1.
        -14    1    3    3    0    0 -0.58851504863E+03 -0.12901616115E+03 -0.23631419104E+03  0.64717812786E+03  0.00000000000E+00 0.  1.
          4    1    6    6  502    0  0.65172914281E+02 -0.47914056708E+02 -0.40363241251E+02  0.90401641746E+02  0.00000000000E+00 0. -1.
         -3    1    6    6    0  502  0.12347829963E+03 -0.23300316364E+02 -0.17142656915E+03  0.21254849760E+03  0.00000000000E+00 0.  1.
<mgrwt>
<rscale>  0 0.79461336E+03</rscale>
<asrwt>0</asrwt>
<pdfrwt beam="1">  1        1 0.11817278E+00 0.79461336E+03</pdfrwt>
<pdfrwt beam="2">  1       -2 0.16216783E+00 0.79461336E+03</pdfrwt>
<totfact> 0.51090751E+00</totfact>
</mgrwt>
</event>
<event>
12    3  0.2269558E-007  0.5219424E+03  0.7818608E-02  0.1008205E+00
         -2   -1    0    0    0  501 -0.00000000000E+00  0.00000000000E+00  0.35044521446E+03  0.35044521446E+03  0.00000000000E+00 0.  1.
          1   -1    0    0  501    0  0.00000000000E+00 -0.00000000000E+00 -0.18328119022E+04  0.18328119022E+04  0.00000000000E+00 0. -1.
        -24    2    1    2    0    0  0.31404926386E+03  0.18964469378E+03  0.15062161209E+03  0.40532064760E+03  0.83701298260E+02 0.  0.
    5000000    2    1    2    0    0 -0.31404926386E+03 -0.18964469378E+03 -0.16329882999E+04  0.17779364691E+04  0.59984602244E+03 0.  0.
        -24    2    4    4    0    0  0.99543629379E+02  0.11101397149E+03 -0.25514635360E+03  0.30601591222E+03  0.79454645921E+02 0.  0.
         24    2    4    4    0    0 -0.41359289324E+03 -0.30065866527E+03 -0.13778419463E+04  0.14719205569E+04  0.81529028855E+02 0.  0.
         11    1    5    5    0    0  0.10645065091E+03  0.11307699588E+03 -0.25527823656E+03  0.29880616817E+03  0.00000000000E+00 0. -1.
        -12    1    5    5    0    0 -0.69070215354E+01 -0.20630243891E+01  0.13188295484E+00  0.72097440477E+01  0.00000000000E+00 0.  1.
         13    1    3    3    0    0  0.13562134248E+03  0.83226941802E+02  0.21137669703E+02  0.16052000953E+03  0.00000000000E+00 0. -1.
        -14    1    3    3    0    0  0.17842792138E+03  0.10641775198E+03  0.12948394239E+03  0.24480063808E+03  0.00000000000E+00 0.  1.
          4    1    6    6  502    0 -0.34921616297E+03 -0.22621879342E+03 -0.10435470856E+04  0.11234399809E+04  0.00000000000E+00 0. -1.
         -3    1    6    6    0  502 -0.64376730274E+02 -0.74439871849E+02 -0.33429486071E+03  0.34848057596E+03  0.00000000000E+00 0.  1.
<mgrwt>
<rscale>  0 0.52194236E+03</rscale>
<asrwt>0</asrwt>
<pdfrwt beam="1">  1        1 0.28197107E+00 0.52194236E+03</pdfrwt>
<pdfrwt beam="2">  1       -2 0.53914648E-01 0.52194236E+03</pdfrwt>
<totfact> 0.11876020E+01</totfact>
</mgrwt>
</event>
<event>
12    3  0.2269558E-007  0.7166085E+03  0.7818608E-02  0.9689243E-01
         -2   -1    0    0    0  501 -0.00000000000E+00  0.00000000000E+00  0.25869599598E+03  0.25869599598E+03  0.00000000000E+00 0.  1.
          1   -1    0    0  501    0  0.00000000000E+00 -0.00000000000E+00 -0.22087155237E+04  0.22087155237E+04  0.00000000000E+00 0. -1.
        -24    2    1    2    0    0  0.34295778207E+03 -0.53272147138E+03 -0.86314883495E+03  0.10736176452E+04  0.78846246174E+02 0.  0.
    5000000    2    1    2    0    0 -0.34295778207E+03  0.53272147138E+03 -0.10868706928E+04  0.13937938745E+04  0.59996771186E+03 0.  0.
        -24    2    4    4    0    0 -0.23652642164E+03 -0.68543698956E+01 -0.61987784443E+03  0.66789722203E+03  0.76461929436E+02 0.  0.
         24    2    4    4    0    0 -0.10643136043E+03  0.53957584128E+03 -0.46699284837E+03  0.72589665244E+03  0.79836749807E+02 0.  0.
         11    1    5    5    0    0 -0.17810285485E+03 -0.38509577345E+02 -0.45627920085E+03  0.49131896318E+03  0.00000000000E+00 0. -1.
        -12    1    5    5    0    0 -0.58423566793E+02  0.31655207450E+02 -0.16359864359E+03  0.17657825885E+03  0.00000000000E+00 0.  1.
         11    1    3    3    0    0  0.17085186451E+03 -0.28898291085E+03 -0.51923465955E+03  0.61830907648E+03  0.00000000000E+00 0. -1.
        -12    1    3    3    0    0  0.17210591756E+03 -0.24373856053E+03 -0.34391417539E+03  0.45530856876E+03  0.00000000000E+00 0.  1.
          4    1    6    6  502    0 -0.68556482083E+02  0.28771935754E+03 -0.20084597311E+03  0.35752136280E+03  0.00000000000E+00 0. -1.
         -3    1    6    6    0  502 -0.37874878346E+02  0.25185648373E+03 -0.26614687526E+03  0.36837528965E+03  0.00000000000E+00 0.  1.
<mgrwt>
<rscale>  0 0.71660854E+03</rscale>
<asrwt>0</asrwt>
<pdfrwt beam="1">  1        1 0.33980240E+00 0.71660854E+03</pdfrwt>
<pdfrwt beam="2">  1       -2 0.39799383E-01 0.71660854E+03</pdfrwt>
<totfact> 0.11830479E+01</totfact>
</mgrwt>
</event>
<event>
12    3  0.2269558E-007  0.8530302E+03  0.7818608E-02  0.9486279E-01
          1   -1    0    0  501    0  0.00000000000E+00  0.00000000000E+00  0.37999200464E+03  0.37999200464E+03  0.00000000000E+00 0. -1.
         -2   -1    0    0    0  501 -0.00000000000E+00 -0.00000000000E+00 -0.20166504986E+04  0.20166504986E+04  0.00000000000E+00 0.  1.
        -24    2    1    2    0    0  0.76466345997E+03 -0.11472098212E+02 -0.60048901539E+03  0.97592713408E+03  0.83695265017E+02 0.  0.
    5000000    2    1    2    0    0 -0.76466345997E+03  0.11472098212E+02 -0.10361694786E+04  0.14207153692E+04  0.59995262799E+03 0.  0.
        -24    2    4    4    0    0 -0.69262157449E+03 -0.18723556813E+03 -0.64069585752E+03  0.96512274124E+03  0.78669691793E+02 0.  0.
         24    2    4    4    0    0 -0.72041885482E+02  0.19870766634E+03 -0.39547362107E+03  0.45559262794E+03  0.80563563400E+02 0.  0.
         11    1    3    3    0    0  0.58063543836E+03  0.63631984305E+01 -0.41266047546E+03  0.71236694939E+03  0.00000000000E+00 0. -1.
        -12    1    3    3    0    0  0.18402802161E+03 -0.17835296642E+02 -0.18782853994E+03  0.26356018470E+03  0.00000000000E+00 0.  1.
         13    1    5    5    0    0 -0.51487005629E+03 -0.12831545723E+03 -0.42783798154E+03  0.68161673239E+03  0.00000000000E+00 0. -1.
        -14    1    5    5    0    0 -0.17775151820E+03 -0.58920110895E+02 -0.21285787597E+03  0.28350600885E+03  0.00000000000E+00 0.  1.
          2    1    6    6  502    0 -0.81136434877E+02  0.12951220490E+03 -0.30671918544E+03  0.34268526522E+03  0.00000000000E+00 0. -1.
         -1    1    6    6    0  502  0.90945493953E+01  0.69195461444E+02 -0.88754435629E+02  0.11290736272E+03  0.00000000000E+00 0.  1.
<mgrwt>
<rscale>  0 0.85303022E+03</rscale>
<asrwt>0</asrwt>
<pdfrwt beam="1">  1        1 0.58460308E-01 0.85303022E+03</pdfrwt>
<pdfrwt beam="2">  1       -2 0.31025393E+00 0.85303022E+03</pdfrwt>
<totfact> 0.15944890E+00</totfact>
</mgrwt>
</event>
<event>
12    3  0.2269558E-007  0.5149858E+03  0.7818608E-02  0.1009940E+00
         -2   -1    0    0    0  501 -0.00000000000E+00  0.00000000000E+00  0.19830464246E+03  0.19830464246E+03  0.00000000000E+00 0.  1.
          1   -1    0    0  501    0  0.00000000000E+00 -0.00000000000E+00 -0.20710586464E+04  0.20710586464E+04  0.00000000000E+00 0. -1.
        -24    2    1    2    0    0  0.18563676057E+03  0.44892866875E+03 -0.55377031604E+03  0.74103572772E+03  0.80463844823E+02 0.  0.
    5000000    2    1    2    0    0 -0.18563676057E+03 -0.44892866875E+03 -0.13189836879E+04  0.15283275612E+04  0.60005767118E+03 0.  0.
        -24    2    4    4    0    0 -0.46762681762E+02 -0.34637503139E+03 -0.23769312442E+03  0.43036252756E+03  0.80941169716E+02 0.  0.
         24    2    4    4    0    0 -0.13887407881E+03 -0.10255363736E+03 -0.10812905635E+04  0.10979650336E+04  0.80837330625E+02 0.  0.
         11    1    3    3    0    0  0.18613957732E+03  0.38572657180E+03 -0.49698180836E+03  0.65606695411E+03  0.00000000000E+00 0. -1.
        -12    1    3    3    0    0 -0.50281674378E+00  0.63202096948E+02 -0.56788507684E+02  0.84968773607E+02  0.00000000000E+00 0.  1.
         13    1    5    5    0    0 -0.61147518418E+02 -0.23497119200E+03 -0.19011345715E+03  0.30837251283E+03  0.00000000000E+00 0. -1.
        -14    1    5    5    0    0  0.14384836656E+02 -0.11140383939E+03 -0.47579667268E+02  0.12199001473E+03  0.00000000000E+00 0.  1.
          2    1    6    6  502    0 -0.38027434155E+02  0.20095204478E+01 -0.37244821987E+03  0.37438990425E+03  0.00000000000E+00 0. -1.
         -1    1    6    6    0  502 -0.10084664466E+03 -0.10456315781E+03 -0.70884234365E+03  0.72357512939E+03  0.00000000000E+00 0.  1.
<mgrwt>
<rscale>  0 0.51498582E+03</rscale>
<asrwt>0</asrwt>
<pdfrwt beam="1">  1        1 0.31862440E+00 0.51498582E+03</pdfrwt>
<pdfrwt beam="2">  1       -2 0.30508407E-01 0.51498582E+03</pdfrwt>
<totfact> 0.25057092E+01</totfact>
</mgrwt>
</event>
<event>
12    3  0.2269558E-007  0.4014751E+03  0.7818608E-02  0.1043270E+00
         -4   -1    0    0    0  501 -0.00000000000E+00  0.00000000000E+00  0.73675074855E+03  0.73675074855E+03  0.00000000000E+00 0.  1.
          3   -1    0    0  501    0  0.00000000000E+00 -0.00000000000E+00 -0.37664563222E+03  0.37664563222E+03  0.00000000000E+00 0. -1.
        -24    2    1    2    0    0  0.14718728736E+03  0.24744098225E+03  0.33300041523E+03  0.44744467309E+03  0.80164341671E+02 0.  0.
    5000000    2    1    2    0    0 -0.14718728736E+03 -0.24744098225E+03  0.27104701105E+02  0.66595170769E+03  0.59988821866E+03 0.  0.
        -24    2    4    4    0    0  0.44742892665E+02  0.88543765701E+02 -0.17986328989E+03  0.22019625503E+03  0.79332608598E+02 0.  0.
         24    2    4    4    0    0 -0.19193018003E+03 -0.33598474795E+03  0.20696799100E+03  0.44575545266E+03  0.78353234900E+02 0.  0.
         11    1    5    5    0    0 -0.13986075910E+02  0.57134721807E+02 -0.10190148697E+03  0.11766010285E+03  0.00000000000E+00 0. -1.
        -12    1    5    5    0    0  0.58728968575E+02  0.31409043895E+02 -0.77961802921E+02  0.10253615218E+03  0.00000000000E+00 0.  1.
         13    1    3    3    0    0  0.62117998730E+02  0.14162017470E+03  0.12402590971E+03  0.19823558189E+03  0.00000000000E+00 0. -1.
        -14    1    3    3    0    0  0.85069288632E+02  0.10582080755E+03  0.20897450552E+03  0.24920909120E+03  0.00000000000E+00 0.  1.
          4    1    6    6  502    0 -0.53632715978E+02 -0.83835353346E+02  0.93626300047E+02  0.13664083853E+03  0.00000000000E+00 0. -1.
         -3    1    6    6    0  502 -0.13829746405E+03 -0.25214939460E+03  0.11334169095E+03  0.30911461413E+03  0.00000000000E+00 0.  1.
<mgrwt>
<rscale>  0 0.40147510E+03</rscale>
<asrwt>0</asrwt>
<pdfrwt beam="1">  1        3 0.57945482E-01 0.40147510E+03</pdfrwt>
<pdfrwt beam="2">  1       -4 0.11334627E+00 0.40147510E+03</pdfrwt>
<totfact> 0.40057596E+00</totfact>
</mgrwt>
</event>
<event>
12    3  0.2269558E-007  0.5265821E+03  0.7818608E-02  0.1007064E+00
         -2   -1    0    0    0  501 -0.00000000000E+00  0.00000000000E+00  0.32247037731E+03  0.32247037731E+03  0.00000000000E+00 0.  1.
          1   -1    0    0  501    0  0.00000000000E+00 -0.00000000000E+00 -0.15176952390E+04  0.15176952390E+04  0.00000000000E+00 0. -1.
        -24    2    1    2    0    0  0.58053712395E+02 -0.36044371023E+03 -0.10612617438E+04  0.11252053739E+04  0.80751116964E+02 0.  0.
    5000000    2    1    2    0    0 -0.58053712395E+02  0.36044371023E+03 -0.13396311791E+03  0.71496024240E+03  0.59994343857E+03 0.  0.
        -24    2    4    4    0    0  0.25771105509E+03  0.17482050010E+03 -0.47914344511E+01  0.32155605291E+03  0.79988387601E+02 0.  0.
         24    2    4    4    0    0 -0.31576476748E+03  0.18562321014E+03 -0.12917168346E+03  0.39340418949E+03  0.62595271192E+02 0.  0.
         11    1    3    3    0    0  0.43889827299E+02 -0.28093313868E+03 -0.71089652767E+03  0.76565241357E+03  0.00000000000E+00 0. -1.
        -12    1    3    3    0    0  0.14163885096E+02 -0.79510571552E+02 -0.35036521610E+03  0.35955296033E+03  0.00000000000E+00 0.  1.
         13    1    5    5    0    0  0.18158513243E+03  0.16206122051E+03  0.69198315746E+01  0.24348487341E+03  0.00000000000E+00 0. -1.
        -14    1    5    5    0    0  0.76125922655E+02  0.12759279587E+02 -0.11711266026E+02  0.78071179494E+02  0.00000000000E+00 0.  1.
          4    1    6    6  502    0 -0.10037577926E+03  0.43257903511E+02 -0.12275181597E+02  0.10998737819E+03  0.00000000000E+00 0. -1.
         -3    1    6    6    0  502 -0.21538898822E+03  0.14236530663E+03 -0.11689650187E+03  0.28341681129E+03  0.00000000000E+00 0.  1.
<mgrwt>
<rscale>  0 0.52658215E+03</rscale>
<asrwt>0</asrwt>
<pdfrwt beam="1">  1        1 0.23349158E+00 0.52658215E+03</pdfrwt>
<pdfrwt beam="2">  1       -2 0.49610827E-01 0.52658215E+03</pdfrwt>
<totfact> 0.22828550E+01</totfact>
</mgrwt>
</event>
<event>
12    3  0.2269558E-007  0.8142201E+03  0.7818608E-02  0.9539659E-01
          3   -1    0    0  501    0  0.00000000000E+00  0.00000000000E+00  0.83327850276E+03  0.83327850276E+03  0.00000000000E+00 0. -1.
         -2   -1    0    0    0  501 -0.00000000000E+00 -0.00000000000E+00 -0.88504000627E+03  0.88504000627E+03  0.00000000000E+00 0.  1.
        -24    2    1    2    0    0  0.51636475449E+03  0.50957344763E+03 -0.21976013364E+03  0.76206574696E+03  0.78434865610E+02 0.  0.
    5000000    2    1    2    0    0 -0.51636475449E+03 -0.50957344763E+03  0.16799863013E+03  0.95625276207E+03  0.59991511652E+03 0.  0.
        -24    2    4    4    0    0 -0.33288125588E+03 -0.60137642779E+03  0.22547741906E+03  0.72776081338E+03  0.79575100249E+02 0.  0.
         24    2    4    4    0    0 -0.18348349861E+03  0.91802980159E+02 -0.57478788926E+02  0.22849194868E+03  0.82527437920E+02 0.  0.
         11    1    3    3    0    0  0.20839674351E+03  0.25891995390E+03 -0.90315933069E+02  0.34442083705E+03  0.00000000000E+00 0. -1.
        -12    1    3    3    0    0  0.30796801098E+03  0.25065349373E+03 -0.12944420057E+03  0.41764490990E+03  0.00000000000E+00 0.  1.
         13    1    5    5    0    0 -0.17842974918E+03 -0.26751814434E+03  0.13626155152E+03  0.34924252800E+03  0.00000000000E+00 0. -1.
        -14    1    5    5    0    0 -0.15445150671E+03 -0.33385828345E+03  0.89215867537E+02  0.37851828538E+03  0.00000000000E+00 0.  1.
          2    1    6    6  502    0 -0.81085770803E+02  0.64471944175E+02  0.80200642394E+01  0.10390310507E+03  0.00000000000E+00 0. -1.
         -1    1    6    6    0  502 -0.10239772780E+03  0.27331035984E+02 -0.65498853166E+02  0.12458884362E+03  0.00000000000E+00 0.  1.
<mgrwt>
<rscale>  0 0.81422014E+03</rscale>
<asrwt>0</asrwt>
<pdfrwt beam="1">  1        3 0.12819669E+00 0.81422014E+03</pdfrwt>
<pdfrwt beam="2">  1       -2 0.13616000E+00 0.81422014E+03</pdfrwt>
<totfact> 0.76990541E-01</totfact>
</mgrwt>
</event>
<event>
12    3  0.2269558E-007  0.5526991E+03  0.7818608E-02  0.1000871E+00
         -2   -1    0    0    0  501 -0.00000000000E+00  0.00000000000E+00  0.14499858294E+04  0.14499858294E+04  0.00000000000E+00 0.  1.
          1   -1    0    0  501    0  0.00000000000E+00 -0.00000000000E+00 -0.56924497627E+03  0.56924497627E+03  0.00000000000E+00 0. -1.
        -24    2    1    2    0    0  0.15457375715E+03  0.38834862627E+03 -0.37412882720E+03  0.56681353585E+03  0.81225015573E+02 0.  0.
    5000000    2    1    2    0    0 -0.15457375715E+03 -0.38834862627E+03  0.12548696803E+04  0.14524172698E+04  0.60009191725E+03 0.  0.
        -24    2    4    4    0    0 -0.34314998967E+03 -0.16549721291E+03  0.45318839264E+03  0.59720949856E+03  0.78346812686E+02 0.  0.
         24    2    4    4    0    0  0.18857623252E+03 -0.22285141336E+03  0.80168128768E+03  0.85520777125E+03  0.58853182467E+02 0.  0.
         11    1    3    3    0    0  0.73827234061E+02  0.27046451817E+03 -0.27642608272E+03  0.39371677039E+03  0.00000000000E+00 0. -1.
        -12    1    3    3    0    0  0.80746523093E+02  0.11788410810E+03 -0.97702744480E+02  0.17309676546E+03  0.00000000000E+00 0.  1.
         11    1    5    5    0    0 -0.13924685062E+03 -0.10060763325E+03  0.24008453783E+03  0.29521545789E+03  0.00000000000E+00 0. -1.
        -12    1    5    5    0    0 -0.20390313906E+03 -0.64889579663E+02  0.21310385481E+03  0.30199404067E+03  0.00000000000E+00 0.  1.
          4    1    6    6  502    0  0.46095213582E+02 -0.24617288534E+02  0.17573183733E+03  0.18333700735E+03  0.00000000000E+00 0. -1.
         -3    1    6    6    0  502  0.14248101894E+03 -0.19823412483E+03  0.62594945034E+03  0.67187076390E+03  0.00000000000E+00 0.  1.
<mgrwt>
<rscale>  0 0.55269913E+03</rscale>
<asrwt>0</asrwt>
<pdfrwt beam="1">  1        1 0.87576151E-01 0.55269913E+03</pdfrwt>
<pdfrwt beam="2">  1       -2 0.22307474E+00 0.55269913E+03</pdfrwt>
<totfact> 0.32493385E+00</totfact>
</mgrwt>
</event>
<event>
12    3  0.2269558E-007  0.6881308E+03  0.7818608E-02  0.9737748E-01
         -2   -1    0    0    0  501 -0.00000000000E+00  0.00000000000E+00  0.48960040349E+03  0.48960040349E+03  0.00000000000E+00 0.  1.
          1   -1    0    0  501    0  0.00000000000E+00 -0.00000000000E+00 -0.17591701305E+04  0.17591701305E+04  0.00000000000E+00 0. -1.
        -24    2    1    2    0    0 -0.33694027514E+03 -0.45055415039E+03  0.16781131728E+03  0.59268671693E+03  0.81173362445E+02 0.  0.
    5000000    2    1    2    0    0  0.33694027514E+03  0.45055415039E+03 -0.14373810443E+04  0.16560838171E+04  0.60001795906E+03 0.  0.
        -24    2    4    4    0    0  0.22683776437E+03 -0.90650824954E+02 -0.56169137058E+03  0.61779973622E+03  0.80662103120E+02 0.  0.
         24    2    4    4    0    0  0.11010251077E+03  0.54120497534E+03 -0.87568967377E+03  0.10382840809E+04  0.78587783217E+02 0.  0.
         13    1    3    3    0    0 -0.27142725670E+03 -0.40253258176E+03  0.12724907933E+03  0.50189397610E+03  0.00000000000E+00 0. -1.
        -14    1    3    3    0    0 -0.65513018437E+02 -0.48021568627E+02  0.40562237956E+02  0.90792740823E+02  0.00000000000E+00 0.  1.
         13    1    5    5    0    0  0.58335510906E+02 -0.64091975522E+02 -0.19122643994E+03  0.20994848057E+03  0.00000000000E+00 0. -1.
        -14    1    5    5    0    0  0.16850225347E+03 -0.26558849432E+02 -0.37046493064E+03  0.40785125566E+03  0.00000000000E+00 0.  1.
          2    1    6    6  502    0  0.81214061559E+02  0.39999633731E+03 -0.57858009781E+03  0.70805912411E+03  0.00000000000E+00 0. -1.
         -1    1    6    6    0  502  0.28888449206E+02  0.14120863803E+03 -0.29710957596E+03  0.33022495678E+03  0.00000000000E+00 0.  1.
<mgrwt>
<rscale>  0 0.68813083E+03</rscale>
<asrwt>0</asrwt>
<pdfrwt beam="1">  1        1 0.27064156E+00 0.68813083E+03</pdfrwt>
<pdfrwt beam="2">  1       -2 0.75323139E-01 0.68813083E+03</pdfrwt>
<totfact> 0.63195677E+00</totfact>
</mgrwt>
</event>
<event>
12    3  0.2269558E-007  0.7040563E+03  0.7818608E-02  0.9710320E-01
          1   -1    0    0  501    0  0.00000000000E+00  0.00000000000E+00  0.10054887072E+04  0.10054887072E+04  0.00000000000E+00 0. -1.
         -2   -1    0    0    0  501 -0.00000000000E+00 -0.00000000000E+00 -0.84723605549E+03  0.84723605549E+03  0.00000000000E+00 0.  1.
        -24    2    1    2    0    0  0.69427320106E+03 -0.69490809915E+02 -0.36792072147E+03  0.79268601186E+03  0.78365845509E+02 0.  0.
    5000000    2    1    2    0    0 -0.69427320106E+03  0.69490809915E+02  0.52617337320E+03  0.10600387509E+04  0.59998290331E+03 0.  0.
        -24    2    4    4    0    0 -0.53565387604E+03  0.14317775351E+02  0.64223603528E+03  0.84024441178E+03  0.80084161438E+02 0.  0.
         24    2    4    4    0    0 -0.15861932503E+03  0.55173034564E+02 -0.11606266208E+03  0.21979433907E+03  0.81454625067E+02 0.  0.
         11    1    5    5    0    0 -0.45723149021E+03  0.30202718771E+02  0.50941372176E+03  0.68518258864E+03  0.00000000000E+00 0. -1.
        -12    1    5    5    0    0 -0.78422385823E+02 -0.15884943420E+02  0.13282231352E+03  0.15506182314E+03  0.00000000000E+00 0.  1.
         13    1    3    3    0    0  0.62759387077E+03 -0.75026772323E+02 -0.35364749563E+03  0.72427179591E+03  0.00000000000E+00 0. -1.
        -14    1    3    3    0    0  0.66679330293E+02  0.55359624078E+01 -0.14273225840E+02  0.68414215949E+02  0.00000000000E+00 0.  1.
          2    1    6    6  502    0 -0.69454236261E+02  0.76910823626E+01 -0.55969244804E+01  0.70102562337E+02  0.00000000000E+00 0. -1.
         -1    1    6    6    0  502 -0.89165088766E+02  0.47481952202E+02 -0.11046573760E+03  0.14969177674E+03  0.00000000000E+00 0.  1.
<mgrwt>
<rscale>  0 0.70405629E+03</rscale>
<asrwt>0</asrwt>
<pdfrwt beam="1">  1        1 0.15469057E+00 0.70405629E+03</pdfrwt>
<pdfrwt beam="2">  1       -2 0.13034401E+00 0.70405629E+03</pdfrwt>
<totfact> 0.58440172E+00</totfact>
</mgrwt>
</event>
<event>
12    3  0.2269558E-007  0.8326188E+03  0.7818608E-02  0.9513967E-01
         -2   -1    0    0    0  501 -0.00000000000E+00  0.00000000000E+00  0.42955593971E+03  0.42955593971E+03  0.00000000000E+00 0.  1.
          1   -1    0    0  501    0  0.00000000000E+00 -0.00000000000E+00 -0.20556569864E+04  0.20556569864E+04  0.00000000000E+00 0. -1.
        -24    2    1    2    0    0 -0.59487535507E+03 -0.52117280376E+03 -0.35087861248E+03  0.86915039591E+03  0.82515638307E+02 0.  0.
    5000000    2    1    2    0    0  0.59487535507E+03  0.52117280376E+03 -0.12752224343E+04  0.16160625302E+04  0.59997338723E+03 0.  0.
        -24    2    4    4    0    0  0.52005802509E+03  0.57039862332E+03 -0.75570490087E+03  0.10828079263E+04  0.74620165708E+02 0.  0.
         24    2    4    4    0    0  0.74817329976E+02 -0.49225819564E+02 -0.51951753339E+03  0.53325460394E+03  0.80257030498E+02 0.  0.
         13    1    3    3    0    0 -0.56517848535E+03 -0.47151641436E+03 -0.33768654769E+03  0.80980655332E+03  0.00000000000E+00 0. -1.
        -14    1    3    3    0    0 -0.29696869713E+02 -0.49656389400E+02 -0.13192064790E+02  0.59343842583E+02  0.00000000000E+00 0.  1.
         13    1    5    5    0    0  0.24920217566E+03  0.21853985660E+03 -0.32282594216E+03  0.46268561919E+03  0.00000000000E+00 0. -1.
        -14    1    5    5    0    0  0.27085584943E+03  0.35185876672E+03 -0.43287895870E+03  0.62012230711E+03  0.00000000000E+00 0.  1.
          4    1    6    6  502    0  0.44093946336E+02 -0.47889717233E+02 -0.16456975727E+03  0.17697713448E+03  0.00000000000E+00 0. -1.
         -3    1    6    6    0  502  0.30723383640E+02 -0.13361023311E+01 -0.35494777612E+03  0.35627746946E+03  0.00000000000E+00 0.  1.
<mgrwt>
<rscale>  0 0.83261882E+03</rscale>
<asrwt>0</asrwt>
<pdfrwt beam="1">  1        1 0.31625492E+00 0.83261882E+03</pdfrwt>
<pdfrwt beam="2">  1       -2 0.66085530E-01 0.83261882E+03</pdfrwt>
<totfact> 0.52109739E+00</totfact>
</mgrwt>
</event>
<event>
12    3  0.2269558E-007  0.7867983E+03  0.7818608E-02  0.9579325E-01
         -2   -1    0    0    0  501 -0.00000000000E+00  0.00000000000E+00  0.24284890626E+03  0.24284890626E+03  0.00000000000E+00 0.  1.
          1   -1    0    0  501    0  0.00000000000E+00 -0.00000000000E+00 -0.34847457398E+04  0.34847457398E+04  0.00000000000E+00 0. -1.
        -24    2    1    2    0    0  0.58354057831E+03  0.51850929799E+03 -0.93266975227E+03  0.12172545838E+04  0.49642283246E+02 0.  0.
    5000000    2    1    2    0    0 -0.58354057831E+03 -0.51850929799E+03 -0.23092270813E+04  0.25103400623E+04  0.59992167557E+03 0.  0.
        -24    2    4    4    0    0 -0.12660509139E+03 -0.73556780186E+02 -0.69510132755E+02  0.18016122526E+03  0.78657227601E+02 0.  0.
         24    2    4    4    0    0 -0.45693548692E+03 -0.44495251780E+03 -0.22397169485E+04  0.23301788370E+04  0.81416342153E+02 0.  0.
         11    1    5    5    0    0 -0.60266756875E+02 -0.15837842924E+02  0.81501852152E+01  0.62843812517E+02  0.00000000000E+00 0. -1.
        -12    1    5    5    0    0 -0.66338334511E+02 -0.57718937263E+02 -0.77660317971E+02  0.11731741274E+03  0.00000000000E+00 0.  1.
         13    1    3    3    0    0  0.21021463414E+03  0.19195019099E+03 -0.30388852355E+03  0.41639320716E+03  0.00000000000E+00 0. -1.
        -14    1    3    3    0    0  0.37332594417E+03  0.32655910700E+03 -0.62878122872E+03  0.80086137661E+03  0.00000000000E+00 0.  1.
          4    1    6    6  502    0 -0.10587455068E+03 -0.15316512066E+03 -0.68027427736E+03  0.70529573025E+03  0.00000000000E+00 0. -1.
         -3    1    6    6    0  502 -0.35106093624E+03 -0.29178739714E+03 -0.15594426712E+04  0.16248831068E+04  0.00000000000E+00 0.  1.
<mgrwt>
<rscale>  0 0.78679832E+03</rscale>
<asrwt>0</asrwt>
<pdfrwt beam="1">  1        1 0.53611467E+00 0.78679832E+03</pdfrwt>
<pdfrwt beam="2">  1       -2 0.37361374E-01 0.78679832E+03</pdfrwt>
<totfact> 0.16396652E+00</totfact>
</mgrwt>
</event>
<event>
12    3  0.2269558E-007  0.1310527E+04  0.7818608E-02  0.9021259E-01
         -2   -1    0    0    0  501 -0.00000000000E+00  0.00000000000E+00  0.65429082544E+03  0.65429082544E+03  0.00000000000E+00 0.  1.
          1   -1    0    0  501    0  0.00000000000E+00 -0.00000000000E+00 -0.27087019196E+04  0.27087019196E+04  0.00000000000E+00 0. -1.
        -24    2    1    2    0    0 -0.49701092582E+03 -0.11401554239E+04 -0.70381834618E+03  0.14315257739E+04  0.83255784621E+02 0.  0.
    5000000    2    1    2    0    0  0.49701092582E+03  0.11401554239E+04 -0.13505927480E+04  0.19314669712E+04  0.59957454810E+03 0.  0.
        -24    2    4    4    0    0  0.62268879529E+03  0.88768713690E+03 -0.10510765461E+04  0.15121349484E+04  0.77848619390E+02 0.  0.
         24    2    4    4    0    0 -0.12567786946E+03  0.25246828704E+03 -0.29951620187E+03  0.41933202280E+03  0.81204847926E+02 0.  0.
         11    1    5    5    0    0  0.28448097969E+03  0.47173717198E+03 -0.52104425703E+03  0.75825622650E+03  0.00000000000E+00 0. -1.
        -12    1    5    5    0    0  0.33820781560E+03  0.41594996492E+03 -0.53003228905E+03  0.75387872186E+03  0.00000000000E+00 0.  1.
         13    1    3    3    0    0 -0.16295815706E+03 -0.37589123417E+03 -0.18743110139E+03  0.45053301616E+03  0.00000000000E+00 0. -1.
        -14    1    3    3    0    0 -0.33405276876E+03 -0.76426418977E+03 -0.51638724478E+03  0.98099275769E+03  0.00000000000E+00 0.  1.
          4    1    6    6  502    0 -0.87419190831E+02  0.22972600963E+03 -0.27373984378E+03  0.36789897594E+03  0.00000000000E+00 0. -1.
         -3    1    6    6    0  502 -0.38258678633E+02  0.22742277412E+02 -0.25776358090E+02  0.51433046857E+02  0.00000000000E+00 0.  1.
<mgrwt>
<rscale>  0 0.13105265E+04</rscale>
<asrwt>0</asrwt>
<pdfrwt beam="1">  1        1 0.41672337E+00 0.13105265E+04</pdfrwt>
<pdfrwt beam="2">  1       -2 0.10066013E+00 0.13105265E+04</pdfrwt>
<totfact> 0.67362433E-01</totfact>
</mgrwt>
</event>
<event>
12    3  0.2269558E-007  0.7255071E+03  0.7818608E-02  0.9674579E-01
         -2   -1    0    0    0  501 -0.00000000000E+00  0.00000000000E+00  0.47105402495E+03  0.47105402495E+03  0.00000000000E+00 0.  1.
          3   -1    0    0  501    0  0.00000000000E+00 -0.00000000000E+00 -0.23554312163E+04  0.23554312163E+04  0.00000000000E+00 0. -1.
        -24    2    1    2    0    0  0.15072836555E+03  0.58819675145E+03 -0.18751962901E+04  0.19726895991E+04  0.80303608262E+02 0.  0.
    5000000    2    1    2    0    0 -0.15072836555E+03 -0.58819675145E+03 -0.91809012367E+01  0.85379564210E+03  0.60015685527E+03 0.  0.
        -24    2    4    4    0    0 -0.46342524003E+01 -0.66635092899E+03 -0.12123486460E+02  0.67040739456E+03  0.72484887314E+02 0.  0.
         24    2    4    4    0    0 -0.14609411315E+03  0.78154177543E+02  0.29425852238E+01  0.18338824754E+03  0.78555872878E+02 0.  0.
         11    1    5    5    0    0 -0.31024781430E+02 -0.14537119165E+03 -0.37745954789E+01  0.14869286464E+03  0.00000000000E+00 0. -1.
        -12    1    5    5    0    0  0.26390529030E+02 -0.52097973735E+03 -0.83488909815E+01  0.52171452992E+03  0.00000000000E+00 0.  1.
         13    1    3    3    0    0  0.15631218778E+03  0.49884880528E+03 -0.15826981191E+04  0.16667984182E+04  0.00000000000E+00 0. -1.
        -14    1    3    3    0    0 -0.55838222208E+01  0.89347946177E+02 -0.29249817099E+03  0.30589118096E+03  0.00000000000E+00 0.  1.
          4    1    6    6  502    0 -0.31280408002E+02  0.34821961029E+01 -0.28950678781E+02  0.42763669351E+02  0.00000000000E+00 0. -1.
         -3    1    6    6    0  502 -0.11481370515E+03  0.74671981440E+02  0.31893264005E+02  0.14062457819E+03  0.00000000000E+00 0.  1.
<mgrwt>
<rscale>  0 0.72550706E+03</rscale>
<asrwt>0</asrwt>
<pdfrwt beam="1">  1        3 0.36237403E+00 0.72550706E+03</pdfrwt>
<pdfrwt beam="2">  1       -2 0.72469851E-01 0.72550706E+03</pdfrwt>
<totfact> 0.13028334E-01</totfact>
</mgrwt>
</event>
<event>
12    3  0.2269558E-007  0.9748613E+03  0.7818608E-02  0.9336554E-01
         -2   -1    0    0    0  501 -0.00000000000E+00  0.00000000000E+00  0.12576003810E+04  0.12576003810E+04  0.00000000000E+00 0.  1.
          1   -1    0    0  501    0  0.00000000000E+00 -0.00000000000E+00 -0.15201164685E+04  0.15201164685E+04  0.00000000000E+00 0. -1.
        -24    2    1    2    0    0  0.35848132264E+03  0.84687431821E+03 -0.10716830270E+04  0.14136793546E+04  0.65420467175E+02 0.  0.
    5000000    2    1    2    0    0 -0.35848132264E+03 -0.84687431821E+03  0.80916693952E+03  0.13640374949E+04  0.60011847327E+03 0.  0.
        -24    2    4    4    0    0 -0.41999584216E+03 -0.42832190773E+03  0.68893131620E+03  0.91698328800E+03  0.79848781804E+02 0.  0.
         24    2    4    4    0    0  0.61514519517E+02 -0.41855241047E+03  0.12023562333E+03  0.44705420690E+03  0.80191660218E+02 0.  0.
         11    1    3    3    0    0  0.27679773681E+03  0.60706187144E+03 -0.81098592648E+03  0.10501615475E+04  0.00000000000E+00 0. -1.
        -12    1    3    3    0    0  0.81683585834E+02  0.23981244676E+03 -0.26069710055E+03  0.36351780707E+03  0.00000000000E+00 0.  1.
         13    1    5    5    0    0 -0.17881105938E+03 -0.13049388922E+03  0.27155979443E+03  0.35035235411E+03  0.00000000000E+00 0. -1.
        -14    1    5    5    0    0 -0.24118478278E+03 -0.29782801851E+03  0.41737152177E+03  0.56663093389E+03  0.00000000000E+00 0.  1.
          4    1    6    6  502    0  0.21645961680E+02 -0.26715043616E+03  0.39567009560E+02  0.27093071336E+03  0.00000000000E+00 0. -1.
         -3    1    6    6    0  502  0.39868557836E+02 -0.15140197432E+03  0.80668613769E+02  0.17612349355E+03  0.00000000000E+00 0.  1.
<mgrwt>
<rscale>  0 0.97486134E+03</rscale>
<asrwt>0</asrwt>
<pdfrwt beam="1">  1        1 0.23386407E+00 0.97486134E+03</pdfrwt>
<pdfrwt beam="2">  1       -2 0.19347698E+00 0.97486134E+03</pdfrwt>
<totfact> 0.81851342E-01</totfact>
</mgrwt>
</event>
<event>
12    3  0.2269558E-007  0.6019255E+03  0.7818608E-02  0.9901419E-01
         -2   -1    0    0    0  501 -0.00000000000E+00  0.00000000000E+00  0.79507016136E+03  0.79507016136E+03  0.00000000000E+00 0.  1.
          1   -1    0    0  501    0  0.00000000000E+00 -0.00000000000E+00 -0.17287490623E+04  0.17287490623E+04  0.00000000000E+00 0. -1.
        -24    2    1    2    0    0  0.48315644692E+03  0.27468743998E+03 -0.14511326063E+04  0.15559631112E+04  0.79636803364E+02 0.  0.
    5000000    2    1    2    0    0 -0.48315644692E+03 -0.27468743998E+03  0.51745370532E+03  0.96785611251E+03  0.60007814115E+03 0.  0.
        -24    2    4    4    0    0 -0.39145487502E+03 -0.44812689749E+02  0.57506976531E+03  0.70172636041E+03  0.80433535131E+02 0.  0.
         24    2    4    4    0    0 -0.91701571895E+02 -0.22987475023E+03 -0.57616059996E+02  0.26612975210E+03  0.79081322063E+02 0.  0.
         11    1    5    5    0    0 -0.21070857743E+03 -0.14645540984E+01  0.36304367331E+03  0.41976297866E+03  0.00000000000E+00 0. -1.
        -12    1    5    5    0    0 -0.18074629759E+03 -0.43348135650E+02  0.21202609200E+03  0.28196338175E+03  0.00000000000E+00 0.  1.
         11    1    3    3    0    0  0.17123959254E+03  0.69693661385E+02 -0.56329280583E+03  0.59285663494E+03  0.00000000000E+00 0. -1.
        -12    1    3    3    0    0  0.31191685438E+03  0.20499377860E+03 -0.88783980047E+03  0.96310647625E+03  0.00000000000E+00 0.  1.
          4    1    6    6  502    0 -0.10934475060E+01  0.76778405591E+00 -0.14552598556E+02  0.14613803220E+02  0.00000000000E+00 0. -1.
         -3    1    6    6    0  502 -0.90608124389E+02 -0.23064253429E+03 -0.43063461440E+02  0.25151594888E+03  0.00000000000E+00 0.  1.
<mgrwt>
<rscale>  0 0.60192548E+03</rscale>
<asrwt>0</asrwt>
<pdfrwt beam="1">  1        1 0.26596139E+00 0.60192548E+03</pdfrwt>
<pdfrwt beam="2">  1       -2 0.12231849E+00 0.60192548E+03</pdfrwt>
<totfact> 0.21628153E+00</totfact>
</mgrwt>
</event>
<event>
12    3  0.2269558E-007  0.1172306E+04  0.7818608E-02  0.9137448E-01
         -2   -1    0    0    0  501 -0.00000000000E+00  0.00000000000E+00  0.14576430432E+04  0.14576430432E+04  0.00000000000E+00 0.  1.
          1   -1    0    0  501    0  0.00000000000E+00 -0.00000000000E+00 -0.21968056820E+04  0.21968056820E+04  0.00000000000E+00 0. -1.
        -24    2    1    2    0    0  0.11250927681E+04  0.33934343104E+02 -0.17119583307E+04  0.20503732440E+04  0.79017954414E+02 0.  0.
    5000000    2    1    2    0    0 -0.11250927681E+04 -0.33934343104E+02  0.97279569195E+03  0.16040754811E+04  0.59978447323E+03 0.  0.
        -24    2    4    4    0    0 -0.10631535902E+04 -0.13793916962E+03  0.66509575245E+03  0.12642319059E+04  0.81284568514E+02 0.  0.
         24    2    4    4    0    0 -0.61939177908E+02  0.10400482652E+03  0.30769993950E+03  0.33984357522E+03  0.78491637441E+02 0.  0.
         11    1    5    5    0    0 -0.24203860727E+03 -0.38848985686E+02  0.11380955733E+03  0.27026754603E+03  0.00000000000E+00 0. -1.
        -12    1    5    5    0    0 -0.82111498293E+03 -0.99090183936E+02  0.55128619512E+03  0.99396435986E+03  0.00000000000E+00 0.  1.
         11    1    3    3    0    0  0.82769211356E+03 -0.84593693675E+01 -0.12375397912E+04  0.14888420100E+04  0.00000000000E+00 0. -1.
        -12    1    3    3    0    0  0.29740065455E+03  0.42393712471E+02 -0.47441853952E+03  0.56153123406E+03  0.00000000000E+00 0.  1.
          2    1    6    6  502    0 -0.15696094122E+02  0.96067967717E+02  0.20565516316E+03  0.22752904853E+03  0.00000000000E+00 0. -1.
         -1    1    6    6    0  502 -0.46243083786E+02  0.79368588009E+01  0.10204477634E+03  0.11231452668E+03  0.00000000000E+00 0.  1.
<mgrwt>
<rscale>  0 0.11723062E+04</rscale>
<asrwt>0</asrwt>
<pdfrwt beam="1">  1        1 0.33797010E+00 0.11723062E+04</pdfrwt>
<pdfrwt beam="2">  1       -2 0.22425278E+00 0.11723062E+04</pdfrwt>
<totfact> 0.17510185E-01</totfact>
</mgrwt>
</event>
<event>
12    3  0.2269558E-007  0.7098020E+03  0.7818608E-02  0.9700615E-01
         -2   -1    0    0    0  501 -0.00000000000E+00  0.00000000000E+00  0.34111387567E+03  0.34111387567E+03  0.00000000000E+00 0.  1.
          1   -1    0    0  501    0  0.00000000000E+00 -0.00000000000E+00 -0.15296588435E+04  0.15296588435E+04  0.00000000000E+00 0. -1.
        -24    2    1    2    0    0 -0.39676829323E+03 -0.42565538195E+03 -0.33563092943E+03  0.67658688924E+03  0.80710068864E+02 0.  0.
    5000000    2    1    2    0    0  0.39676829323E+03  0.42565538195E+03 -0.85291403845E+03  0.11941858300E+04  0.60000821397E+03 0.  0.
        -24    2    4    4    0    0  0.15204777210E+03  0.53103634613E+03 -0.58416262602E+03  0.80764368408E+03  0.76968960508E+02 0.  0.
         24    2    4    4    0    0  0.24472052113E+03 -0.10538096419E+03 -0.26875141242E+03  0.38654214589E+03  0.78703416665E+02 0.  0.
         11    1    5    5    0    0  0.61340998377E+02  0.32609599327E+03 -0.37993435595E+03  0.50443178899E+03  0.00000000000E+00 0. -1.
        -12    1    5    5    0    0  0.90706773725E+02  0.20494035286E+03 -0.20422827007E+03  0.30321189510E+03  0.00000000000E+00 0.  1.
         13    1    3    3    0    0 -0.20903168977E+03 -0.27583657374E+03 -0.17684541591E+03  0.38865712893E+03  0.00000000000E+00 0. -1.
        -14    1    3    3    0    0 -0.18773660346E+03 -0.14981880821E+03 -0.15878551352E+03  0.28792976032E+03  0.00000000000E+00 0.  1.
          2    1    6    6  502    0  0.10614330396E+03 -0.49708045009E+01 -0.11356925626E+03  0.15552840846E+03  0.00000000000E+00 0. -1.
         -1    1    6    6    0  502  0.13857721717E+03 -0.10041015969E+03 -0.15518215617E+03  0.23101373742E+03  0.00000000000E+00 0.  1.
<mgrwt>
<rscale>  0 0.70980200E+03</rscale>
<asrwt>0</asrwt>
<pdfrwt beam="1">  1        1 0.23533213E+00 0.70980200E+03</pdfrwt>
<pdfrwt beam="2">  1       -2 0.52479057E-01 0.70980200E+03</pdfrwt>
<totfact> 0.19442675E+01</totfact>
</mgrwt>
</event>
<event>
12    3  0.2269558E-007  0.3512554E+03  0.7818608E-02  0.1062101E+00
         -2   -1    0    0    0  501 -0.00000000000E+00  0.00000000000E+00  0.39234520030E+03  0.39234520030E+03  0.00000000000E+00 0.  1.
          1   -1    0    0  501    0  0.00000000000E+00 -0.00000000000E+00 -0.16869808940E+04  0.16869808940E+04  0.00000000000E+00 0. -1.
        -24    2    1    2    0    0 -0.15017957194E+03 -0.22821675790E+03 -0.13843019616E+04  0.14134723173E+04  0.83518133679E+02 0.  0.
    5000000    2    1    2    0    0  0.15017957194E+03  0.22821675790E+03  0.89666267864E+02  0.66585377697E+03  0.60057007943E+03 0.  0.
        -24    2    4    4    0    0  0.22297162502E+03  0.62668452924E+02 -0.19928325076E+03  0.31574353225E+03  0.79602032429E+02 0.  0.
         24    2    4    4    0    0 -0.72792053085E+02  0.16554830498E+03  0.28894951862E+03  0.35011024472E+03  0.79877624354E+02 0.  0.
         11    1    3    3    0    0 -0.56919911792E+02 -0.10563507013E+03 -0.81148630124E+03  0.82031010082E+03  0.00000000000E+00 0. -1.
        -12    1    3    3    0    0 -0.93259660146E+02 -0.12258168777E+03 -0.57281566031E+03  0.59316221650E+03  0.00000000000E+00 0.  1.
         13    1    5    5    0    0  0.18296300469E+03  0.48713200754E+02 -0.11531271193E+03  0.22168775010E+03  0.00000000000E+00 0. -1.
        -14    1    5    5    0    0  0.40008620335E+02  0.13955252170E+02 -0.83970538830E+02  0.94055782148E+02  0.00000000000E+00 0.  1.
          4    1    6    6  502    0 -0.42379636477E+02  0.17850176817E+02  0.82523925149E+02  0.94471480470E+02  0.00000000000E+00 0. -1.
         -3    1    6    6    0  502 -0.30412416608E+02  0.14769812816E+03  0.20642559348E+03  0.25563876425E+03  0.00000000000E+00 0.  1.
<mgrwt>
<rscale>  0 0.35125539E+03</rscale>
<asrwt>0</asrwt>
<pdfrwt beam="1">  1        1 0.25953553E+00 0.35125539E+03</pdfrwt>
<pdfrwt beam="2">  1       -2 0.60360799E-01 0.35125539E+03</pdfrwt>
<totfact> 0.12238840E+01</totfact>
</mgrwt>
</event>
<event>
12    3  0.2269558E-007  0.9320251E+03  0.7818608E-02  0.9386411E-01
         -2   -1    0    0    0  501 -0.00000000000E+00  0.00000000000E+00  0.58465420318E+03  0.58465420318E+03  0.00000000000E+00 0.  1.
          1   -1    0    0  501    0  0.00000000000E+00 -0.00000000000E+00 -0.18941356094E+04  0.18941356094E+04  0.00000000000E+00 0. -1.
        -24    2    1    2    0    0  0.72606186057E+03 -0.46781340259E+03 -0.11092558029E+04  0.14081631778E+04  0.80373465451E+02 0.  0.
    5000000    2    1    2    0    0 -0.72606186057E+03  0.46781340259E+03 -0.20022560323E+03  0.10706266347E+04  0.60011323413E+03 0.  0.
        -24    2    4    4    0    0  0.64439240389E+02  0.11691710025E+02  0.59374861389E+02  0.11865652784E+03  0.79151030631E+02 0.  0.
         24    2    4    4    0    0 -0.79050110096E+03  0.45612169257E+03 -0.25960046462E+03  0.95197010688E+03  0.76913549595E+02 0.  0.
         11    1    3    3    0    0  0.64510557287E+03 -0.44144780141E+03 -0.10155642024E+04  0.12815646728E+04  0.00000000000E+00 0. -1.
        -12    1    3    3    0    0  0.80956287702E+02 -0.26365601188E+02 -0.93691600578E+02  0.12659850498E+03  0.00000000000E+00 0.  1.
         11    1    5    5    0    0  0.38500344774E+02 -0.17489891438E+02  0.66657968061E+02  0.78939581682E+02  0.00000000000E+00 0. -1.
        -12    1    5    5    0    0  0.25938895616E+02  0.29181601463E+02 -0.72831066712E+01  0.39716946163E+02  0.00000000000E+00 0.  1.
          4    1    6    6  502    0 -0.61817665262E+03  0.31878598815E+03 -0.19755973917E+03  0.72304683847E+03  0.00000000000E+00 0. -1.
         -3    1    6    6    0  502 -0.17232444834E+03  0.13733570442E+03 -0.62040725450E+02  0.22892326841E+03  0.00000000000E+00 0.  1.
<mgrwt>
<rscale>  0 0.93202506E+03</rscale>
<asrwt>0</asrwt>
<pdfrwt beam="1">  1        1 0.29140548E+00 0.93202506E+03</pdfrwt>
<pdfrwt beam="2">  1       -2 0.89946800E-01 0.93202506E+03</pdfrwt>
<totfact> 0.33122143E+00</totfact>
</mgrwt>
</event>
<event>
12    3  0.2269558E-007  0.7474799E+03  0.7818608E-02  0.9639312E-01
          1   -1    0    0  501    0  0.00000000000E+00  0.00000000000E+00  0.12240718412E+04  0.12240718412E+04  0.00000000000E+00 0. -1.
         -2   -1    0    0    0  501 -0.00000000000E+00 -0.00000000000E+00 -0.52733988025E+03  0.52733988025E+03  0.00000000000E+00 0.  1.
        -24    2    1    2    0    0 -0.58388071448E+03 -0.27528417358E+03  0.56253457520E+03  0.85995605946E+03  0.79882482161E+02 0.  0.
    5000000    2    1    2    0    0  0.58388071448E+03  0.27528417358E+03  0.13419738580E+03  0.89145566203E+03  0.59998849493E+03 0.  0.
        -24    2    4    4    0    0  0.45883030301E+03  0.43752716423E+03  0.93445179851E+01  0.63860292873E+03  0.75967849501E+02 0.  0.
         24    2    4    4    0    0  0.12505041146E+03 -0.16224299065E+03  0.12485286782E+03  0.25285273330E+03  0.79911655684E+02 0.  0.
         11    1    5    5    0    0  0.12218430274E+03  0.74929167208E+02  0.11819448929E+02  0.14381614411E+03  0.00000000000E+00 0. -1.
        -12    1    5    5    0    0  0.33664600028E+03  0.36259799702E+03 -0.24749309439E+01  0.49478678461E+03  0.00000000000E+00 0.  1.
         11    1    3    3    0    0 -0.45043123487E+03 -0.20035257542E+03  0.46991679997E+03  0.68106626015E+03  0.00000000000E+00 0. -1.
        -12    1    3    3    0    0 -0.13344947961E+03 -0.74931598156E+02  0.92617775230E+02  0.17888979932E+03  0.00000000000E+00 0.  1.
          2    1    6    6  502    0  0.99046526749E+02 -0.89214893755E+02  0.11234611710E+03  0.17433061050E+03  0.00000000000E+00 0. -1.
         -1    1    6    6    0  502  0.26003884715E+02 -0.73028096896E+02  0.12506750717E+02  0.78522122806E+02  0.00000000000E+00 0.  1.
<mgrwt>
<rscale>  0 0.74747992E+03</rscale>
<asrwt>0</asrwt>
<pdfrwt beam="1">  1        1 0.18831874E+00 0.74747992E+03</pdfrwt>
<pdfrwt beam="2">  1       -2 0.81129213E-01 0.74747992E+03</pdfrwt>
<totfact> 0.12387294E+01</totfact>
</mgrwt>
</event>
<event>
12    3  0.2269558E-007  0.1156866E+04  0.7818608E-02  0.9151473E-01
         -2   -1    0    0    0  501 -0.00000000000E+00  0.00000000000E+00  0.11349532454E+04  0.11349532454E+04  0.00000000000E+00 0.  1.
          1   -1    0    0  501    0  0.00000000000E+00 -0.00000000000E+00 -0.13256808091E+04  0.13256808091E+04  0.00000000000E+00 0. -1.
        -24    2    1    2    0    0  0.11512352099E+04 -0.46699056996E+01 -0.54451388629E+02  0.11552917321E+04  0.79810500687E+02 0.  0.
    5000000    2    1    2    0    0 -0.11512352099E+04  0.46699056996E+01 -0.13627617501E+03  0.13053423224E+04  0.59998588842E+03 0.  0.
        -24    2    4    4    0    0 -0.84321598060E+03 -0.54975820931E+02  0.16394104219E+03  0.86440454854E+03  0.79265549831E+02 0.  0.
         24    2    4    4    0    0 -0.30801922928E+03  0.59645726631E+02 -0.30021721720E+03  0.44093777387E+03  0.76565557612E+02 0.  0.
         11    1    5    5    0    0 -0.41595037028E+03 -0.20236040631E+02  0.12054438013E+03  0.43353795157E+03  0.00000000000E+00 0. -1.
        -12    1    5    5    0    0 -0.42726561032E+03 -0.34739780300E+02  0.43396662057E+02  0.43086659696E+03  0.00000000000E+00 0.  1.
         13    1    3    3    0    0  0.82671538402E+03  0.16279223567E+02 -0.89148322854E+01  0.82692370478E+03  0.00000000000E+00 0. -1.
        -14    1    3    3    0    0  0.32451982587E+03 -0.20949129266E+02 -0.45536556344E+02  0.32836802732E+03  0.00000000000E+00 0.  1.
          2    1    6    6  502    0 -0.18537051350E+03  0.56740813020E+02 -0.22515346854E+03  0.29711248970E+03  0.00000000000E+00 0. -1.
         -1    1    6    6    0  502 -0.12264871578E+03  0.29049136105E+01 -0.75063748659E+02  0.14382528418E+03  0.00000000000E+00 0.  1.
<mgrwt>
<rscale>  0 0.11568660E+04</rscale>
<asrwt>0</asrwt>
<pdfrwt beam="1">  1        1 0.20395089E+00 0.11568660E+04</pdfrwt>
<pdfrwt beam="2">  1       -2 0.17460819E+00 0.11568660E+04</pdfrwt>
<totfact> 0.14721669E+00</totfact>
</mgrwt>
</event>
<event>
12    3  0.2269558E-007  0.6144703E+03  0.7818608E-02  0.9875831E-01
          1   -1    0    0  501    0  0.00000000000E+00  0.00000000000E+00  0.19359106148E+04  0.19359106148E+04  0.00000000000E+00 0. -1.
         -2   -1    0    0    0  501 -0.00000000000E+00 -0.00000000000E+00 -0.34321225571E+03  0.34321225571E+03  0.00000000000E+00 0.  1.
        -24    2    1    2    0    0 -0.49983679709E+03 -0.80036273157E+02  0.13705136834E+04  0.14632726878E+04  0.81342325117E+02 0.  0.
    5000000    2    1    2    0    0  0.49983679709E+03  0.80036273157E+02  0.22218467576E+03  0.81585018274E+03  0.60000238482E+03 0.  0.
        -24    2    4    4    0    0  0.10197299738E+03  0.25439487950E+03 -0.60261692202E+02  0.29191224166E+03  0.80411680587E+02 0.  0.
         24    2    4    4    0    0  0.39786379971E+03 -0.17435860634E+03  0.28244636796E+03  0.52393794108E+03  0.77707712652E+02 0.  0.
         11    1    5    5    0    0  0.41439845363E+02  0.19926367017E+03 -0.48148972392E+02  0.20914491286E+03  0.00000000000E+00 0. -1.
        -12    1    5    5    0    0  0.60533152021E+02  0.55131209327E+02 -0.12112719810E+02  0.82767328800E+02  0.00000000000E+00 0.  1.
         13    1    3    3    0    0 -0.39718155166E+03 -0.63547294308E+02  0.11732697414E+04  0.12403037248E+04  0.00000000000E+00 0. -1.
        -14    1    3    3    0    0 -0.10265524543E+03 -0.16488978849E+02  0.19724394197E+03  0.22296896305E+03  0.00000000000E+00 0.  1.
          4    1    6    6  502    0  0.29980419427E+02 -0.29189645619E+02  0.81307953628E+01  0.42625940384E+02  0.00000000000E+00 0. -1.
         -3    1    6    6    0  502  0.36788338028E+03 -0.14516896072E+03  0.27431557260E+03  0.48131200070E+03  0.00000000000E+00 0.  1.
<mgrwt>
<rscale>  0 0.61447028E+03</rscale>
<asrwt>0</asrwt>
<pdfrwt beam="1">  1        1 0.29783240E+00 0.61447028E+03</pdfrwt>
<pdfrwt beam="2">  1       -2 0.52801886E-01 0.61447028E+03</pdfrwt>
<totfact> 0.10402223E+01</totfact>
</mgrwt>
</event>
<event>
12    3  0.2269558E-007  0.1268635E+04  0.7818608E-02  0.9054814E-01
          1   -1    0    0  501    0  0.00000000000E+00  0.00000000000E+00  0.76038494198E+03  0.76038494198E+03  0.00000000000E+00 0. -1.
         -2   -1    0    0    0  501 -0.00000000000E+00 -0.00000000000E+00 -0.22646944538E+04  0.22646944538E+04  0.00000000000E+00 0.  1.
        -24    2    1    2    0    0 -0.11234384701E+04  0.49979097672E+03 -0.91669969606E+03  0.15357940414E+04  0.80124829312E+02 0.  0.
    5000000    2    1    2    0    0  0.11234384701E+04 -0.49979097672E+03 -0.58760981579E+03  0.14892853544E+04  0.60065011010E+03 0.  0.
        -24    2    4    4    0    0  0.10974187445E+04 -0.37758948535E+03 -0.64723732003E+03  0.13312471388E+04  0.80006723878E+02 0.  0.
         24    2    4    4    0    0  0.26019725604E+02 -0.12220149137E+03  0.59627504244E+02  0.15803821563E+03  0.76226030485E+02 0.  0.
         13    1    5    5    0    0  0.60914281016E+03 -0.17543538167E+03 -0.37961926499E+03  0.73887977551E+03  0.00000000000E+00 0. -1.
        -14    1    5    5    0    0  0.48827593434E+03 -0.20215410368E+03 -0.26761805504E+03  0.59236736328E+03  0.00000000000E+00 0.  1.
         13    1    3    3    0    0 -0.65483356496E+02  0.14420676625E+02 -0.65940910994E+02  0.94043764466E+02  0.00000000000E+00 0. -1.
        -14    1    3    3    0    0 -0.10579551136E+04  0.48537030009E+03 -0.85075878507E+03  0.14417502769E+04  0.00000000000E+00 0.  1.
          4    1    6    6  502    0  0.98634807408E+01  0.79781359507E+01  0.14612609287E+02  0.19351156445E+02  0.00000000000E+00 0. -1.
         -3    1    6    6    0  502  0.16156244863E+02 -0.13017962732E+03  0.45014894958E+02  0.13868705919E+03  0.00000000000E+00 0.  1.
<mgrwt>
<rscale>  0 0.12686352E+04</rscale>
<asrwt>0</asrwt>
<pdfrwt beam="1">  1        1 0.11698230E+00 0.12686352E+04</pdfrwt>
<pdfrwt beam="2">  1       -2 0.34841453E+00 0.12686352E+04</pdfrwt>
<totfact> 0.32759964E-01</totfact>
</mgrwt>
</event>
<event>
12    3  0.2269558E-007  0.7335994E+03  0.7818608E-02  0.9661437E-01
          1   -1    0    0  501    0  0.00000000000E+00  0.00000000000E+00  0.20476780621E+04  0.20476780621E+04  0.00000000000E+00 0. -1.
         -2   -1    0    0    0  501 -0.00000000000E+00 -0.00000000000E+00 -0.50659890393E+03  0.50659890393E+03  0.00000000000E+00 0.  1.
        -24    2    1    2    0    0 -0.24819315196E+03  0.67826632895E+03 -0.26165113053E+02  0.72723558205E+03  0.80882167363E+02 0.  0.
    5000000    2    1    2    0    0  0.24819315196E+03 -0.67826632895E+03  0.15672442712E+04  0.18270413839E+04  0.60015044730E+03 0.  0.
        -24    2    4    4    0    0 -0.11401817701E+02 -0.10591351394E+03  0.89021921951E+03  0.90014214543E+03  0.80112104623E+02 0.  0.
         24    2    4    4    0    0  0.25959496966E+03 -0.57235281500E+03  0.67702505167E+03  0.92689923850E+03  0.76170759717E+02 0.  0.
         11    1    3    3    0    0 -0.39038902315E+02  0.54875483955E+02 -0.17727990291E+02  0.69639329929E+02  0.00000000000E+00 0. -1.
        -12    1    3    3    0    0 -0.20915424964E+03  0.62339084499E+03 -0.84371227621E+01  0.65759625212E+03  0.00000000000E+00 0.  1.
         11    1    5    5    0    0 -0.57255193165E+01  0.13803754747E+01  0.33248300670E+01  0.67632464741E+01  0.00000000000E+00 0. -1.
        -12    1    5    5    0    0 -0.56762983844E+01 -0.10729388942E+03  0.88689438945E+03  0.89337889896E+03  0.00000000000E+00 0.  1.
          2    1    6    6  502    0  0.10619212449E+03 -0.26453177076E+03  0.25484616811E+03  0.38236160169E+03  0.00000000000E+00 0. -1.
         -1    1    6    6    0  502  0.15340284517E+03 -0.30782104424E+03  0.42217888355E+03  0.54453763681E+03  0.00000000000E+00 0.  1.
<mgrwt>
<rscale>  0 0.73359944E+03</rscale>
<asrwt>0</asrwt>
<pdfrwt beam="1">  1        1 0.31502739E+00 0.73359944E+03</pdfrwt>
<pdfrwt beam="2">  1       -2 0.77938294E-01 0.73359944E+03</pdfrwt>
<totfact> 0.37293077E+00</totfact>
</mgrwt>
</event>
<event>
12    3  0.2390082E-007  0.9565845E+03  0.7818608E-02  0.9357487E-01
         -4   -1    0    0    0  501 -0.00000000000E+00  0.00000000000E+00  0.43227268458E+03  0.43227268458E+03  0.00000000000E+00 0.  1.
          3   -1    0    0  501    0  0.00000000000E+00 -0.00000000000E+00 -0.24575751140E+04  0.24575751140E+04  0.00000000000E+00 0. -1.
        -24    2    1    2    0    0 -0.84305021701E+03 -0.39655074187E+03 -0.11176605777E+04  0.14573816157E+04  0.82521800382E+02 0.  0.
    5000000    2    1    2    0    0  0.84305021701E+03  0.39655074187E+03 -0.90764185171E+03  0.14324661829E+04  0.60013288097E+03 0.  0.
        -24    2    4    4    0    0  0.29507079028E+03  0.29371853100E+03 -0.79260866832E+02  0.43095722129E+03  0.78131266777E+02 0.  0.
         24    2    4    4    0    0  0.54797942674E+03  0.10283221087E+03 -0.82838098488E+03  0.10015089616E+04  0.77131240725E+02 0.  0.
         11    1    5    5    0    0  0.21450210915E+03  0.17076584811E+03 -0.73450901894E+02  0.28384355673E+03  0.00000000000E+00 0. -1.
        -12    1    5    5    0    0  0.80568681128E+02  0.12295268289E+03 -0.58099649382E+01  0.14711366456E+03  0.00000000000E+00 0.  1.
         13    1    3    3    0    0 -0.64417492175E+03 -0.27056898863E+03 -0.86724965151E+03  0.11136834674E+04  0.00000000000E+00 0. -1.
        -14    1    3    3    0    0 -0.19887529526E+03 -0.12598175324E+03 -0.25041092617E+03  0.34369814832E+03  0.00000000000E+00 0.  1.
          4    1    6    6  502    0  0.22337180371E+03  0.51650109502E+02 -0.27636262910E+03  0.35908076984E+03  0.00000000000E+00 0. -1.
         -3    1    6    6    0  502  0.32460762302E+03  0.51182101370E+02 -0.55201835578E+03  0.64242819174E+03  0.00000000000E+00 0.  1.
<mgrwt>
<rscale>  0 0.95658450E+03</rscale>
<asrwt>0</asrwt>
<pdfrwt beam="1">  1        3 0.37808849E+00 0.95658450E+03</pdfrwt>
<pdfrwt beam="2">  1       -4 0.66503488E-01 0.95658450E+03</pdfrwt>
<totfact> 0.69458471E-02</totfact>
</mgrwt>
</event>
<event>
12    3  0.2269558E-007  0.1448313E+04  0.7818608E-02  0.8919571E-01
         -2   -1    0    0    0  501 -0.00000000000E+00  0.00000000000E+00  0.10219523728E+04  0.10219523728E+04  0.00000000000E+00 0.  1.
          1   -1    0    0  501    0  0.00000000000E+00 -0.00000000000E+00 -0.25803818712E+04  0.25803818712E+04  0.00000000000E+00 0. -1.
        -24    2    1    2    0    0 -0.10594461949E+04 -0.97872377861E+03 -0.14336528380E+04  0.20351764799E+04  0.79097215634E+02 0.  0.
    5000000    2    1    2    0    0  0.10594461949E+04  0.97872377861E+03 -0.12477666041E+03  0.15671577642E+04  0.60007313566E+03 0.  0.
        -24    2    4    4    0    0  0.13346895082E+03  0.96872630273E+02  0.17523843480E+03  0.25118431473E+03  0.72019328002E+02 0.  0.
         24    2    4    4    0    0  0.92597724408E+03  0.88185114834E+03 -0.30001509521E+03  0.13159734494E+04  0.81742020553E+02 0.  0.
         11    1    5    5    0    0  0.15772571697E+02  0.37432437555E+02  0.75941182233E+02  0.86122149057E+02  0.00000000000E+00 0. -1.
        -12    1    5    5    0    0  0.11769637912E+03  0.59440192718E+02  0.99297252569E+02  0.16506216567E+03  0.00000000000E+00 0.  1.
         13    1    3    3    0    0 -0.55405504304E+03 -0.46386214525E+03 -0.74267798299E+03  0.10362025222E+04  0.00000000000E+00 0. -1.
        -14    1    3    3    0    0 -0.50539115186E+03 -0.51486163336E+03 -0.69097485502E+03  0.99897395770E+03  0.00000000000E+00 0.  1.
          4    1    6    6  502    0  0.65877336054E+03  0.58933024351E+03 -0.18049368347E+03  0.90214768539E+03  0.00000000000E+00 0. -1.
         -3    1    6    6    0  502  0.26720388354E+03  0.29252090482E+03 -0.11952141174E+03  0.41382576406E+03  0.00000000000E+00 0.  1.
<mgrwt>
<rscale>  0 0.14483131E+04</rscale>
<asrwt>0</asrwt>
<pdfrwt beam="1">  1        1 0.39698183E+00 0.14483131E+04</pdfrwt>
<pdfrwt beam="2">  1       -2 0.15722344E+00 0.14483131E+04</pdfrwt>
<totfact> 0.26258974E-01</totfact>
</mgrwt>
</event>
<event>
12    3  0.2269558E-007  0.5892038E+03  0.7818608E-02  0.9928061E-01
         -2   -1    0    0    0  501 -0.00000000000E+00  0.00000000000E+00  0.33292131484E+03  0.33292131484E+03  0.00000000000E+00 0.  1.
          1   -1    0    0  501    0  0.00000000000E+00 -0.00000000000E+00 -0.21948678172E+04  0.21948678172E+04  0.00000000000E+00 0. -1.
        -24    2    1    2    0    0  0.45659633362E+03 -0.30429220600E+03 -0.68507908275E+02  0.55870593137E+03  0.79906356097E+02 0.  0.
    5000000    2    1    2    0    0 -0.45659633362E+03  0.30429220600E+03 -0.17934385941E+04  0.19690832006E+04  0.59982722670E+03 0.  0.
        -24    2    4    4    0    0 -0.27639817003E+03  0.33659729034E+03 -0.16838298931E+04  0.17410564274E+04  0.79376886107E+02 0.  0.
         24    2    4    4    0    0 -0.18019816359E+03 -0.32305084345E+02 -0.10960870092E+03  0.22802677326E+03  0.80418563584E+02 0.  0.
         11    1    5    5    0    0 -0.12292025802E+03  0.16972206688E+03 -0.66201337490E+03  0.69438942847E+03  0.00000000000E+00 0. -1.
        -12    1    5    5    0    0 -0.15347791200E+03  0.16687522346E+03 -0.10218165182E+04  0.10466669989E+04  0.00000000000E+00 0.  1.
         13    1    3    3    0    0  0.30042718316E+03 -0.15387068382E+03 -0.36031094022E+02  0.33945680058E+03  0.00000000000E+00 0. -1.
        -14    1    3    3    0    0  0.15616915045E+03 -0.15042152217E+03 -0.32476814252E+02  0.21924913079E+03  0.00000000000E+00 0.  1.
          2    1    6    6  502    0 -0.10913977757E+03  0.13127727087E+01 -0.23911196165E+02  0.11173611646E+03  0.00000000000E+00 0. -1.
         -1    1    6    6    0  502 -0.71058386021E+02 -0.33617857053E+02 -0.85697504753E+02  0.11629065679E+03  0.00000000000E+00 0.  1.
<mgrwt>
<rscale>  0 0.58920382E+03</rscale>
<asrwt>0</asrwt>
<pdfrwt beam="1">  1        1 0.33767198E+00 0.58920382E+03</pdfrwt>
<pdfrwt beam="2">  1       -2 0.51218663E-01 0.58920382E+03</pdfrwt>
<totfact> 0.74803980E+00</totfact>
</mgrwt>
</event>
<event>
12    3  0.2269558E-007  0.6292404E+03  0.7818608E-02  0.9846532E-01
          1   -1    0    0  501    0  0.00000000000E+00  0.00000000000E+00  0.14843528072E+04  0.14843528072E+04  0.00000000000E+00 0. -1.
         -2   -1    0    0    0  501 -0.00000000000E+00 -0.00000000000E+00 -0.59442636207E+03  0.59442636207E+03  0.00000000000E+00 0.  1.
        -24    2    1    2    0    0 -0.46389457450E+03  0.25236519328E+03 -0.32454412696E+03  0.62489695359E+03  0.79252414664E+02 0.  0.
    5000000    2    1    2    0    0  0.46389457450E+03 -0.25236519328E+03  0.12144705721E+04  0.14538822157E+04  0.59995696474E+03 0.  0.
        -24    2    4    4    0    0  0.27777502468E+03  0.11641318286E+03  0.81993881715E+03  0.87735293764E+03  0.82082396631E+02 0.  0.
         24    2    4    4    0    0  0.18611954982E+03 -0.36877837614E+03  0.39453175492E+03  0.57652927802E+03  0.78055910967E+02 0.  0.
         11    1    3    3    0    0 -0.26205964242E+03  0.12687149768E+03 -0.13514304051E+03  0.32099108166E+03  0.00000000000E+00 0. -1.
        -12    1    3    3    0    0 -0.20183493208E+03  0.12549369559E+03 -0.18940108645E+03  0.30390587193E+03  0.00000000000E+00 0.  1.
         11    1    5    5    0    0 -0.40693125163E+01 -0.31455019767E+01  0.70828563052E+01  0.87533045463E+01  0.00000000000E+00 0. -1.
        -12    1    5    5    0    0  0.28184433720E+03  0.11955868484E+03  0.81285596084E+03  0.86859963309E+03  0.00000000000E+00 0.  1.
          4    1    6    6  502    0  0.74626630417E+02 -0.22086936345E+03  0.24777713871E+03  0.34021452077E+03  0.00000000000E+00 0. -1.
         -3    1    6    6    0  502  0.11149291940E+03 -0.14790901269E+03  0.14675461621E+03  0.23631475724E+03  0.00000000000E+00 0.  1.
<mgrwt>
<rscale>  0 0.62924038E+03</rscale>
<asrwt>0</asrwt>
<pdfrwt beam="1">  1        1 0.22836197E+00 0.62924038E+03</pdfrwt>
<pdfrwt beam="2">  1       -2 0.91450210E-01 0.62924038E+03</pdfrwt>
<totfact> 0.63073635E+00</totfact>
</mgrwt>
</event>
<event>
12    3  0.2269558E-007  0.8915046E+03  0.7818608E-02  0.9436264E-01
         -2   -1    0    0    0  501 -0.00000000000E+00  0.00000000000E+00  0.18201832817E+04  0.18201832817E+04  0.00000000000E+00 0.  1.
          1   -1    0    0  501    0  0.00000000000E+00 -0.00000000000E+00 -0.71752158675E+03  0.71752158675E+03  0.00000000000E+00 0. -1.
        -24    2    1    2    0    0  0.79253257498E+03  0.21780725642E+03  0.12615370369E+04  0.15077709335E+04  0.79684435216E+02 0.  0.
    5000000    2    1    2    0    0 -0.79253257498E+03 -0.21780725642E+03 -0.15887534192E+03  0.10299339349E+04  0.59997887686E+03 0.  0.
        -24    2    4    4    0    0  0.45808860511E+02  0.54729450448E+02  0.54143698880E+02  0.11952911862E+03  0.79132203443E+02 0.  0.
         24    2    4    4    0    0 -0.83834143549E+03 -0.27253670687E+03 -0.21301904080E+03  0.91040481631E+03  0.79794728871E+02 0.  0.
         11    1    5    5    0    0  0.33136674669E+02  0.18997699034E+02 -0.14707481651E+02  0.40929962048E+02  0.00000000000E+00 0. -1.
        -12    1    5    5    0    0  0.12672185842E+02  0.35731751413E+02  0.68851180531E+02  0.78599156571E+02  0.00000000000E+00 0.  1.
         11    1    3    3    0    0  0.99347902139E+02  0.53745181047E+02  0.15548125900E+03  0.19217953077E+03  0.00000000000E+00 0. -1.
        -12    1    3    3    0    0  0.69318467284E+03  0.16406207538E+03  0.11060557779E+04  0.13155914028E+04  0.00000000000E+00 0.  1.
          2    1    6    6  502    0 -0.46467662746E+03 -0.14472843763E+03 -0.77166711109E+02  0.49277316290E+03  0.00000000000E+00 0. -1.
         -1    1    6    6    0  502 -0.37366480803E+03 -0.12780826924E+03 -0.13585232970E+03  0.41763165341E+03  0.00000000000E+00 0.  1.
<mgrwt>
<rscale>  0 0.89150460E+03</rscale>
<asrwt>0</asrwt>
<pdfrwt beam="1">  1        1 0.11038794E+00 0.89150460E+03</pdfrwt>
<pdfrwt beam="2">  1       -2 0.28002820E+00 0.89150460E+03</pdfrwt>
<totfact> 0.98802796E-01</totfact>
</mgrwt>
</event>
<event>
12    3  0.2269558E-007  0.8324251E+03  0.7818608E-02  0.9514234E-01
         -2   -1    0    0    0  501 -0.00000000000E+00  0.00000000000E+00  0.24912355722E+04  0.24912355722E+04  0.00000000000E+00 0.  1.
          1   -1    0    0  501    0  0.00000000000E+00 -0.00000000000E+00 -0.30219937212E+03  0.30219937212E+03  0.00000000000E+00 0. -1.
        -24    2    1    2    0    0  0.73941925985E+03  0.91820128133E+02  0.71302099949E+03  0.10343423016E+04  0.79330154891E+02 0.  0.
    5000000    2    1    2    0    0 -0.73941925985E+03 -0.91820128133E+02  0.14760152006E+04  0.17590926427E+04  0.60051167798E+03 0.  0.
        -24    2    4    4    0    0  0.57181986635E+01 -0.16526883601E+03  0.16229359114E+03  0.24487252581E+03  0.79226625690E+02 0.  0.
         24    2    4    4    0    0 -0.74513745852E+03  0.73448707880E+02  0.13137216095E+04  0.15142201169E+04  0.79834518961E+02 0.  0.
         11    1    3    3    0    0  0.66864190198E+03  0.71989866089E+02  0.61112043805E+03  0.90869836784E+03  0.00000000000E+00 0. -1.
        -12    1    3    3    0    0  0.70777357872E+02  0.19830262044E+02  0.10190056144E+03  0.12564393380E+03  0.00000000000E+00 0.  1.
         13    1    5    5    0    0  0.97844083934E+01 -0.11527775276E+03  0.58602342593E+02  0.12968781549E+03  0.00000000000E+00 0. -1.
        -14    1    5    5    0    0 -0.40662097299E+01 -0.49991083250E+02  0.10369124854E+03  0.11518471032E+03  0.00000000000E+00 0.  1.
          4    1    6    6  502    0 -0.64388919569E+03  0.90827507737E+02  0.11347430208E+04  0.13078549827E+04  0.00000000000E+00 0. -1.
         -3    1    6    6    0  502 -0.10124826283E+03 -0.17378799857E+02  0.17897858866E+03  0.20636513419E+03  0.00000000000E+00 0.  1.
<mgrwt>
<rscale>  0 0.83242507E+03</rscale>
<asrwt>0</asrwt>
<pdfrwt beam="1">  1        1 0.46492213E-01 0.83242507E+03</pdfrwt>
<pdfrwt beam="2">  1       -2 0.38326700E+00 0.83242507E+03</pdfrwt>
<totfact> 0.75924931E-01</totfact>
</mgrwt>
</event>
<event>
12    3  0.2269558E-007  0.4682624E+03  0.7818608E-02  0.1022412E+00
         -2   -1    0    0    0  501 -0.00000000000E+00  0.00000000000E+00  0.38750344254E+03  0.38750344254E+03  0.00000000000E+00 0.  1.
          1   -1    0    0  501    0  0.00000000000E+00 -0.00000000000E+00 -0.94999158295E+03  0.94999158295E+03  0.00000000000E+00 0. -1.
        -24    2    1    2    0    0  0.26764164026E+03 -0.36068701661E+03 -0.28847596907E+03  0.53978938652E+03  0.80168731577E+02 0.  0.
    5000000    2    1    2    0    0 -0.26764164026E+03  0.36068701661E+03 -0.27401217134E+03  0.79770563896E+03  0.59960357307E+03 0.  0.
        -24    2    4    4    0    0 -0.22531822451E+03  0.30390081574E+03 -0.44963551184E+03  0.59203024689E+03  0.72136756372E+02 0.  0.
         24    2    4    4    0    0 -0.42323415743E+02  0.56786200871E+02  0.17562334050E+03  0.20567539208E+03  0.80267459463E+02 0.  0.
         11    1    5    5    0    0 -0.19232514090E+02  0.31609495594E+01 -0.33710912728E+02  0.38939784761E+02  0.00000000000E+00 0. -1.
        -12    1    5    5    0    0 -0.20608571042E+03  0.30073986618E+03 -0.41592459911E+03  0.55309046213E+03  0.00000000000E+00 0.  1.
         11    1    3    3    0    0  0.18464444592E+03 -0.20122446947E+03 -0.14148533154E+03  0.30757593788E+03  0.00000000000E+00 0. -1.
        -12    1    3    3    0    0  0.82997194333E+02 -0.15946254713E+03 -0.14699063754E+03  0.23221344864E+03  0.00000000000E+00 0.  1.
          4    1    6    6  502    0 -0.53294764310E+02  0.13563642659E+02  0.58211844655E+02  0.80080729038E+02  0.00000000000E+00 0. -1.
         -3    1    6    6    0  502  0.10971348567E+02  0.43222558212E+02  0.11741149584E+03  0.12559466304E+03  0.00000000000E+00 0.  1.
<mgrwt>
<rscale>  0 0.46826240E+03</rscale>
<asrwt>0</asrwt>
<pdfrwt beam="1">  1        1 0.14615255E+00 0.46826240E+03</pdfrwt>
<pdfrwt beam="2">  1       -2 0.59615915E-01 0.46826240E+03</pdfrwt>
<totfact> 0.40238608E+01</totfact>
</mgrwt>
</event>
<event>
12    3  0.2269558E-007  0.5424189E+03  0.7818608E-02  0.1003264E+00
          1   -1    0    0  501    0  0.00000000000E+00  0.00000000000E+00  0.33930720179E+03  0.33930720179E+03  0.00000000000E+00 0. -1.
         -2   -1    0    0    0  501 -0.00000000000E+00 -0.00000000000E+00 -0.11932421258E+04  0.11932421258E+04  0.00000000000E+00 0.  1.
        -24    2    1    2    0    0 -0.34598945143E+03 -0.19016288328E+03  0.17585980427E+02  0.40322092810E+03  0.80045158999E+02 0.  0.
    5000000    2    1    2    0    0  0.34598945143E+03  0.19016288328E+03 -0.87152090442E+03  0.11293283995E+04  0.59996943617E+03 0.  0.
        -24    2    4    4    0    0  0.21348574569E+03  0.38019711636E+03 -0.70597476747E+03  0.83365135245E+03  0.80300648993E+02 0.  0.
         24    2    4    4    0    0  0.13250370574E+03 -0.19003423309E+03 -0.16554613695E+03  0.29567704702E+03  0.79681559338E+02 0.  0.
         11    1    3    3    0    0 -0.11360586080E+03 -0.83692677735E+02 -0.27230092053E+02  0.14370885090E+03  0.00000000000E+00 0. -1.
        -12    1    3    3    0    0 -0.23238359063E+03 -0.10647020554E+03  0.44816072480E+02  0.25951207720E+03  0.00000000000E+00 0.  1.
         13    1    5    5    0    0  0.35788138779E+02  0.13999670564E+03 -0.23773029224E+03  0.27820057569E+03  0.00000000000E+00 0. -1.
        -14    1    5    5    0    0  0.17769760691E+03  0.24020041072E+03 -0.46824447523E+03  0.55545077676E+03  0.00000000000E+00 0.  1.
          2    1    6    6  502    0  0.67080981034E+01 -0.72071638755E+02 -0.53758500257E+02  0.90162608896E+02  0.00000000000E+00 0. -1.
         -1    1    6    6    0  502  0.12579560763E+03 -0.11796259433E+03 -0.11178763669E+03  0.20551443813E+03  0.00000000000E+00 0.  1.
<mgrwt>
<rscale>  0 0.54241887E+03</rscale>
<asrwt>0</asrwt>
<pdfrwt beam="1">  1        1 0.52201107E-01 0.54241887E+03</pdfrwt>
<pdfrwt beam="2">  1       -2 0.18357572E+00 0.54241887E+03</pdfrwt>
<totfact> 0.11668607E+01</totfact>
</mgrwt>
</event>
<event>
12    3  0.2269558E-007  0.6226709E+03  0.7818608E-02  0.9859456E-01
          1   -1    0    0  501    0  0.00000000000E+00  0.00000000000E+00  0.42033024717E+03  0.42033024717E+03  0.00000000000E+00 0. -1.
         -2   -1    0    0    0  501 -0.00000000000E+00 -0.00000000000E+00 -0.11509145012E+04  0.11509145012E+04  0.00000000000E+00 0.  1.
        -24    2    1    2    0    0 -0.24204058830E+03 -0.49094993668E+03 -0.15256124445E+03  0.57431090469E+03  0.83322237305E+02 0.  0.
    5000000    2    1    2    0    0  0.24204058830E+03  0.49094993668E+03 -0.57802300961E+03  0.99693384370E+03  0.60012582212E+03 0.  0.
        -24    2    4    4    0    0  0.32376464935E+03  0.18411564947E+03 -0.60654786954E+02  0.38482841283E+03  0.75443910265E+02 0.  0.
         24    2    4    4    0    0 -0.81724061052E+02  0.30683428720E+03 -0.51736822266E+03  0.61210543087E+03  0.78594393738E+02 0.  0.
         13    1    3    3    0    0 -0.11000071772E+03 -0.27920917981E+03 -0.11769119070E+03  0.32234940726E+03  0.00000000000E+00 0. -1.
        -14    1    3    3    0    0 -0.13203987058E+03 -0.21174075686E+03 -0.34870053754E+02  0.25196149743E+03  0.00000000000E+00 0.  1.
         13    1    5    5    0    0  0.10272606191E+03  0.34573891731E+02 -0.45424769889E+02  0.11752194477E+03  0.00000000000E+00 0. -1.
        -14    1    5    5    0    0  0.22103858744E+03  0.14954175774E+03 -0.15230017065E+02  0.26730646806E+03  0.00000000000E+00 0.  1.
          4    1    6    6  502    0 -0.70918535290E+02  0.18487131300E+03 -0.25741877142E+03  0.32476339834E+03  0.00000000000E+00 0. -1.
         -3    1    6    6    0  502 -0.10805525762E+02  0.12196297420E+03 -0.25994945124E+03  0.28734203253E+03  0.00000000000E+00 0.  1.
<mgrwt>
<rscale>  0 0.62267088E+03</rscale>
<asrwt>0</asrwt>
<pdfrwt beam="1">  1        1 0.64666193E-01 0.62267088E+03</pdfrwt>
<pdfrwt beam="2">  1       -2 0.17706377E+00 0.62267088E+03</pdfrwt>
<totfact> 0.96636621E+00</totfact>
</mgrwt>
</event>
<event>
12    3  0.2269558E-007  0.5912189E+03  0.7818608E-02  0.9923793E-01
         -2   -1    0    0    0  501 -0.00000000000E+00  0.00000000000E+00  0.48153116732E+03  0.48153116732E+03  0.00000000000E+00 0.  1.
          1   -1    0    0  501    0  0.00000000000E+00 -0.00000000000E+00 -0.10191629189E+04  0.10191629189E+04  0.00000000000E+00 0. -1.
        -24    2    1    2    0    0 -0.30051954725E+03  0.48017744260E+03 -0.27669664439E+03  0.63516357636E+03  0.77390962433E+02 0.  0.
    5000000    2    1    2    0    0  0.30051954725E+03 -0.48017744260E+03 -0.26093510720E+03  0.86553050987E+03  0.60014461481E+03 0.  0.
        -24    2    4    4    0    0  0.20006755603E+03 -0.14618368567E+03 -0.40337911233E+03  0.47995807928E+03  0.79046522205E+02 0.  0.
         24    2    4    4    0    0  0.10045199122E+03 -0.33399375693E+03  0.14244400513E+03  0.38557243058E+03  0.82057129016E+02 0.  0.
         11    1    5    5    0    0  0.28722373798E+02  0.76635077494E+01 -0.42401325928E+02  0.51783941025E+02  0.00000000000E+00 0. -1.
        -12    1    5    5    0    0  0.17134518223E+03 -0.15384719342E+03 -0.36097778640E+03  0.42817413826E+03  0.00000000000E+00 0.  1.
         13    1    3    3    0    0 -0.99133606868E+02  0.21354725190E+03 -0.14168084352E+03  0.27477875141E+03  0.00000000000E+00 0. -1.
        -14    1    3    3    0    0 -0.20138594038E+03  0.26663019070E+03 -0.13501580086E+03  0.36038482496E+03  0.00000000000E+00 0.  1.
          4    1    6    6  502    0 -0.57708779576E+01 -0.36863204893E+02  0.37833104446E+02  0.53137018164E+02  0.00000000000E+00 0. -1.
         -3    1    6    6    0  502  0.10622286918E+03 -0.29713055204E+03  0.10461090068E+03  0.33243541242E+03  0.00000000000E+00 0.  1.
<mgrwt>
<rscale>  0 0.59121892E+03</rscale>
<asrwt>0</asrwt>
<pdfrwt beam="1">  1        1 0.15679429E+00 0.59121892E+03</pdfrwt>
<pdfrwt beam="2">  1       -2 0.74081719E-01 0.59121892E+03</pdfrwt>
<totfact> 0.21935176E+01</totfact>
</mgrwt>
</event>
<event>
12    3  0.2269558E-007  0.5483506E+03  0.7818608E-02  0.1001876E+00
          1   -1    0    0  501    0  0.00000000000E+00  0.00000000000E+00  0.39213872940E+03  0.39213872940E+03  0.00000000000E+00 0. -1.
         -2   -1    0    0    0  501 -0.00000000000E+00 -0.00000000000E+00 -0.11722750651E+04  0.11722750651E+04  0.00000000000E+00 0.  1.
        -24    2    1    2    0    0 -0.44535641135E+02  0.53137097302E+03 -0.42756558285E+03  0.68795429049E+03  0.78295873858E+02 0.  0.
    5000000    2    1    2    0    0  0.44535641135E+02 -0.53137097302E+03 -0.35257075281E+03  0.87645950397E+03  0.59961370237E+03 0.  0.
        -24    2    4    4    0    0  0.83354199578E+02 -0.34795596486E+03 -0.50348496811E+03  0.62286012115E+03  0.80226811834E+02 0.  0.
         24    2    4    4    0    0 -0.38818558443E+02 -0.18341500816E+03  0.15091421530E+03  0.25359938282E+03  0.79934979138E+02 0.  0.
         11    1    3    3    0    0 -0.84987846339E+01  0.40603468259E+03 -0.29471541534E+03  0.50179036344E+03  0.00000000000E+00 0. -1.
        -12    1    3    3    0    0 -0.36036856501E+02  0.12533629043E+03 -0.13285016750E+03  0.18616392704E+03  0.00000000000E+00 0.  1.
         11    1    5    5    0    0  0.81698358607E+02 -0.32593788149E+03 -0.42761544979E+03  0.54384289762E+03  0.00000000000E+00 0. -1.
        -12    1    5    5    0    0  0.16558409716E+01 -0.22018083367E+02 -0.75869518321E+02  0.79017223532E+02  0.00000000000E+00 0.  1.
          2    1    6    6  502    0  0.53193367931E+01 -0.14016687040E+03  0.88979553345E+02  0.16610962590E+03  0.00000000000E+00 0. -1.
         -1    1    6    6    0  502 -0.44137895236E+02 -0.43248137763E+02  0.61934661954E+02  0.87489756927E+02  0.00000000000E+00 0.  1.
<mgrwt>
<rscale>  0 0.54835062E+03</rscale>
<asrwt>0</asrwt>
<pdfrwt beam="1">  1        1 0.60329035E-01 0.54835062E+03</pdfrwt>
<pdfrwt beam="2">  1       -2 0.18035001E+00 0.54835062E+03</pdfrwt>
<totfact> 0.10153080E+01</totfact>
</mgrwt>
</event>
<event>
12    3  0.2269558E-007  0.3563349E+03  0.7818608E-02  0.1060045E+00
         -2   -1    0    0    0  501 -0.00000000000E+00  0.00000000000E+00  0.24957157032E+03  0.24957157032E+03  0.00000000000E+00 0.  1.
          1   -1    0    0  501    0  0.00000000000E+00 -0.00000000000E+00 -0.12462460559E+04  0.12462460559E+04  0.00000000000E+00 0. -1.
        -24    2    1    2    0    0 -0.50848362184E+02  0.11680421206E+03 -0.85265928274E+03  0.86579381528E+03  0.79638547423E+02 0.  0.
    5000000    2    1    2    0    0  0.50848362184E+02 -0.11680421206E+03 -0.14401520280E+03  0.63002381090E+03  0.59996736892E+03 0.  0.
        -24    2    4    4    0    0  0.96573469458E+02 -0.32787872367E+03  0.12973590570E+02  0.35114242129E+03  0.79383836751E+02 0.  0.
         24    2    4    4    0    0 -0.45725107274E+02  0.21107451161E+03 -0.15698879337E+03  0.27888138961E+03  0.80536410054E+02 0.  0.
         11    1    3    3    0    0  0.17979313786E+02  0.45970690989E+01 -0.98619802905E+02  0.10035065667E+03  0.00000000000E+00 0. -1.
        -12    1    3    3    0    0 -0.68827675970E+02  0.11220714297E+03 -0.75403947984E+03  0.76544315861E+03  0.00000000000E+00 0.  1.
         13    1    5    5    0    0  0.25228592554E+02 -0.18594554795E+03  0.34628411294E+02  0.19081759760E+03  0.00000000000E+00 0. -1.
        -14    1    5    5    0    0  0.71344876904E+02 -0.14193317572E+03 -0.21654820724E+02  0.16032482369E+03  0.00000000000E+00 0.  1.
          2    1    6    6  502    0 -0.22158725673E+02  0.10451660277E+03 -0.29047667582E+02  0.11071809414E+03  0.00000000000E+00 0. -1.
         -1    1    6    6    0  502 -0.23566381601E+02  0.10655790884E+03 -0.12794112578E+03  0.16816329547E+03  0.00000000000E+00 0.  1.
<mgrwt>
<rscale>  0 0.35633489E+03</rscale>
<asrwt>0</asrwt>
<pdfrwt beam="1">  1        1 0.19173016E+00 0.35633489E+03</pdfrwt>
<pdfrwt beam="2">  1       -2 0.38395627E-01 0.35633489E+03</pdfrwt>
<totfact> 0.59860085E+01</totfact>
</mgrwt>
</event>
<event>
12    3  0.3060689E-007  0.1059125E+04  0.7818608E-02  0.9245973E-01
          1   -1    0    0  501    0  0.00000000000E+00  0.00000000000E+00  0.13305588396E+04  0.13305588396E+04  0.00000000000E+00 0. -1.
         -2   -1    0    0    0  501 -0.00000000000E+00 -0.00000000000E+00 -0.10094363268E+04  0.10094363268E+04  0.00000000000E+00 0.  1.
        -24    2    1    2    0    0  0.27592571633E+03 -0.93478851256E+03 -0.31805718255E+03  0.10290731933E+04  0.88694428784E+02 0.  0.
    5000000    2    1    2    0    0 -0.27592571633E+03  0.93478851256E+03  0.63917969530E+03  0.13109219731E+04  0.60000097709E+03 0.  0.
        -24    2    4    4    0    0 -0.45181561973E+03  0.60683429259E+03  0.37936817272E+03  0.85019564617E+03  0.80791171615E+02 0.  0.
         24    2    4    4    0    0  0.17588990340E+03  0.32795421997E+03  0.25981152258E+03  0.46072632692E+03  0.79218006386E+02 0.  0.
         11    1    3    3    0    0  0.87235115129E+02 -0.44853031689E+03 -0.15805168803E+03  0.48349741113E+03  0.00000000000E+00 0. -1.
        -12    1    3    3    0    0  0.18869060120E+03 -0.48625819567E+03 -0.16000549452E+03  0.54557578219E+03  0.00000000000E+00 0.  1.
         11    1    5    5    0    0 -0.25039241018E+03  0.39363637537E+03  0.25442428435E+03  0.53139220126E+03  0.00000000000E+00 0. -1.
        -12    1    5    5    0    0 -0.20142320954E+03  0.21319791722E+03  0.12494388837E+03  0.31880344491E+03  0.00000000000E+00 0.  1.
          4    1    6    6  502    0  0.60246730457E+02  0.19298236807E+03  0.15088395016E+03  0.25226539464E+03  0.00000000000E+00 0. -1.
         -3    1    6    6    0  502  0.11564317294E+03  0.13497185190E+03  0.10892757243E+03  0.20846093228E+03  0.00000000000E+00 0.  1.
<mgrwt>
<rscale>  0 0.10591254E+04</rscale>
<asrwt>0</asrwt>
<pdfrwt beam="1">  1        1 0.20470136E+00 0.10591254E+04</pdfrwt>
<pdfrwt beam="2">  1       -2 0.15529790E+00 0.10591254E+04</pdfrwt>
<totfact> 0.20402738E+00</totfact>
</mgrwt>
</event>
<event>
12    3  0.3106405E-007  0.1210373E+04  0.7818608E-02  0.9103826E-01
         -2   -1    0    0    0  501 -0.00000000000E+00  0.00000000000E+00  0.11958233183E+04  0.11958233183E+04  0.00000000000E+00 0.  1.
          1   -1    0    0  501    0  0.00000000000E+00 -0.00000000000E+00 -0.16936565440E+04  0.16936565440E+04  0.00000000000E+00 0. -1.
        -24    2    1    2    0    0  0.11129766560E+04 -0.33376131481E+03 -0.95287631007E+03  0.15047947661E+04  0.79500777745E+02 0.  0.
    5000000    2    1    2    0    0 -0.11129766560E+04  0.33376131481E+03  0.45504308439E+03  0.13846850962E+04  0.60014577803E+03 0.  0.
        -24    2    4    4    0    0 -0.98413466624E+03  0.98822446588E+02  0.21391278002E+03  0.10152467975E+04  0.81734112266E+02 0.  0.
         24    2    4    4    0    0 -0.12884198975E+03  0.23493886822E+03  0.24113030438E+03  0.36943829869E+03  0.80896864750E+02 0.  0.
         11    1    5    5    0    0 -0.83943294515E+03  0.68330702377E+02  0.20663766993E+03  0.86718849216E+03  0.00000000000E+00 0. -1.
        -12    1    5    5    0    0 -0.14470172109E+03  0.30491744210E+02  0.72751100902E+01  0.14805830533E+03  0.00000000000E+00 0.  1.
         11    1    3    3    0    0  0.66973205830E+03 -0.18942383004E+03 -0.52193769500E+03  0.86996630668E+03  0.00000000000E+00 0. -1.
        -12    1    3    3    0    0  0.44324459769E+03 -0.14433748477E+03 -0.43093861507E+03  0.63482845939E+03  0.00000000000E+00 0.  1.
          2    1    6    6  502    0 -0.10672967746E+03  0.17981433622E+03  0.22650965377E+03  0.30827105413E+03  0.00000000000E+00 0. -1.
         -1    1    6    6    0  502 -0.22112312289E+02  0.55124532003E+02  0.14620650604E+02  0.61167244563E+02  0.00000000000E+00 0.  1.
<mgrwt>
<rscale>  0 0.12103725E+04</rscale>
<asrwt>0</asrwt>
<pdfrwt beam="1">  1        1 0.26056255E+00 0.12103725E+04</pdfrwt>
<pdfrwt beam="2">  1       -2 0.18397282E+00 0.12103725E+04</pdfrwt>
<totfact> 0.69972551E-01</totfact>
</mgrwt>
</event>
<event>
12    3  0.2269558E-007  0.7625743E+03  0.7818608E-02  0.9615827E-01
          1   -1    0    0  501    0  0.00000000000E+00  0.00000000000E+00  0.11312666907E+04  0.11312666907E+04  0.00000000000E+00 0. -1.
         -2   -1    0    0    0  501 -0.00000000000E+00 -0.00000000000E+00 -0.60215322431E+03  0.60215322431E+03  0.00000000000E+00 0.  1.
        -24    2    1    2    0    0  0.67536441713E+03 -0.54751855510E+02 -0.55422406742E+01  0.68223726697E+03  0.79385832516E+02 0.  0.
    5000000    2    1    2    0    0 -0.67536441713E+03  0.54751855510E+02  0.53465570708E+03  0.10511826481E+04  0.60001114394E+03 0.  0.
        -24    2    4    4    0    0 -0.72735256555E+03 -0.26620931799E+02  0.56224618034E+03  0.92336777445E+03  0.82078322123E+02 0.  0.
         24    2    4    4    0    0  0.51988148421E+02  0.81372787310E+02 -0.27590473260E+02  0.12781487361E+03  0.79063958979E+02 0.  0.
         13    1    5    5    0    0 -0.28442356086E+00  0.45670479010E+01  0.50541842729E+01  0.68178883796E+01  0.00000000000E+00 0. -1.
        -14    1    5    5    0    0 -0.72706814199E+03 -0.31187979700E+02  0.55719199607E+03  0.91654988607E+03  0.00000000000E+00 0.  1.
         13    1    3    3    0    0  0.50071482556E+03 -0.56668032625E+02 -0.34936741537E+02  0.50512095419E+03  0.00000000000E+00 0. -1.
        -14    1    3    3    0    0  0.17464959157E+03  0.19161771149E+01  0.29394500863E+02  0.17711631277E+03  0.00000000000E+00 0.  1.
          4    1    6    6  502    0  0.13351062836E+02  0.73666386567E+02 -0.42025843779E+02  0.85855453723E+02  0.00000000000E+00 0. -1.
         -3    1    6    6    0  502  0.38637085585E+02  0.77064007430E+01  0.14435370519E+02  0.41959419883E+02  0.00000000000E+00 0.  1.
<mgrwt>
<rscale>  0 0.76257432E+03</rscale>
<asrwt>0</asrwt>
<pdfrwt beam="1">  1        1 0.17404103E+00 0.76257432E+03</pdfrwt>
<pdfrwt beam="2">  1       -2 0.92638958E-01 0.76257432E+03</pdfrwt>
<totfact> 0.10665451E+01</totfact>
</mgrwt>
</event>
<event>
12    3  0.2269558E-007  0.5196331E+03  0.7818608E-02  0.1008778E+00
         -2   -1    0    0    0  501 -0.00000000000E+00  0.00000000000E+00  0.26869647845E+03  0.26869647845E+03  0.00000000000E+00 0.  1.
          1   -1    0    0  501    0  0.00000000000E+00 -0.00000000000E+00 -0.10624888119E+04  0.10624888119E+04  0.00000000000E+00 0. -1.
        -24    2    1    2    0    0 -0.35334153243E+03 -0.19312513627E+02 -0.35657942560E+03  0.50868846484E+03  0.79949082428E+02 0.  0.
    5000000    2    1    2    0    0  0.35334153243E+03  0.19312513627E+02 -0.43721290781E+03  0.82249682546E+03  0.60010223247E+03 0.  0.
        -24    2    4    4    0    0  0.22705840550E+03  0.29158403263E+03 -0.30309596141E+03  0.48413841207E+03  0.77110781509E+02 0.  0.
         24    2    4    4    0    0  0.12628312693E+03 -0.27227151901E+03 -0.13411694641E+03  0.33835841340E+03  0.80123981385E+02 0.  0.
         11    1    5    5    0    0  0.20014518756E+03  0.21623636137E+03 -0.26154638167E+03  0.39398321011E+03  0.00000000000E+00 0. -1.
        -12    1    5    5    0    0  0.26913217941E+02  0.75347671259E+02 -0.41549579736E+02  0.90155201960E+02  0.00000000000E+00 0.  1.
         13    1    3    3    0    0 -0.26218800882E+03 -0.50959693289E+01 -0.21214173241E+03  0.33730199452E+03  0.00000000000E+00 0. -1.
        -14    1    3    3    0    0 -0.91153523607E+02 -0.14216544298E+02 -0.14443769319E+03  0.17138647033E+03  0.00000000000E+00 0.  1.
          4    1    6    6  502    0  0.10103193005E+03 -0.12513553617E+03 -0.79377861940E+02  0.17935216271E+03  0.00000000000E+00 0. -1.
         -3    1    6    6    0  502  0.25251196879E+02 -0.14713598283E+03 -0.54739084468E+02  0.15900625068E+03  0.00000000000E+00 0.  1.
<mgrwt>
<rscale>  0 0.51963310E+03</rscale>
<asrwt>0</asrwt>
<pdfrwt beam="1">  1        1 0.16345982E+00 0.51963310E+03</pdfrwt>
<pdfrwt beam="2">  1       -2 0.41337920E-01 0.51963310E+03</pdfrwt>
<totfact> 0.68714375E+01</totfact>
</mgrwt>
</event>
<event>
12    3  0.2269558E-007  0.5122718E+03  0.7818608E-02  0.1010625E+00
         -2   -1    0    0    0  501 -0.00000000000E+00  0.00000000000E+00  0.16284438054E+03  0.16284438054E+03  0.00000000000E+00 0.  1.
          1   -1    0    0  501    0  0.00000000000E+00 -0.00000000000E+00 -0.22417711001E+04  0.22417711001E+04  0.00000000000E+00 0. -1.
        -24    2    1    2    0    0 -0.28972314308E+03 -0.34531436097E+03 -0.76361916151E+03  0.89031537297E+03  0.79785537494E+02 0.  0.
    5000000    2    1    2    0    0  0.28972314308E+03  0.34531436097E+03 -0.13153075581E+04  0.15143001077E+04  0.59990777318E+03 0.  0.
        -24    2    4    4    0    0  0.12371734844E+03  0.36146827432E+03 -0.32743868028E+03  0.50944446726E+03  0.79701193444E+02 0.  0.
         24    2    4    4    0    0  0.16600579464E+03 -0.16153913347E+02 -0.98786887779E+03  0.10048556404E+04  0.77659935875E+02 0.  0.
         11    1    3    3    0    0 -0.13480728169E+03 -0.13982960208E+03 -0.25759278183E+03  0.32261333213E+03  0.00000000000E+00 0. -1.
        -12    1    3    3    0    0 -0.15491586139E+03 -0.20548475889E+03 -0.50602637968E+03  0.56770204084E+03  0.00000000000E+00 0.  1.
         13    1    5    5    0    0  0.12830838962E+03  0.28676621190E+03 -0.24754230019E+03  0.39996886569E+03  0.00000000000E+00 0. -1.
        -14    1    5    5    0    0 -0.45910411841E+01  0.74702062413E+02 -0.79896380091E+02  0.10947560157E+03  0.00000000000E+00 0.  1.
          4    1    6    6  502    0  0.10538640299E+03 -0.47648322176E+02 -0.61515953774E+03  0.62593762742E+03  0.00000000000E+00 0. -1.
         -3    1    6    6    0  502  0.60619391648E+02  0.31494408829E+02 -0.37270934005E+03  0.37891801302E+03  0.00000000000E+00 0.  1.
<mgrwt>
<rscale>  0 0.51227175E+03</rscale>
<asrwt>0</asrwt>
<pdfrwt beam="1">  1        1 0.34488784E+00 0.51227175E+03</pdfrwt>
<pdfrwt beam="2">  1       -2 0.25052983E-01 0.51227175E+03</pdfrwt>
<totfact> 0.27642952E+01</totfact>
</mgrwt>
</event>
<event>
12    3  0.2269558E-007  0.8567861E+03  0.7818608E-02  0.9481274E-01
          1   -1    0    0  501    0  0.00000000000E+00  0.00000000000E+00  0.16057402031E+04  0.16057402031E+04  0.00000000000E+00 0. -1.
         -2   -1    0    0    0  501 -0.00000000000E+00 -0.00000000000E+00 -0.58112960721E+03  0.58112960721E+03  0.00000000000E+00 0.  1.
        -24    2    1    2    0    0  0.25620057290E+03  0.81374377021E+03  0.66198141109E+03  0.10826375832E+04  0.77891532777E+02 0.  0.
    5000000    2    1    2    0    0 -0.25620057290E+03 -0.81374377021E+03  0.36262918480E+03  0.11042322271E+04  0.60000935702E+03 0.  0.
        -24    2    4    4    0    0 -0.64546313404E+02 -0.22729850888E+03  0.40981643117E+03  0.48024316184E+03  0.82783745545E+02 0.  0.
         24    2    4    4    0    0 -0.19165425950E+03 -0.58644526133E+03 -0.47187246372E+02  0.62398906523E+03  0.80537678006E+02 0.  0.
         11    1    3    3    0    0  0.86592450490E+02  0.29533829357E+03  0.19287690260E+03  0.36321406868E+03  0.00000000000E+00 0. -1.
        -12    1    3    3    0    0  0.16960812241E+03  0.51840547664E+03  0.46910450849E+03  0.71942351455E+03  0.00000000000E+00 0.  1.
         11    1    5    5    0    0 -0.28577458520E+02 -0.48607575285E+02  0.16942058893E+03  0.17855728342E+03  0.00000000000E+00 0. -1.
        -12    1    5    5    0    0 -0.35968854884E+02 -0.17869093360E+03  0.24039584224E+03  0.30168587842E+03  0.00000000000E+00 0.  1.
          4    1    6    6  502    0  0.73357838385E+01 -0.23148353382E+02 -0.67848793133E+01  0.25212984277E+02  0.00000000000E+00 0. -1.
         -3    1    6    6    0  502 -0.19899004334E+03 -0.56329690795E+03 -0.40402367059E+02  0.59877608095E+03  0.00000000000E+00 0.  1.
<mgrwt>
<rscale>  0 0.85678606E+03</rscale>
<asrwt>0</asrwt>
<pdfrwt beam="1">  1        1 0.24703695E+00 0.85678606E+03</pdfrwt>
<pdfrwt beam="2">  1       -2 0.89404555E-01 0.85678606E+03</pdfrwt>
<totfact> 0.53103899E+00</totfact>
</mgrwt>
</event>
<event>
12    3  0.2269558E-007  0.8929925E+03  0.7818608E-02  0.9434384E-01
         -2   -1    0    0    0  501 -0.00000000000E+00  0.00000000000E+00  0.47802547849E+03  0.47802547849E+03  0.00000000000E+00 0.  1.
          1   -1    0    0  501    0  0.00000000000E+00 -0.00000000000E+00 -0.17381168874E+04  0.17381168874E+04  0.00000000000E+00 0. -1.
        -24    2    1    2    0    0 -0.11043869427E+03 -0.79164957923E+03 -0.39827039573E+03  0.89642394705E+03  0.77787037854E+02 0.  0.
    5000000    2    1    2    0    0  0.11043869427E+03  0.79164957923E+03 -0.86182101314E+03  0.13197184188E+04  0.60001290382E+03 0.  0.
        -24    2    4    4    0    0 -0.22787268696E+03  0.37810086275E+03 -0.29604175615E+03  0.53741803150E+03  0.79317055648E+02 0.  0.
         24    2    4    4    0    0  0.33831138123E+03  0.41354871647E+03 -0.56577925699E+03  0.78230038730E+03  0.80066202421E+02 0.  0.
         13    1    3    3    0    0 -0.77967925110E+02 -0.58757603992E+03 -0.33223413698E+03  0.67948813220E+03  0.00000000000E+00 0. -1.
        -14    1    3    3    0    0 -0.32470769158E+02 -0.20407353931E+03 -0.66036258754E+02  0.21693581485E+03  0.00000000000E+00 0.  1.
         13    1    5    5    0    0 -0.10741823655E+03  0.11660723241E+03 -0.80767646462E+02  0.17793070816E+03  0.00000000000E+00 0. -1.
        -14    1    5    5    0    0 -0.12045445042E+03  0.26149363035E+03 -0.21527410969E+03  0.35948732334E+03  0.00000000000E+00 0.  1.
          2    1    6    6  502    0  0.11740694263E+03  0.87893488582E+02 -0.16017302488E+03  0.21717516757E+03  0.00000000000E+00 0. -1.
         -1    1    6    6    0  502  0.22090443860E+03  0.32565522789E+03 -0.40560623211E+03  0.56512521973E+03  0.00000000000E+00 0.  1.
<mgrwt>
<rscale>  0 0.89299249E+03</rscale>
<asrwt>0</asrwt>
<pdfrwt beam="1">  1        1 0.26740260E+00 0.89299249E+03</pdfrwt>
<pdfrwt beam="2">  1       -2 0.73542380E-01 0.89299249E+03</pdfrwt>
<totfact> 0.66863856E+00</totfact>
</mgrwt>
</event>
<event>
12    3  0.2289391E-007  0.8341571E+03  0.7818608E-02  0.9511851E-01
         -2   -1    0    0    0  501 -0.00000000000E+00  0.00000000000E+00  0.55474180849E+03  0.55474180849E+03  0.00000000000E+00 0.  1.
          1   -1    0    0  501    0  0.00000000000E+00 -0.00000000000E+00 -0.13002644266E+04  0.13002644266E+04  0.00000000000E+00 0. -1.
        -24    2    1    2    0    0  0.19441202448E+03 -0.71293438798E+03 -0.38563043960E+03  0.83732118192E+03  0.79526403879E+02 0.  0.
    5000000    2    1    2    0    0 -0.19441202448E+03  0.71293438798E+03 -0.35989217847E+03  0.10176850531E+04  0.60007417077E+03 0.  0.
        -24    2    4    4    0    0 -0.12260949151E+02 -0.88289128467E+02 -0.40289856020E+02  0.13202853815E+03  0.88673340466E+02 0.  0.
         24    2    4    4    0    0 -0.18215107533E+03  0.80122351645E+03 -0.31960232245E+03  0.88565651499E+03  0.84283334438E+02 0.  0.
         11    1    5    5    0    0 -0.36338143651E+02 -0.58873336970E+02  0.90167717957E+01  0.69769854977E+02  0.00000000000E+00 0. -1.
        -12    1    5    5    0    0  0.24077194500E+02 -0.29415791497E+02 -0.49306627816E+02  0.62258683177E+02  0.00000000000E+00 0.  1.
         13    1    3    3    0    0  0.11233814161E+03 -0.36500368143E+03 -0.15656278652E+03  0.41274623152E+03  0.00000000000E+00 0. -1.
        -14    1    3    3    0    0  0.82073882872E+02 -0.34793070655E+03 -0.22906765308E+03  0.42457495039E+03  0.00000000000E+00 0.  1.
          2    1    6    6  502    0 -0.13774025362E+03  0.62570732651E+03 -0.21102547208E+03  0.67454709679E+03  0.00000000000E+00 0. -1.
         -1    1    6    6    0  502 -0.44410821706E+02  0.17551618994E+03 -0.10857685037E+03  0.21110941820E+03  0.00000000000E+00 0.  1.
<mgrwt>
<rscale>  0 0.83415707E+03</rscale>
<asrwt>0</asrwt>
<pdfrwt beam="1">  1        1 0.20004068E+00 0.83415707E+03</pdfrwt>
<pdfrwt beam="2">  1       -2 0.85344895E-01 0.83415707E+03</pdfrwt>
<totfact> 0.96420123E+00</totfact>
</mgrwt>
</event>
<event>
12    3  0.2269558E-007  0.9125054E+03  0.7818608E-02  0.9410083E-01
          1   -1    0    0  501    0  0.00000000000E+00  0.00000000000E+00  0.97493469256E+03  0.97493469256E+03  0.00000000000E+00 0. -1.
         -2   -1    0    0    0  501 -0.00000000000E+00 -0.00000000000E+00 -0.16835091747E+04  0.16835091747E+04  0.00000000000E+00 0.  1.
        -24    2    1    2    0    0 -0.90677892673E+03  0.33415253293E+02 -0.11646707027E+04  0.14788964781E+04  0.85512257966E+02 0.  0.
    5000000    2    1    2    0    0  0.90677892673E+03 -0.33415253293E+02  0.45609622049E+03  0.11795473892E+04  0.59995306467E+03 0.  0.
        -24    2    4    4    0    0  0.66616563983E+03 -0.64426558714E+02  0.20340659232E+02  0.67437604345E+03  0.80261226033E+02 0.  0.
         24    2    4    4    0    0  0.24061328690E+03  0.31011305422E+02  0.43575556126E+03  0.50517134570E+03  0.80366189746E+02 0.  0.
         11    1    5    5    0    0  0.50210237396E+03 -0.13986777760E+02  0.20933468429E+02  0.50273316380E+03  0.00000000000E+00 0. -1.
        -12    1    5    5    0    0  0.16406326588E+03 -0.50439780954E+02 -0.59280919705E+00  0.17164287965E+03  0.00000000000E+00 0.  1.
         11    1    3    3    0    0 -0.40050316059E+03  0.17398598223E+02 -0.58390654499E+03  0.70827420265E+03  0.00000000000E+00 0. -1.
        -12    1    3    3    0    0 -0.50627576614E+03  0.16016655070E+02 -0.58076415770E+03  0.77062227549E+03  0.00000000000E+00 0.  1.
          4    1    6    6  502    0  0.22074749507E+03  0.21978641885E+02  0.33301968532E+03  0.40014325946E+03  0.00000000000E+00 0. -1.
         -3    1    6    6    0  502  0.19865791832E+02  0.90326635367E+01  0.10273587594E+03  0.10502808625E+03  0.00000000000E+00 0.  1.
<mgrwt>
<rscale>  0 0.91250540E+03</rscale>
<asrwt>0</asrwt>
<pdfrwt beam="1">  1        1 0.14998995E+00 0.91250540E+03</pdfrwt>
<pdfrwt beam="2">  1       -2 0.25900141E+00 0.91250540E+03</pdfrwt>
<totfact> 0.79751514E-01</totfact>
</mgrwt>
</event>
<event>
12    3  0.2269558E-007  0.2063018E+04  0.7818608E-02  0.8577711E-01
          1   -1    0    0  501    0  0.00000000000E+00  0.00000000000E+00  0.27518725014E+04  0.27518725014E+04  0.00000000000E+00 0. -1.
         -2   -1    0    0    0  501 -0.00000000000E+00 -0.00000000000E+00 -0.15644956133E+04  0.15644956133E+04  0.00000000000E+00 0.  1.
        -24    2    1    2    0    0 -0.28486903535E+03  0.20033416243E+04  0.40313730264E+03  0.20647771907E+04  0.79102032795E+02 0.  0.
    5000000    2    1    2    0    0  0.28486903535E+03 -0.20033416243E+04  0.78423958543E+03  0.22515909240E+04  0.60008493642E+03 0.  0.
        -24    2    4    4    0    0  0.27643124360E+03 -0.20078819996E+04  0.77075304380E+03  0.21699037279E+04  0.80109780817E+02 0.  0.
         24    2    4    4    0    0  0.84377917513E+01  0.45403753119E+01  0.13486541635E+02  0.81687196155E+02  0.79994374007E+02 0.  0.
         13    1    5    5    0    0  0.19904055192E+03 -0.13818312076E+04  0.49209339336E+03  0.14802805596E+04  0.00000000000E+00 0. -1.
        -14    1    5    5    0    0  0.77390691680E+02 -0.62605079204E+03  0.27865965044E+03  0.68962316823E+03  0.00000000000E+00 0.  1.
         13    1    3    3    0    0 -0.26504703090E+03  0.17163664014E+04  0.36430661617E+03  0.17745091894E+04  0.00000000000E+00 0. -1.
        -14    1    3    3    0    0 -0.19822004453E+02  0.28697522286E+03  0.38830686469E+02  0.29026800135E+03  0.00000000000E+00 0.  1.
          2    1    6    6  502    0 -0.12391657150E+02  0.35411422157E+02 -0.84622253382E+01  0.38459475344E+02  0.00000000000E+00 0. -1.
         -1    1    6    6    0  502  0.20829448901E+02 -0.30871046845E+02  0.21948766973E+02  0.43227720810E+02  0.00000000000E+00 0.  1.
<mgrwt>
<rscale>  0 0.20630181E+04</rscale>
<asrwt>0</asrwt>
<pdfrwt beam="1">  1        1 0.42336500E+00 0.20630181E+04</pdfrwt>
<pdfrwt beam="2">  1       -2 0.24069163E+00 0.20630181E+04</pdfrwt>
<totfact> 0.51303154E-02</totfact>
</mgrwt>
</event>
<event>
12    3  0.2269558E-007  0.7591599E+03  0.7818608E-02  0.9621089E-01
         -2   -1    0    0    0  501 -0.00000000000E+00  0.00000000000E+00  0.42958706007E+03  0.42958706007E+03  0.00000000000E+00 0.  1.
          1   -1    0    0  501    0  0.00000000000E+00 -0.00000000000E+00 -0.16214392452E+04  0.16214392452E+04  0.00000000000E+00 0. -1.
        -24    2    1    2    0    0  0.72215288030E+03 -0.51676886434E+02 -0.54888004195E+03  0.91187773789E+03  0.77951429065E+02 0.  0.
    5000000    2    1    2    0    0 -0.72215288030E+03  0.51676886434E+02 -0.64297214317E+03  0.11391485674E+04  0.60005916252E+03 0.  0.
        -24    2    4    4    0    0 -0.50424015151E+03  0.17934254227E+03 -0.12174925226E+03  0.55457229741E+03  0.79408278966E+02 0.  0.
         24    2    4    4    0    0 -0.21791272879E+03 -0.12766565584E+03 -0.52122289090E+03  0.58457626995E+03  0.79193663508E+02 0.  0.
         11    1    3    3    0    0  0.58030001132E+03 -0.69548394387E+02 -0.42412592932E+03  0.72212733380E+03  0.00000000000E+00 0. -1.
        -12    1    3    3    0    0  0.14185286897E+03  0.17871507952E+02 -0.12475411263E+03  0.18975040409E+03  0.00000000000E+00 0.  1.
         11    1    5    5    0    0 -0.42647026888E+03  0.15791457231E+03 -0.13129485654E+03  0.47334156984E+03  0.00000000000E+00 0. -1.
        -12    1    5    5    0    0 -0.77769882627E+02  0.21427969964E+02  0.95456042746E+01  0.81230727570E+02  0.00000000000E+00 0.  1.
          2    1    6    6  502    0 -0.19323470702E+03 -0.97365348317E+02 -0.48589546477E+03  0.53189666829E+03  0.00000000000E+00 0. -1.
         -1    1    6    6    0  502 -0.24678021770E+02 -0.30300307524E+02 -0.35327426134E+02  0.52679601667E+02  0.00000000000E+00 0.  1.
<mgrwt>
<rscale>  0 0.75915986E+03</rscale>
<asrwt>0</asrwt>
<pdfrwt beam="1">  1        1 0.24945219E+00 0.75915986E+03</pdfrwt>
<pdfrwt beam="2">  1       -2 0.66090316E-01 0.75915986E+03</pdfrwt>
<totfact> 0.10301306E+01</totfact>
</mgrwt>
</event>
<event>
12    3  0.2269558E-007  0.3991142E+03  0.7818608E-02  0.1044087E+00
         -4   -1    0    0    0  501 -0.00000000000E+00  0.00000000000E+00  0.43089072242E+03  0.43089072242E+03  0.00000000000E+00 0.  1.
          3   -1    0    0  501    0  0.00000000000E+00 -0.00000000000E+00 -0.41862736318E+03  0.41862736318E+03  0.00000000000E+00 0. -1.
        -24    2    1    2    0    0 -0.18180565061E+03  0.77388842847E+02  0.40704708875E+02  0.21711522716E+03  0.80248494989E+02 0.  0.
    5000000    2    1    2    0    0  0.18180565061E+03 -0.77388842847E+02 -0.28441349632E+02  0.63240285844E+03  0.60006844393E+03 0.  0.
        -24    2    4    4    0    0  0.13891673440E+03 -0.31287404841E+03 -0.10914851769E+03  0.36806115356E+03  0.79797146447E+02 0.  0.
         24    2    4    4    0    0  0.42888916210E+02  0.23548520557E+03  0.80707168057E+02  0.26434170488E+03  0.77911159594E+02 0.  0.
         11    1    3    3    0    0 -0.13460158231E+02  0.33375973640E+01 -0.19207108924E+02  0.23690260635E+02  0.00000000000E+00 0. -1.
        -12    1    3    3    0    0 -0.16834549238E+03  0.74051245483E+02  0.59911817799E+02  0.19342496653E+03  0.00000000000E+00 0.  1.
         13    1    5    5    0    0 -0.68875563999E+01 -0.16996949646E+01 -0.59525521407E+01  0.92606842686E+01  0.00000000000E+00 0. -1.
        -14    1    5    5    0    0  0.14580429080E+03 -0.31117435345E+03 -0.10319596555E+03  0.35880046929E+03  0.00000000000E+00 0.  1.
          2    1    6    6  502    0  0.32665891519E+02  0.31195461256E+02  0.27896227953E+02  0.53088763460E+02  0.00000000000E+00 0. -1.
         -1    1    6    6    0  502  0.10223024690E+02  0.20428974431E+03  0.52810940103E+02  0.21125294142E+03  0.00000000000E+00 0.  1.
<mgrwt>
<rscale>  0 0.39911422E+03</rscale>
<asrwt>0</asrwt>
<pdfrwt beam="1">  1        3 0.64404209E-01 0.39911422E+03</pdfrwt>
<pdfrwt beam="2">  1       -4 0.66290881E-01 0.39911422E+03</pdfrwt>
<totfact> 0.11012174E+01</totfact>
</mgrwt>
</event>
<event>
12    3  0.2269558E-007  0.9056984E+03  0.7818608E-02  0.9418486E-01
          1   -1    0    0  501    0  0.00000000000E+00  0.00000000000E+00  0.17978364221E+04  0.17978364221E+04  0.00000000000E+00 0. -1.
         -2   -1    0    0    0  501 -0.00000000000E+00 -0.00000000000E+00 -0.53784878049E+03  0.53784878049E+03  0.00000000000E+00 0.  1.
        -24    2    1    2    0    0  0.68201596613E+02  0.87949832169E+03  0.71080354597E+03  0.11358764793E+04  0.82492058144E+02 0.  0.
    5000000    2    1    2    0    0 -0.68201596613E+02 -0.87949832169E+03  0.54918409569E+03  0.11998087233E+04  0.59980750745E+03 0.  0.
        -24    2    4    4    0    0  0.93263803585E+02 -0.46626698751E+03 -0.94894181628E+01  0.48183525955E+03  0.77279541847E+02 0.  0.
         24    2    4    4    0    0 -0.16146540020E+03 -0.41323133418E+03  0.55867351385E+03  0.71797346378E+03  0.80861539747E+02 0.  0.
         11    1    3    3    0    0  0.32816490277E+02  0.27761370692E+03  0.27326452470E+03  0.39092172204E+03  0.00000000000E+00 0. -1.
        -12    1    3    3    0    0  0.35385106337E+02  0.60188461477E+03  0.43753902126E+03  0.74495475727E+03  0.00000000000E+00 0.  1.
         13    1    5    5    0    0  0.10525285736E+03 -0.37885037646E+03 -0.14408667973E+02  0.39346331651E+03  0.00000000000E+00 0. -1.
        -14    1    5    5    0    0 -0.11989053777E+02 -0.87416611053E+02  0.49192498100E+01  0.88371943043E+02  0.00000000000E+00 0.  1.
          2    1    6    6  502    0 -0.16592776114E+03 -0.38990575549E+03  0.54572974504E+03  0.69092653351E+03  0.00000000000E+00 0. -1.
         -1    1    6    6    0  502  0.44623609428E+01 -0.23325578689E+02  0.12943768809E+02  0.27046930276E+02  0.00000000000E+00 0.  1.
<mgrwt>
<rscale>  0 0.90569841E+03</rscale>
<asrwt>0</asrwt>
<pdfrwt beam="1">  1        1 0.27659022E+00 0.90569841E+03</pdfrwt>
<pdfrwt beam="2">  1       -2 0.82745967E-01 0.90569841E+03</pdfrwt>
<totfact> 0.46713214E+00</totfact>
</mgrwt>
</event>
<event>
12    3  0.2269558E-007  0.5557781E+03  0.7818608E-02  0.1000165E+00
         -2   -1    0    0    0  501 -0.00000000000E+00  0.00000000000E+00  0.17608648742E+03  0.17608648742E+03  0.00000000000E+00 0.  1.
          1   -1    0    0  501    0  0.00000000000E+00 -0.00000000000E+00 -0.38829083290E+04  0.38829083290E+04  0.00000000000E+00 0. -1.
        -24    2    1    2    0    0  0.48149294366E+03  0.72797946415E+02 -0.32801024937E+03  0.59294615539E+03  0.82821637872E+02 0.  0.
    5000000    2    1    2    0    0 -0.48149294366E+03 -0.72797946415E+02 -0.33788115922E+04  0.34660486610E+04  0.59999212428E+03 0.  0.
        -24    2    4    4    0    0 -0.21941717422E+02  0.11036968404E+03 -0.18916081783E+04  0.18967896029E+04  0.83464911013E+02 0.  0.
         24    2    4    4    0    0 -0.45955122624E+03 -0.18316763046E+03 -0.14872034139E+04  0.15692590581E+04  0.77860688212E+02 0.  0.
         11    1    3    3    0    0  0.10194803253E+03  0.46466781420E+02 -0.94285493258E+02  0.14643195468E+03  0.00000000000E+00 0. -1.
        -12    1    3    3    0    0  0.37954491113E+03  0.26331164995E+02 -0.23372475612E+03  0.44651420071E+03  0.00000000000E+00 0.  1.
         13    1    5    5    0    0  0.17425920909E+02  0.27898885937E+02 -0.19767364355E+03  0.20039181597E+03  0.00000000000E+00 0. -1.
        -14    1    5    5    0    0 -0.39367638331E+02  0.82470798107E+02 -0.16939345348E+04  0.16963977869E+04  0.00000000000E+00 0.  1.
          4    1    6    6  502    0 -0.18477254155E+03 -0.78108184472E+02 -0.48719509446E+03  0.52687839267E+03  0.00000000000E+00 0. -1.
         -1    1    6    6    0  502 -0.27477868469E+03 -0.10505944599E+03 -0.10000083194E+04  0.10423806654E+04  0.00000000000E+00 0.  1.
<mgrwt>
<rscale>  0 0.55577811E+03</rscale>
<asrwt>0</asrwt>
<pdfrwt beam="1">  1        1 0.59737050E+00 0.55577811E+03</pdfrwt>
<pdfrwt beam="2">  1       -2 0.27090230E-01 0.55577811E+03</pdfrwt>
<totfact> 0.15186398E+00</totfact>
</mgrwt>
</event>
<event>
12    3  0.2671697E-007  0.1460870E+04  0.7818608E-02  0.8910899E-01
          1   -1    0    0  501    0  0.00000000000E+00  0.00000000000E+00  0.24832625545E+04  0.24832625545E+04  0.00000000000E+00 0. -1.
         -2   -1    0    0    0  501 -0.00000000000E+00 -0.00000000000E+00 -0.97728108941E+03  0.97728108941E+03  0.00000000000E+00 0.  1.
        -24    2    1    2    0    0  0.65207260230E+03 -0.12671713033E+04  0.12416198244E+04  0.18918272166E+04  0.80427847559E+02 0.  0.
    5000000    2    1    2    0    0 -0.65207260230E+03  0.12671713033E+04  0.26436164073E+03  0.15687164273E+04  0.60005196562E+03 0.  0.
        -24    2    4    4    0    0 -0.84467567212E+02 -0.11027526724E+02 -0.59982427002E+02  0.13092570420E+03  0.79292321285E+02 0.  0.
         24    2    4    4    0    0 -0.56760503509E+03  0.12781988301E+04  0.32434406773E+03  0.14377907231E+04  0.77944621779E+02 0.  0.
         11    1    5    5    0    0 -0.20204291551E+02  0.17891441623E+02 -0.53794170972E+02  0.60184133383E+02  0.00000000000E+00 0. -1.
        -12    1    5    5    0    0 -0.64263275661E+02 -0.28918968348E+02 -0.61882560294E+01  0.70741570817E+02  0.00000000000E+00 0.  1.
         13    1    3    3    0    0  0.16686597004E+03 -0.30860797616E+03  0.35154937668E+03  0.49665893644E+03  0.00000000000E+00 0. -1.
        -14    1    3    3    0    0  0.48520663226E+03 -0.95856332718E+03  0.89007044768E+03  0.13951682802E+04  0.00000000000E+00 0.  1.
          2    1    6    6  502    0 -0.26734071958E+03  0.55533227859E+03  0.10829746642E+03  0.62577419347E+03  0.00000000000E+00 0. -1.
         -1    1    6    6    0  502 -0.30026431551E+03  0.72286655147E+03  0.21604660131E+03  0.81201652960E+03  0.00000000000E+00 0.  1.
<mgrwt>
<rscale>  0 0.14608695E+04</rscale>
<asrwt>0</asrwt>
<pdfrwt beam="1">  1        1 0.38204039E+00 0.14608695E+04</pdfrwt>
<pdfrwt beam="2">  1       -2 0.15035094E+00 0.14608695E+04</pdfrwt>
<totfact> 0.34555086E-01</totfact>
</mgrwt>
</event>
<event>
12    3  0.2269558E-007  0.8324032E+03  0.7818608E-02  0.9514264E-01
          1   -1    0    0  501    0  0.00000000000E+00  0.00000000000E+00  0.97400085293E+03  0.97400085293E+03  0.00000000000E+00 0. -1.
         -2   -1    0    0    0  501 -0.00000000000E+00 -0.00000000000E+00 -0.77704902020E+03  0.77704902020E+03  0.00000000000E+00 0.  1.
        -24    2    1    2    0    0  0.71201611817E+03 -0.13255150770E+03  0.33271574571E+03  0.80078754029E+03  0.77614834330E+02 0.  0.
    5000000    2    1    2    0    0 -0.71201611817E+03  0.13255150770E+03 -0.13576391298E+03  0.95026233285E+03  0.60002483819E+03 0.  0.
        -24    2    4    4    0    0  0.91522185461E+02  0.40619358011E+00 -0.15668101584E+02  0.12314543522E+03  0.80887782651E+02 0.  0.
         24    2    4    4    0    0 -0.80353830363E+03  0.13214531412E+03 -0.12009581140E+03  0.82711689763E+03  0.81013387751E+02 0.  0.
         11    1    5    5    0    0  0.77194300186E+02  0.32303362058E+02  0.25443451507E+01  0.83719417543E+02  0.00000000000E+00 0. -1.
        -12    1    5    5    0    0  0.14327885275E+02 -0.31897168478E+02 -0.18212446735E+02  0.39426017672E+02  0.00000000000E+00 0.  1.
         11    1    3    3    0    0  0.59790898467E+03 -0.13844361174E+03  0.27059971955E+03  0.67073541415E+03  0.00000000000E+00 0. -1.
        -12    1    3    3    0    0  0.11410713350E+03  0.58921040414E+01  0.62116026159E+02  0.13005212613E+03  0.00000000000E+00 0.  1.
          4    1    6    6  502    0 -0.22231020267E+03  0.72775178633E+02 -0.42191541217E+02  0.23769345592E+03  0.00000000000E+00 0. -1.
         -3    1    6    6    0  502 -0.58122810096E+03  0.59370135482E+02 -0.77904270182E+02  0.58942344171E+03  0.00000000000E+00 0.  1.
<mgrwt>
<rscale>  0 0.83240320E+03</rscale>
<asrwt>0</asrwt>
<pdfrwt beam="1">  1        1 0.14984628E+00 0.83240320E+03</pdfrwt>
<pdfrwt beam="2">  1       -2 0.11954600E+00 0.83240320E+03</pdfrwt>
<totfact> 0.75594712E+00</totfact>
</mgrwt>
</event>
<event>
12    3  0.2269558E-007  0.8750696E+03  0.7818608E-02  0.9457294E-01
          1   -1    0    0  501    0  0.00000000000E+00  0.00000000000E+00  0.39958006270E+03  0.39958006270E+03  0.00000000000E+00 0. -1.
         -2   -1    0    0    0  501 -0.00000000000E+00 -0.00000000000E+00 -0.33396090374E+04  0.33396090374E+04  0.00000000000E+00 0.  1.
        -24    2    1    2    0    0  0.54215514205E+03 -0.62605574541E+03 -0.26167348412E+03  0.87222575427E+03  0.80167073639E+02 0.  0.
    5000000    2    1    2    0    0 -0.54215514205E+03  0.62605574541E+03 -0.26783554906E+04  0.28669633458E+04  0.60001058158E+03 0.  0.
        -24    2    4    4    0    0 -0.45959743477E+03  0.23957461236E+03 -0.88084442820E+03  0.10244896836E+04  0.71178705996E+02 0.  0.
         24    2    4    4    0    0 -0.82557707281E+02  0.38648113306E+03 -0.17975110624E+04  0.18424736622E+04  0.86485463406E+02 0.  0.
         11    1    3    3    0    0  0.22449592666E+03 -0.31865615159E+03 -0.13241631265E+03  0.41167249591E+03  0.00000000000E+00 0. -1.
        -12    1    3    3    0    0  0.31765921539E+03 -0.30739959382E+03 -0.12925717147E+03  0.46055325836E+03  0.00000000000E+00 0.  1.
         13    1    5    5    0    0 -0.12255101481E+03  0.84724882957E+02 -0.20310112652E+03  0.25188712674E+03  0.00000000000E+00 0. -1.
        -14    1    5    5    0    0 -0.33704641996E+03  0.15484972940E+03 -0.67774330167E+03  0.77260255686E+03  0.00000000000E+00 0.  1.
          4    1    6    6  502    0 -0.72711821270E+02  0.22161232735E+03 -0.12054844894E+04  0.12278403344E+04  0.00000000000E+00 0. -1.
         -3    1    6    6    0  502 -0.98458860105E+01  0.16486880571E+03 -0.59202657303E+03  0.61463332788E+03  0.00000000000E+00 0.  1.
<mgrwt>
<rscale>  0 0.87506963E+03</rscale>
<asrwt>0</asrwt>
<pdfrwt beam="1">  1        1 0.61473857E-01 0.87506963E+03</pdfrwt>
<pdfrwt beam="2">  1       -2 0.51378600E+00 0.87506963E+03</pdfrwt>
<totfact> 0.73819859E-02</totfact>
</mgrwt>
</event>
<event>
12    3  0.2269558E-007  0.9355847E+03  0.7818608E-02  0.9382160E-01
         -2   -1    0    0    0  501 -0.00000000000E+00  0.00000000000E+00  0.11292756165E+04  0.11292756165E+04  0.00000000000E+00 0.  1.
          1   -1    0    0  501    0  0.00000000000E+00 -0.00000000000E+00 -0.92598858686E+03  0.92598858686E+03  0.00000000000E+00 0. -1.
        -24    2    1    2    0    0  0.56849768494E+03  0.73078630093E+03  0.20650006837E+03  0.95197637171E+03  0.79865503469E+02 0.  0.
    5000000    2    1    2    0    0 -0.56849768494E+03 -0.73078630093E+03 -0.32130386862E+01  0.11032878317E+04  0.59999623380E+03 0.  0.
        -24    2    4    4    0    0 -0.29530309273E+03 -0.28387042799E+03 -0.28328841927E+03  0.50401131239E+03  0.77386937276E+02 0.  0.
         24    2    4    4    0    0 -0.27319459221E+03 -0.44691587294E+03  0.28007538058E+03  0.59927651932E+03  0.79505000481E+02 0.  0.
         11    1    3    3    0    0  0.18106205104E+03  0.29547467305E+03  0.79812685214E+02  0.35561047996E+03  0.00000000000E+00 0. -1.
        -12    1    3    3    0    0  0.38743563390E+03  0.43531162788E+03  0.12668738316E+03  0.59636589174E+03  0.00000000000E+00 0.  1.
         13    1    5    5    0    0 -0.11952856171E+03 -0.14969775135E+03 -0.96236495426E+02  0.21437806995E+03  0.00000000000E+00 0. -1.
        -14    1    5    5    0    0 -0.17577453101E+03 -0.13417267664E+03 -0.18705192384E+03  0.28963324243E+03  0.00000000000E+00 0.  1.
          2    1    6    6  502    0 -0.91391935703E+02 -0.22132798218E+03  0.14118708638E+03  0.27797905491E+03  0.00000000000E+00 0. -1.
         -1    1    6    6    0  502 -0.18180265651E+03 -0.22558789076E+03  0.13888829421E+03  0.32129746441E+03  0.00000000000E+00 0.  1.
<mgrwt>
<rscale>  0 0.93558468E+03</rscale>
<asrwt>0</asrwt>
<pdfrwt beam="1">  1        1 0.14245978E+00 0.93558468E+03</pdfrwt>
<pdfrwt beam="2">  1       -2 0.17373471E+00 0.93558468E+03</pdfrwt>
<totfact> 0.30554526E+00</totfact>
</mgrwt>
</event>
<event>
12    3  0.2269558E-007  0.8785051E+03  0.7818608E-02  0.9452857E-01
         -2   -1    0    0    0  501 -0.00000000000E+00  0.00000000000E+00  0.11719480149E+04  0.11719480149E+04  0.00000000000E+00 0.  1.
          1   -1    0    0  501    0  0.00000000000E+00 -0.00000000000E+00 -0.88625029270E+03  0.88625029270E+03  0.00000000000E+00 0. -1.
        -24    2    1    2    0    0  0.76182943623E+03  0.34402228496E+03 -0.27854086629E+03  0.88467688207E+03  0.79578571372E+02 0.  0.
    5000000    2    1    2    0    0 -0.76182943623E+03 -0.34402228496E+03  0.56423858850E+03  0.11735214255E+04  0.60004327260E+03 0.  0.
        -24    2    4    4    0    0 -0.40402885614E+03 -0.38674843741E+03  0.57253312543E+03  0.80447639352E+03  0.81082782328E+02 0.  0.
         24    2    4    4    0    0 -0.35780058008E+03  0.42726152454E+02 -0.82945369235E+01  0.36904503202E+03  0.79237977641E+02 0.  0.
         11    1    5    5    0    0 -0.26187958591E+03 -0.23418967157E+03  0.30472425191E+03  0.46506192006E+03  0.00000000000E+00 0. -1.
        -12    1    5    5    0    0 -0.14214927023E+03 -0.15255876584E+03  0.26780887352E+03  0.33941447346E+03  0.00000000000E+00 0.  1.
         13    1    3    3    0    0  0.24357843777E+03  0.11168866430E+03 -0.50617841325E+02  0.27270309668E+03  0.00000000000E+00 0. -1.
        -14    1    3    3    0    0  0.51825099846E+03  0.23233362066E+03 -0.22792302497E+03  0.61197378539E+03  0.00000000000E+00 0.  1.
          4    1    6    6  502    0 -0.25858248565E+03  0.42434252921E+02  0.27695627326E+02  0.26350069350E+03  0.00000000000E+00 0. -1.
         -3    1    6    6    0  502 -0.99218094436E+02  0.29189953322E+00 -0.35990164249E+02  0.10554433851E+03  0.00000000000E+00 0.  1.
<mgrwt>
<rscale>  0 0.87850508E+03</rscale>
<asrwt>0</asrwt>
<pdfrwt beam="1">  1        1 0.13634620E+00 0.87850508E+03</pdfrwt>
<pdfrwt beam="2">  1       -2 0.18029969E+00 0.87850508E+03</pdfrwt>
<totfact> 0.29835735E+00</totfact>
</mgrwt>
</event>
<event>
12    3  0.2269558E-007  0.4190061E+03  0.7818608E-02  0.1037390E+00
         -2   -1    0    0    0  501 -0.00000000000E+00  0.00000000000E+00  0.99735666636E+02  0.99735666636E+02  0.00000000000E+00 0.  1.
          1   -1    0    0  501    0  0.00000000000E+00 -0.00000000000E+00 -0.25494216604E+04  0.25494216604E+04  0.00000000000E+00 0. -1.
        -24    2    1    2    0    0 -0.20962385188E+03 -0.21162814600E+03 -0.10842483224E+04  0.11282154036E+04  0.92449665958E+02 0.  0.
    5000000    2    1    2    0    0  0.20962385188E+03  0.21162814600E+03 -0.13654376714E+04  0.15209419235E+04  0.60009638290E+03 0.  0.
        -24    2    4    4    0    0 -0.53566112331E+02  0.25124148590E+03 -0.23403708870E+03  0.35578631104E+03  0.76281895677E+02 0.  0.
         24    2    4    4    0    0  0.26318996421E+03 -0.39613339901E+02 -0.11314005826E+04  0.11651556124E+04  0.81744411421E+02 0.  0.
         13    1    5    5    0    0 -0.64669238357E+02  0.23114262557E+03 -0.23008329299E+03  0.33248660944E+03  0.00000000000E+00 0. -1.
        -14    1    5    5    0    0  0.11103126026E+02  0.20098860332E+02 -0.39537957150E+01  0.23299701602E+02  0.00000000000E+00 0.  1.
         13    1    3    3    0    0 -0.11644025673E+03 -0.12147505231E+03 -0.77185932573E+03  0.78998819007E+03  0.00000000000E+00 0. -1.
        -14    1    3    3    0    0 -0.93183595145E+02 -0.90153093690E+02 -0.31238899666E+03  0.33822721349E+03  0.00000000000E+00 0.  1.
          4    1    6    6  502    0  0.18770238365E+03  0.79726104283E+01 -0.81811909276E+03  0.83941324583E+03  0.00000000000E+00 0. -1.
         -3    1    6    6    0  502  0.75487580555E+02 -0.47585950329E+02 -0.31328148989E+03  0.32574236660E+03  0.00000000000E+00 0.  1.
<mgrwt>
<rscale>  0 0.41900612E+03</rscale>
<asrwt>0</asrwt>
<pdfrwt beam="1">  1        1 0.39221864E+00 0.41900612E+03</pdfrwt>
<pdfrwt beam="2">  1       -2 0.15343952E-01 0.41900612E+03</pdfrwt>
<totfact> 0.41003229E+01</totfact>
</mgrwt>
</event>
<event>
12    3  0.2269558E-007  0.7211640E+03  0.7818608E-02  0.9681708E-01
         -4   -1    0    0    0  501 -0.00000000000E+00  0.00000000000E+00  0.26010002017E+03  0.26010002017E+03  0.00000000000E+00 0.  1.
          3   -1    0    0  501    0  0.00000000000E+00 -0.00000000000E+00 -0.25181859504E+04  0.25181859504E+04  0.00000000000E+00 0. -1.
        -24    2    1    2    0    0  0.66797582653E+03 -0.46969029089E+02 -0.13006110623E+04  0.14647876663E+04  0.74939826591E+02 0.  0.
    5000000    2    1    2    0    0 -0.66797582653E+03  0.46969029089E+02 -0.95747486796E+03  0.13134983042E+04  0.60010155635E+03 0.  0.
        -24    2    4    4    0    0 -0.94944513106E+02  0.14241393949E+03 -0.59516553976E+03  0.62417177779E+03  0.77924307731E+02 0.  0.
         24    2    4    4    0    0 -0.57303131342E+03 -0.95444910397E+02 -0.36230932820E+03  0.68932652645E+03  0.80177264157E+02 0.  0.
         11    1    5    5    0    0  0.32825434241E+01  0.55270156511E+02 -0.14369814823E+03  0.15399585415E+03  0.00000000000E+00 0. -1.
        -12    1    5    5    0    0 -0.98227056530E+02  0.87143782975E+02 -0.45146739153E+03  0.47017592363E+03  0.00000000000E+00 0.  1.
         11    1    3    3    0    0  0.40568851889E+03 -0.37247584258E+02 -0.86662696370E+03  0.95760787962E+03  0.00000000000E+00 0. -1.
        -12    1    3    3    0    0  0.26228730763E+03 -0.97214448317E+01 -0.43398409856E+03  0.50717978670E+03  0.00000000000E+00 0.  1.
          2    1    6    6  502    0 -0.25626748186E+03 -0.48128635081E+01 -0.17461608499E+03  0.31014023126E+03  0.00000000000E+00 0. -1.
         -1    1    6    6    0  502 -0.31676383156E+03 -0.90632046889E+02 -0.18769324322E+03  0.37918629519E+03  0.00000000000E+00 0.  1.
<mgrwt>
<rscale>  0 0.72116405E+03</rscale>
<asrwt>0</asrwt>
<pdfrwt beam="1">  1        3 0.38741322E+00 0.72116405E+03</pdfrwt>
<pdfrwt beam="2">  1       -4 0.40015388E-01 0.72116405E+03</pdfrwt>
<totfact> 0.18594589E-01</totfact>
</mgrwt>
</event>
<event>
12    3  0.2269558E-007  0.4549904E+03  0.7818608E-02  0.1026244E+00
          1   -1    0    0  501    0  0.00000000000E+00  0.00000000000E+00  0.29849088277E+04  0.29849088277E+04  0.00000000000E+00 0. -1.
         -2   -1    0    0    0  501 -0.00000000000E+00 -0.00000000000E+00 -0.15497524016E+03  0.15497524016E+03  0.00000000000E+00 0.  1.
        -24    2    1    2    0    0  0.34183553265E+02  0.33736069160E+03  0.21258866335E+04  0.21550791579E+04  0.99957223611E+02 0.  0.
    5000000    2    1    2    0    0 -0.34183553265E+02 -0.33736069160E+03  0.70404695401E+03  0.98480490998E+03  0.59931447982E+03 0.  0.
        -24    2    4    4    0    0 -0.18598825599E+03  0.15612703109E+01  0.52927434586E+03  0.56635276781E+03  0.77653431930E+02 0.  0.
         24    2    4    4    0    0  0.15180470272E+03 -0.33892196191E+03  0.17477260816E+03  0.41845214218E+03  0.81510531206E+02 0.  0.
         11    1    5    5    0    0 -0.10778733952E+03  0.23261044797E+02  0.21322636740E+03  0.24005139142E+03  0.00000000000E+00 0. -1.
        -12    1    5    5    0    0 -0.78200916471E+02 -0.21699774486E+02  0.31604797845E+03  0.32630137639E+03  0.00000000000E+00 0.  1.
         13    1    3    3    0    0  0.54974568773E+02  0.18643030456E+03  0.13955466347E+04  0.14090169876E+04  0.00000000000E+00 0. -1.
        -14    1    3    3    0    0 -0.20791015509E+02  0.15093038704E+03  0.73033999881E+03  0.74606217028E+03  0.00000000000E+00 0.  1.
          4    1    6    6  502    0  0.47515458360E+02 -0.85980604166E+02  0.92251649102E+01  0.98668570191E+02  0.00000000000E+00 0. -1.
         -3    1    6    6    0  502  0.10428924436E+03 -0.25294135774E+03  0.16554744325E+03  0.31978357199E+03  0.00000000000E+00 0.  1.
<mgrwt>
<rscale>  0 0.45499041E+03</rscale>
<asrwt>0</asrwt>
<pdfrwt beam="1">  1        1 0.45921670E+00 0.45499041E+03</pdfrwt>
<pdfrwt beam="2">  1       -2 0.23842347E-01 0.45499041E+03</pdfrwt>
<totfact> 0.95061711E+00</totfact>
</mgrwt>
</event>
<event>
12    3  0.2269558E-007  0.4944590E+03  0.7818608E-02  0.1015235E+00
         -2   -1    0    0    0  501 -0.00000000000E+00  0.00000000000E+00  0.17877781681E+03  0.17877781681E+03  0.00000000000E+00 0.  1.
          1   -1    0    0  501    0  0.00000000000E+00 -0.00000000000E+00 -0.17006797093E+04  0.17006797093E+04  0.00000000000E+00 0. -1.
        -24    2    1    2    0    0 -0.11414910203E+03  0.33793285195E+03 -0.77700731990E+03  0.85870667244E+03  0.80050884990E+02 0.  0.
    5000000    2    1    2    0    0  0.11414910203E+03 -0.33793285195E+03 -0.74489457258E+03  0.10207508537E+04  0.59986311027E+03 0.  0.
        -24    2    4    4    0    0  0.31642262584E+03 -0.20273963212E+03 -0.63356346514E+03  0.74136520958E+03  0.83624595933E+02 0.  0.
         24    2    4    4    0    0 -0.20227352381E+03 -0.13519321984E+03 -0.11133110744E+03  0.27938564408E+03  0.80435921759E+02 0.  0.
         11    1    5    5    0    0  0.92700978752E+02 -0.10195737203E+03 -0.26324528705E+03  0.29713104572E+03  0.00000000000E+00 0. -1.
        -12    1    5    5    0    0  0.22372164709E+03 -0.10078226008E+03 -0.37031817809E+03  0.44423416386E+03  0.00000000000E+00 0.  1.
         11    1    3    3    0    0 -0.30393190299E+02  0.18618497314E+03 -0.34468378346E+03  0.39293192899E+03  0.00000000000E+00 0. -1.
        -12    1    3    3    0    0 -0.83755911734E+02  0.15174787882E+03 -0.43232353644E+03  0.46577474345E+03  0.00000000000E+00 0.  1.
          4    1    6    6  502    0 -0.15425582196E+03 -0.11067364005E+03 -0.12026025203E+03  0.22473549214E+03  0.00000000000E+00 0. -1.
         -3    1    6    6    0  502 -0.48017701846E+02 -0.24519579782E+02  0.89291445849E+01  0.54650151933E+02  0.00000000000E+00 0.  1.
<mgrwt>
<rscale>  0 0.49445897E+03</rscale>
<asrwt>0</asrwt>
<pdfrwt beam="1">  1        1 0.26164303E+00 0.49445897E+03</pdfrwt>
<pdfrwt beam="2">  1       -2 0.27504279E-01 0.49445897E+03</pdfrwt>
<totfact> 0.53503994E+01</totfact>
</mgrwt>
</event>
<event>
12    3  0.2269558E-007  0.8196605E+03  0.7818608E-02  0.9531987E-01
         -2   -1    0    0    0  501 -0.00000000000E+00  0.00000000000E+00  0.30507411581E+03  0.30507411581E+03  0.00000000000E+00 0.  1.
          1   -1    0    0  501    0  0.00000000000E+00 -0.00000000000E+00 -0.22865624906E+04  0.22865624906E+04  0.00000000000E+00 0. -1.
        -24    2    1    2    0    0  0.59237382743E+03  0.41410566907E+03 -0.95337730998E+03  0.11990626945E+04  0.80204698126E+02 0.  0.
    5000000    2    1    2    0    0 -0.59237382743E+03 -0.41410566907E+03 -0.10281110648E+04  0.13925739119E+04  0.59988289021E+03 0.  0.
        -24    2    4    4    0    0 -0.52850743114E+03 -0.37563382100E+02 -0.47695425093E+03  0.71731487900E+03  0.79524623324E+02 0.  0.
         24    2    4    4    0    0 -0.63866396293E+02 -0.37654228697E+03 -0.55115681389E+03  0.67525903292E+03  0.79611039333E+02 0.  0.
         11    1    3    3    0    0  0.11643438616E+03  0.44884800315E+02 -0.16905704101E+03  0.21012352247E+03  0.00000000000E+00 0. -1.
        -12    1    3    3    0    0  0.47593944128E+03  0.36922086875E+03 -0.78432026897E+03  0.98893917204E+03  0.00000000000E+00 0.  1.
         11    1    5    5    0    0 -0.37790357327E+03 -0.17815548582E+02 -0.38492052870E+03  0.53971503395E+03  0.00000000000E+00 0. -1.
        -12    1    5    5    0    0 -0.15060385787E+03 -0.19747833518E+02 -0.92033722232E+02  0.17759984505E+03  0.00000000000E+00 0.  1.
          4    1    6    6  502    0 -0.24573771980E+02 -0.13033327631E+03 -0.26048282602E+03  0.29230452585E+03  0.00000000000E+00 0. -1.
         -3    1    6    6    0  502 -0.39292624314E+02 -0.24620901065E+03 -0.29067398788E+03  0.38295450706E+03  0.00000000000E+00 0.  1.
<mgrwt>
<rscale>  0 0.81966048E+03</rscale>
<asrwt>0</asrwt>
<pdfrwt beam="1">  1        1 0.35177884E+00 0.81966048E+03</pdfrwt>
<pdfrwt beam="2">  1       -2 0.46934480E-01 0.81966048E+03</pdfrwt>
<totfact> 0.74500985E+00</totfact>
</mgrwt>
</event>
<event>
12    3  0.2269558E-007  0.6853660E+03  0.7818608E-02  0.9742591E-01
         -2   -1    0    0    0  501 -0.00000000000E+00  0.00000000000E+00  0.64776730041E+03  0.64776730041E+03  0.00000000000E+00 0.  1.
          1   -1    0    0  501    0  0.00000000000E+00 -0.00000000000E+00 -0.10934551406E+04  0.10934551406E+04  0.00000000000E+00 0. -1.
        -24    2    1    2    0    0 -0.47088094507E+03  0.33347481722E+03  0.27212155303E+03  0.64204214743E+03  0.72344048187E+02 0.  0.
    5000000    2    1    2    0    0  0.47088094507E+03 -0.33347481722E+03 -0.71780939320E+03  0.10991802936E+04  0.60001056211E+03 0.  0.
        -24    2    4    4    0    0 -0.10912564757E+03 -0.40082603179E+02 -0.26744482794E+03  0.30221410226E+03  0.79319641826E+02 0.  0.
         24    2    4    4    0    0  0.58000659264E+03 -0.29339221404E+03 -0.45036456526E+03  0.79696619130E+03  0.99197931794E+02 0.  0.
         11    1    3    3    0    0 -0.41036668173E+02  0.72131392310E+01  0.24098347033E+02  0.48132814608E+02  0.00000000000E+00 0. -1.
        -12    1    3    3    0    0 -0.42984427690E+03  0.32626167799E+03  0.24802320600E+03  0.59390933283E+03  0.00000000000E+00 0.  1.
         11    1    5    5    0    0  0.34260479208E+01 -0.21090231697E+02 -0.18165999895E+02  0.28045306730E+02  0.00000000000E+00 0. -1.
        -12    1    5    5    0    0 -0.11255169549E+03 -0.18992371482E+02 -0.24927882805E+03  0.27416879553E+03  0.00000000000E+00 0.  1.
          2    1    6    6  502    0  0.29464919388E+03 -0.18903349222E+03 -0.28246930637E+03  0.44982298483E+03  0.00000000000E+00 0. -1.
         -1    1    6    6    0  502  0.28535739875E+03 -0.10435872182E+03 -0.16789525889E+03  0.34714320647E+03  0.00000000000E+00 0.  1.
<mgrwt>
<rscale>  0 0.68536604E+03</rscale>
<asrwt>0</asrwt>
<pdfrwt beam="1">  1        1 0.16822387E+00 0.68536604E+03</pdfrwt>
<pdfrwt beam="2">  1       -2 0.99656509E-01 0.68536604E+03</pdfrwt>
<totfact> 0.96833926E+00</totfact>
</mgrwt>
</event>
<event>
12    3  0.2269558E-007  0.6194118E+03  0.7818608E-02  0.9865932E-01
         -2   -1    0    0    0  501 -0.00000000000E+00  0.00000000000E+00  0.97871142710E+03  0.97871142710E+03  0.00000000000E+00 0.  1.
          1   -1    0    0  501    0  0.00000000000E+00 -0.00000000000E+00 -0.47376473838E+03  0.47376473838E+03  0.00000000000E+00 0. -1.
        -24    2    1    2    0    0 -0.47873862364E+03  0.49061067373E+02  0.47732611827E+03  0.68259167771E+03  0.80582362817E+02 0.  0.
    5000000    2    1    2    0    0  0.47873862364E+03 -0.49061067373E+02  0.27620570455E+02  0.76988448777E+03  0.60030123314E+03 0.  0.
        -24    2    4    4    0    0 -0.50678038931E+01  0.19808614729E+03 -0.44759622826E+02  0.21602866761E+03  0.73492564307E+02 0.  0.
         24    2    4    4    0    0  0.48380642753E+03 -0.24714721466E+03  0.72380193281E+02  0.55385582017E+03  0.79793308765E+02 0.  0.
         11    1    5    5    0    0 -0.77164367229E+01  0.20089606800E+03 -0.33105763903E+02  0.20375172425E+03  0.00000000000E+00 0. -1.
        -12    1    5    5    0    0  0.26486328298E+01 -0.28099207107E+01 -0.11653858923E+02  0.12276943352E+02  0.00000000000E+00 0.  1.
         13    1    3    3    0    0 -0.28607385581E+03 -0.43430894680E+01  0.25095672199E+03  0.38057376383E+03  0.00000000000E+00 0. -1.
        -14    1    3    3    0    0 -0.19266476783E+03  0.53404156841E+02  0.22636939628E+03  0.30201791388E+03  0.00000000000E+00 0.  1.
          4    1    6    6  502    0  0.40845256615E+03 -0.17779502306E+03  0.73180560289E+02  0.45144209310E+03  0.00000000000E+00 0. -1.
         -3    1    6    6    0  502  0.75353861381E+02 -0.69352191605E+02 -0.80036700743E+00  0.10241372707E+03  0.00000000000E+00 0.  1.
<mgrwt>
<rscale>  0 0.61941177E+03</rscale>
<asrwt>0</asrwt>
<pdfrwt beam="1">  1        1 0.72886883E-01 0.61941177E+03</pdfrwt>
<pdfrwt beam="2">  1       -2 0.15057099E+00 0.61941177E+03</pdfrwt>
<totfact> 0.12799393E+01</totfact>
</mgrwt>
</event>
<event>
12    3  0.2269558E-007  0.1797477E+04  0.7818608E-02  0.8707643E-01
          1   -1    0    0  501    0  0.00000000000E+00  0.00000000000E+00  0.17538086422E+04  0.17538086422E+04  0.00000000000E+00 0. -1.
         -2   -1    0    0    0  501 -0.00000000000E+00 -0.00000000000E+00 -0.19068909131E+04  0.19068909131E+04  0.00000000000E+00 0.  1.
        -24    2    1    2    0    0 -0.17489574529E+04  0.10240837794E+03 -0.38190935110E+03  0.17948869893E+04  0.80155497927E+02 0.  0.
    5000000    2    1    2    0    0  0.17489574529E+04 -0.10240837794E+03  0.22882708018E+03  0.18658125660E+04  0.59962909448E+03 0.  0.
        -24    2    4    4    0    0  0.12704153409E+04 -0.32781352996E+03  0.11773254108E+03  0.13197208777E+04  0.79908666729E+02 0.  0.
         24    2    4    4    0    0  0.47854211202E+03  0.22540515201E+03  0.11109453910E+03  0.54609168832E+03  0.77872330814E+02 0.  0.
         11    1    3    3    0    0 -0.14314540615E+04  0.56124129133E+02 -0.29766330756E+03  0.14631521085E+04  0.00000000000E+00 0. -1.
        -12    1    3    3    0    0 -0.31750339143E+03  0.46284248808E+02 -0.84246043541E+02  0.33173488075E+03  0.00000000000E+00 0.  1.
         13    1    5    5    0    0  0.93806288890E+03 -0.24634637852E+03  0.12192191179E+03  0.97750369529E+03  0.00000000000E+00 0. -1.
        -14    1    5    5    0    0  0.33235245196E+03 -0.81467151439E+02 -0.41893707073E+01  0.34221718238E+03  0.00000000000E+00 0.  1.
          4    1    6    6  502    0  0.34891501645E+03  0.15284137037E+03  0.11364662278E+03  0.39751443756E+03  0.00000000000E+00 0. -1.
         -3    1    6    6    0  502  0.12962709558E+03  0.72563781645E+02 -0.25520836812E+01  0.14857725077E+03  0.00000000000E+00 0.  1.
<mgrwt>
<rscale>  0 0.17974766E+04</rscale>
<asrwt>0</asrwt>
<pdfrwt beam="1">  1        1 0.26981671E+00 0.17974766E+04</pdfrwt>
<pdfrwt beam="2">  1       -2 0.29336783E+00 0.17974766E+04</pdfrwt>
<totfact> 0.12215027E-01</totfact>
</mgrwt>
</event>
<event>
12    3  0.2269558E-007  0.4120542E+03  0.7818608E-02  0.1039684E+00
          1   -1    0    0  501    0  0.00000000000E+00  0.00000000000E+00  0.21620360679E+04  0.21620360679E+04  0.00000000000E+00 0. -1.
         -2   -1    0    0    0  501 -0.00000000000E+00 -0.00000000000E+00 -0.84678455387E+02  0.84678455387E+02  0.00000000000E+00 0.  1.
        -24    2    1    2    0    0  0.66588710359E+02 -0.19376048390E+03  0.48907998544E+03  0.53648612851E+03  0.81492039212E+02 0.  0.
    5000000    2    1    2    0    0 -0.66588710359E+02  0.19376048390E+03  0.15882776271E+04  0.17102283948E+04  0.60023175539E+03 0.  0.
        -24    2    4    4    0    0  0.20040544500E+03 -0.85155477238E+02  0.73100523482E+03  0.76684068314E+03  0.79133951624E+02 0.  0.
         24    2    4    4    0    0 -0.26699415536E+03  0.27891596114E+03  0.85727239224E+03  0.94338771162E+03  0.77359082045E+02 0.  0.
         11    1    3    3    0    0  0.23775484634E+02 -0.89300343354E+02  0.12597118631E+03  0.15623240628E+03  0.00000000000E+00 0. -1.
        -12    1    3    3    0    0  0.42813225724E+02 -0.10446014054E+03  0.36310879913E+03  0.38025372223E+03  0.00000000000E+00 0.  1.
         13    1    5    5    0    0  0.99955764588E+02 -0.73164424858E+02  0.49104086832E+03  0.50642405383E+03  0.00000000000E+00 0. -1.
        -14    1    5    5    0    0  0.10044968041E+03 -0.11991052381E+02  0.23996436651E+03  0.26041662932E+03  0.00000000000E+00 0.  1.
          2    1    6    6  502    0 -0.14007024660E+03  0.20048213559E+03  0.53611189203E+03  0.58926116574E+03  0.00000000000E+00 0. -1.
         -1    1    6    6    0  502 -0.12692390876E+03  0.78433825545E+02  0.32116050021E+03  0.35412654588E+03  0.00000000000E+00 0.  1.
<mgrwt>
<rscale>  0 0.41205424E+03</rscale>
<asrwt>0</asrwt>
<pdfrwt beam="1">  1        1 0.33262089E+00 0.41205424E+03</pdfrwt>
<pdfrwt beam="2">  1       -2 0.13027456E-01 0.41205424E+03</pdfrwt>
<totfact> 0.97725198E+01</totfact>
</mgrwt>
</event>
<event>
12    3  0.2269558E-007  0.1091312E+04  0.7818608E-02  0.9213701E-01
          1   -1    0    0  501    0  0.00000000000E+00  0.00000000000E+00  0.18260600487E+04  0.18260600487E+04  0.00000000000E+00 0. -1.
         -2   -1    0    0    0  501 -0.00000000000E+00 -0.00000000000E+00 -0.70025772587E+03  0.70025772587E+03  0.00000000000E+00 0.  1.
        -24    2    1    2    0    0 -0.71228419259E+03  0.76968110682E+03  0.56888174475E+03  0.11959187134E+04  0.82688284636E+02 0.  0.
    5000000    2    1    2    0    0  0.71228419259E+03 -0.76968110682E+03  0.55692057810E+03  0.13303990612E+04  0.60003612757E+03 0.  0.
        -24    2    4    4    0    0  0.46347550241E+03 -0.73699201997E+03  0.60374198123E+03  0.10622073629E+04  0.76245150957E+02 0.  0.
         24    2    4    4    0    0  0.24880869018E+03 -0.32689086853E+02 -0.46821403129E+02  0.26819169826E+03  0.82220450727E+02 0.  0.
         11    1    3    3    0    0 -0.49791554982E+03  0.51686535418E+03  0.42913900334E+03  0.83619972093E+03  0.00000000000E+00 0. -1.
        -12    1    3    3    0    0 -0.21436864277E+03  0.25281575264E+03  0.13974274142E+03  0.35971899250E+03  0.00000000000E+00 0.  1.
         11    1    5    5    0    0  0.23718805601E+03 -0.30602885856E+03  0.26681747230E+03  0.47021633288E+03  0.00000000000E+00 0. -1.
        -12    1    5    5    0    0  0.22628744639E+03 -0.43096316141E+03  0.33692450894E+03  0.59199103001E+03  0.00000000000E+00 0.  1.
          2    1    6    6  502    0  0.98540964325E+02  0.19511062603E+02  0.58448021643E+01  0.10062387851E+03  0.00000000000E+00 0. -1.
         -1    1    6    6    0  502  0.15026772586E+03 -0.52200149456E+02 -0.52666205293E+02  0.16756781975E+03  0.00000000000E+00 0.  1.
<mgrwt>
<rscale>  0 0.10913121E+04</rscale>
<asrwt>0</asrwt>
<pdfrwt beam="1">  1        1 0.28093231E+00 0.10913121E+04</pdfrwt>
<pdfrwt beam="2">  1       -2 0.10773196E+00 0.10913121E+04</pdfrwt>
<totfact> 0.23537505E+00</totfact>
</mgrwt>
</event>
<event>
12    3  0.2269558E-007  0.6619492E+03  0.7818608E-02  0.9784612E-01
          1   -1    0    0  501    0  0.00000000000E+00  0.00000000000E+00  0.97356827107E+03  0.97356827107E+03  0.00000000000E+00 0. -1.
         -2   -1    0    0    0  501 -0.00000000000E+00 -0.00000000000E+00 -0.88423263227E+03  0.88423263227E+03  0.00000000000E+00 0.  1.
        -24    2    1    2    0    0 -0.42606621692E+03 -0.31740907931E+03 -0.59669883249E+03  0.80287681017E+03  0.79251061639E+02 0.  0.
    5000000    2    1    2    0    0  0.42606621692E+03  0.31740907931E+03  0.68603447129E+03  0.10549240932E+04  0.59995049940E+03 0.  0.
        -24    2    4    4    0    0  0.32772868654E+03  0.48439579210E+03  0.54573006419E+03  0.80340895690E+03  0.74828294680E+02 0.  0.
         24    2    4    4    0    0  0.98337530384E+02 -0.16698671279E+03  0.14030440710E+03  0.25151513627E+03  0.77586757847E+02 0.  0.
         11    1    3    3    0    0 -0.16549741288E+03 -0.12253577156E+03 -0.17499447444E+03  0.27023596183E+03  0.00000000000E+00 0. -1.
        -12    1    3    3    0    0 -0.26056880405E+03 -0.19487330775E+03 -0.42170435806E+03  0.53264084834E+03  0.00000000000E+00 0.  1.
         11    1    5    5    0    0  0.27484835841E+03  0.41830226606E+03  0.49879741110E+03  0.70662384848E+03  0.00000000000E+00 0. -1.
        -12    1    5    5    0    0  0.52880328127E+02  0.66093526037E+02  0.46932653088E+02  0.96785108425E+02  0.00000000000E+00 0.  1.
          2    1    6    6  502    0  0.10108881447E+03 -0.10633015720E+03  0.86043035482E+02  0.17008366969E+03  0.00000000000E+00 0. -1.
         -1    1    6    6    0  502 -0.27512840830E+01 -0.60656555588E+02  0.54261371620E+02  0.81431466584E+02  0.00000000000E+00 0.  1.
<mgrwt>
<rscale>  0 0.66194916E+03</rscale>
<asrwt>0</asrwt>
<pdfrwt beam="1">  1        1 0.14977973E+00 0.66194916E+03</pdfrwt>
<pdfrwt beam="2">  1       -2 0.13603579E+00 0.66194916E+03</pdfrwt>
<totfact> 0.55848432E+00</totfact>
</mgrwt>
</event>
<event>
12    3  0.2269558E-007  0.1057557E+04  0.7818608E-02  0.9247577E-01
          1   -1    0    0  501    0  0.00000000000E+00  0.00000000000E+00  0.79706720364E+03  0.79706720364E+03  0.00000000000E+00 0. -1.
         -2   -1    0    0    0  501 -0.00000000000E+00 -0.00000000000E+00 -0.15671396958E+04  0.15671396958E+04  0.00000000000E+00 0.  1.
        -24    2    1    2    0    0  0.34683560270E+03 -0.95149214357E+03 -0.58604140312E+03  0.11727989969E+04  0.79879449032E+02 0.  0.
    5000000    2    1    2    0    0 -0.34683560270E+03  0.95149214357E+03 -0.18403108903E+03  0.11914079025E+04  0.59996092698E+03 0.  0.
        -24    2    4    4    0    0 -0.11865779887E+03  0.13867976008E+02 -0.16984210832E+03  0.22299726247E+03  0.81298482879E+02 0.  0.
         24    2    4    4    0    0 -0.22817780383E+03  0.93762416756E+03 -0.14188980713E+02  0.96841064006E+03  0.80085272419E+02 0.  0.
         11    1    5    5    0    0 -0.94313129875E+02  0.35693573306E+02 -0.15950108111E+03  0.18870504105E+03  0.00000000000E+00 0. -1.
        -12    1    5    5    0    0 -0.24344668995E+02 -0.21825597298E+02 -0.10341027204E+02  0.34292221414E+02  0.00000000000E+00 0.  1.
         13    1    3    3    0    0  0.13543674569E+03 -0.43224354354E+03 -0.22296720085E+03  0.50486826566E+03  0.00000000000E+00 0. -1.
        -14    1    3    3    0    0  0.21139885701E+03 -0.51924860003E+03 -0.36307420227E+03  0.66793073124E+03  0.00000000000E+00 0.  1.
          4    1    6    6  502    0 -0.38718708619E+02  0.70839294775E+02 -0.81573536408E+01  0.81141151703E+02  0.00000000000E+00 0. -1.
         -3    1    6    6    0  502 -0.18945909521E+03  0.86678487279E+03 -0.60316270722E+01  0.88726948836E+03  0.00000000000E+00 0.  1.
<mgrwt>
<rscale>  0 0.10575570E+04</rscale>
<asrwt>0</asrwt>
<pdfrwt beam="1">  1        1 0.12262573E+00 0.10575570E+04</pdfrwt>
<pdfrwt beam="2">  1       -2 0.24109841E+00 0.10575570E+04</pdfrwt>
<totfact> 0.14124161E+00</totfact>
</mgrwt>
</event>
<event>
12    3  0.2269558E-007  0.8304239E+03  0.7818608E-02  0.9516995E-01
          1   -1    0    0  501    0  0.00000000000E+00  0.00000000000E+00  0.27627635652E+04  0.27627635652E+04  0.00000000000E+00 0. -1.
         -2   -1    0    0    0  501 -0.00000000000E+00 -0.00000000000E+00 -0.26891744574E+03  0.26891744574E+03  0.00000000000E+00 0.  1.
        -24    2    1    2    0    0 -0.73298556852E+03 -0.12163551514E+03  0.86009090352E+03  0.11393187440E+04  0.78916385524E+02 0.  0.
    5000000    2    1    2    0    0  0.73298556852E+03  0.12163551514E+03  0.16337552159E+04  0.18923622669E+04  0.59984648162E+03 0.  0.
        -24    2    4    4    0    0 -0.69822833606E+01 -0.13153449919E+03  0.40999182775E+03  0.43786540904E+03  0.79263742377E+02 0.  0.
         24    2    4    4    0    0  0.73996785188E+03  0.25317001432E+03  0.12237633882E+04  0.14544968579E+04  0.79478307633E+02 0.  0.
         13    1    5    5    0    0 -0.15176446355E+02 -0.39304923093E+02  0.46427092939E+02  0.62695107163E+02  0.00000000000E+00 0. -1.
        -14    1    5    5    0    0  0.81941629945E+01 -0.92229576092E+02  0.36356473481E+03  0.37517030187E+03  0.00000000000E+00 0.  1.
         13    1    3    3    0    0 -0.24249511568E+03 -0.42470058041E+02  0.34316678299E+03  0.42233994354E+03  0.00000000000E+00 0. -1.
        -14    1    3    3    0    0 -0.49049045284E+03 -0.79165457095E+02  0.51692412053E+03  0.71697880046E+03  0.00000000000E+00 0.  1.
          2    1    6    6  502    0  0.97738591984E+02  0.19398308886E+02  0.11662994453E+03  0.15340036086E+03  0.00000000000E+00 0. -1.
         -1    1    6    6    0  502  0.64222925990E+03  0.23377170544E+03  0.11071334437E+04  0.13010964970E+04  0.00000000000E+00 0.  1.
<mgrwt>
<rscale>  0 0.83042394E+03</rscale>
<asrwt>0</asrwt>
<pdfrwt beam="1">  1        1 0.42504053E+00 0.83042394E+03</pdfrwt>
<pdfrwt beam="2">  1       -2 0.41371917E-01 0.83042394E+03</pdfrwt>
<totfact> 0.45046978E+00</totfact>
</mgrwt>
</event>
<event>
12    3  0.2269558E-007  0.6536167E+03  0.7818608E-02  0.9800016E-01
         -2   -1    0    0    0  501 -0.00000000000E+00  0.00000000000E+00  0.77505247587E+03  0.77505247587E+03  0.00000000000E+00 0.  1.
          1   -1    0    0  501    0  0.00000000000E+00 -0.00000000000E+00 -0.13787623295E+04  0.13787623295E+04  0.00000000000E+00 0. -1.
        -24    2    1    2    0    0  0.48686570348E+03  0.17839273433E+03 -0.10997435743E+04  0.12184790476E+04  0.79956734305E+02 0.  0.
    5000000    2    1    2    0    0 -0.48686570348E+03 -0.17839273433E+03  0.49603372069E+03  0.93533575775E+03  0.59995112032E+03 0.  0.
        -24    2    4    4    0    0 -0.18304194499E+03  0.21083008748E+03  0.16040303177E+03  0.33179627632E+03  0.80037222390E+02 0.  0.
         24    2    4    4    0    0 -0.30382375849E+03 -0.38922282181E+03  0.33563068891E+03  0.60353948143E+03  0.88366651262E+02 0.  0.
         13    1    5    5    0    0 -0.53477362554E+02  0.11848435512E+03  0.56318072947E+02  0.14166896645E+03  0.00000000000E+00 0. -1.
        -14    1    5    5    0    0 -0.12956458243E+03  0.92345732359E+02  0.10408495883E+03  0.19012730987E+03  0.00000000000E+00 0.  1.
         13    1    3    3    0    0  0.69734551997E+02  0.56593706299E+02 -0.17352665335E+03  0.19539000680E+03  0.00000000000E+00 0. -1.
        -14    1    3    3    0    0  0.41713115148E+03  0.12179902803E+03 -0.92621692096E+03  0.10230890408E+04  0.00000000000E+00 0.  1.
          2    1    6    6  502    0 -0.21373993124E+03 -0.27614160992E+03  0.18669610244E+03  0.39597270310E+03  0.00000000000E+00 0. -1.
         -1    1    6    6    0  502 -0.90083827257E+02 -0.11308121189E+03  0.14893458648E+03  0.20756677833E+03  0.00000000000E+00 0.  1.
<mgrwt>
<rscale>  0 0.65361666E+03</rscale>
<asrwt>0</asrwt>
<pdfrwt beam="1">  1        1 0.21211728E+00 0.65361666E+03</pdfrwt>
<pdfrwt beam="2">  1       -2 0.11923884E+00 0.65361666E+03</pdfrwt>
<totfact> 0.39413442E+00</totfact>
</mgrwt>
</event>
<event>
12    3  0.2269558E-007  0.7687563E+03  0.7818608E-02  0.9606376E-01
          1   -1    0    0  501    0  0.00000000000E+00  0.00000000000E+00  0.13661737562E+04  0.13661737562E+04  0.00000000000E+00 0. -1.
         -2   -1    0    0    0  501 -0.00000000000E+00 -0.00000000000E+00 -0.78705941157E+03  0.78705941157E+03  0.00000000000E+00 0.  1.
        -24    2    1    2    0    0  0.61964070953E+03 -0.27924360183E+03  0.95252437685E+03  0.11728530925E+04  0.79687451623E+02 0.  0.
    5000000    2    1    2    0    0 -0.61964070953E+03  0.27924360183E+03 -0.37341003222E+03  0.98038007531E+03  0.59981533978E+03 0.  0.
        -24    2    4    4    0    0 -0.41376324102E+03 -0.88024610572E+02 -0.34419481812E+03  0.55092283419E+03  0.78086776865E+02 0.  0.
         24    2    4    4    0    0 -0.20587746851E+03  0.36726821240E+03 -0.29215214101E+02  0.42945724113E+03  0.79426200594E+02 0.  0.
         11    1    3    3    0    0  0.16995533415E+03 -0.39688986073E+02  0.22884456502E+03  0.28780178276E+03  0.00000000000E+00 0. -1.
        -12    1    3    3    0    0  0.44968537538E+03 -0.23955461576E+03  0.72367981184E+03  0.88505130971E+03  0.00000000000E+00 0.  1.
         13    1    5    5    0    0 -0.20970096138E+03 -0.80637771572E+02 -0.15886481872E+03  0.27516354052E+03  0.00000000000E+00 0. -1.
        -14    1    5    5    0    0 -0.20406227964E+03 -0.73868390003E+01 -0.18532999940E+03  0.27575929366E+03  0.00000000000E+00 0.  1.
          4    1    6    6  502    0 -0.18292313463E+03  0.28067707382E+03  0.66373771493E+00  0.33502378049E+03  0.00000000000E+00 0. -1.
         -3    1    6    6    0  502 -0.22954333879E+02  0.86591138586E+02 -0.29878951816E+02  0.94433460633E+02  0.00000000000E+00 0.  1.
<mgrwt>
<rscale>  0 0.76875632E+03</rscale>
<asrwt>0</asrwt>
<pdfrwt beam="1">  1        1 0.21018058E+00 0.76875632E+03</pdfrwt>
<pdfrwt beam="2">  1       -2 0.12108606E+00 0.76875632E+03</pdfrwt>
<totfact> 0.38009695E+00</totfact>
</mgrwt>
</event>
<event>
12    3  0.2269558E-007  0.6702123E+03  0.7818608E-02  0.9769574E-01
         -2   -1    0    0    0  501 -0.00000000000E+00  0.00000000000E+00  0.83690123269E+03  0.83690123269E+03  0.00000000000E+00 0.  1.
          1   -1    0    0  501    0  0.00000000000E+00 -0.00000000000E+00 -0.75695084920E+03  0.75695084920E+03  0.00000000000E+00 0. -1.
        -24    2    1    2    0    0 -0.53034252427E+03 -0.34473263729E+03 -0.21593671197E+03  0.67319081511E+03  0.80333216702E+02 0.  0.
    5000000    2    1    2    0    0  0.53034252427E+03  0.34473263729E+03  0.29588709547E+03  0.92066126678E+03  0.59997017479E+03 0.  0.
        -24    2    4    4    0    0  0.54404387812E+03  0.24597276252E+03  0.42630248967E+03  0.73845343962E+03  0.84221900671E+02 0.  0.
         24    2    4    4    0    0 -0.13701353853E+02  0.98759874770E+02 -0.13041539421E+03  0.18220782717E+03  0.79058695115E+02 0.  0.
         11    1    3    3    0    0 -0.39804537825E+03 -0.21612939951E+03 -0.16063044970E+03  0.48057692605E+03  0.00000000000E+00 0. -1.
        -12    1    3    3    0    0 -0.13229714602E+03 -0.12860323778E+03 -0.55306262263E+02  0.19261388906E+03  0.00000000000E+00 0.  1.
         13    1    5    5    0    0  0.24876705271E+03  0.15827465094E+03  0.21527639510E+03  0.36507511272E+03  0.00000000000E+00 0. -1.
        -14    1    5    5    0    0  0.29527682541E+03  0.87698111582E+02  0.21102609458E+03  0.37337832689E+03  0.00000000000E+00 0.  1.
          2    1    6    6  502    0 -0.88764966868E+01  0.32966862762E+02  0.20730073600E+01  0.34203853487E+02  0.00000000000E+00 0. -1.
         -1    1    6    6    0  502 -0.48248571659E+01  0.65793012007E+02 -0.13248840157E+03  0.14800397368E+03  0.00000000000E+00 0.  1.
<mgrwt>
<rscale>  0 0.67021231E+03</rscale>
<asrwt>0</asrwt>
<pdfrwt beam="1">  1        1 0.11645398E+00 0.67021231E+03</pdfrwt>
<pdfrwt beam="2">  1       -2 0.12875404E+00 0.67021231E+03</pdfrwt>
<totfact> 0.97042138E+00</totfact>
</mgrwt>
</event>
<event>
12    3  0.2269558E-007  0.6759681E+03  0.7818608E-02  0.9759236E-01
          1   -1    0    0  501    0  0.00000000000E+00  0.00000000000E+00  0.38857674930E+03  0.38857674930E+03  0.00000000000E+00 0. -1.
         -2   -1    0    0    0  501 -0.00000000000E+00 -0.00000000000E+00 -0.14986924867E+04  0.14986924867E+04  0.00000000000E+00 0.  1.
        -24    2    1    2    0    0  0.63239373544E+03  0.40380742805E+02 -0.34065677547E+03  0.72380848878E+03  0.79367806703E+02 0.  0.
    5000000    2    1    2    0    0 -0.63239373544E+03 -0.40380742805E+02 -0.76945896195E+03  0.11634607472E+04  0.60001781242E+03 0.  0.
        -24    2    4    4    0    0 -0.36531078686E+02  0.61520480141E+02 -0.47428276313E+03  0.48614736849E+03  0.79220169817E+02 0.  0.
         24    2    4    4    0    0 -0.59586265676E+03 -0.10190122295E+03 -0.29517619882E+03  0.67731337874E+03  0.78665492549E+02 0.  0.
         13    1    5    5    0    0 -0.58804456949E+02  0.29263414374E+02 -0.25112596160E+03  0.25957380485E+03  0.00000000000E+00 0. -1.
        -14    1    5    5    0    0  0.22273378263E+02  0.32257065766E+02 -0.22315680153E+03  0.22657356364E+03  0.00000000000E+00 0.  1.
         13    1    3    3    0    0  0.26749466143E+03 -0.19227314375E+02 -0.12640441619E+03  0.29648129780E+03  0.00000000000E+00 0. -1.
        -14    1    3    3    0    0  0.36489907402E+03  0.59608057180E+02 -0.21425235928E+03  0.42732719099E+03  0.00000000000E+00 0.  1.
          4    1    6    6  502    0 -0.47502980528E+03 -0.50100713259E+02 -0.24236698067E+03  0.53563527767E+03  0.00000000000E+00 0. -1.
         -3    1    6    6    0  502 -0.12083285148E+03 -0.51800509687E+02 -0.52809218156E+02  0.14167810107E+03  0.00000000000E+00 0.  1.
<mgrwt>
<rscale>  0 0.67596815E+03</rscale>
<asrwt>0</asrwt>
<pdfrwt beam="1">  1        1 0.59781039E-01 0.67596815E+03</pdfrwt>
<pdfrwt beam="2">  1       -2 0.23056807E+00 0.67596815E+03</pdfrwt>
<totfact> 0.48048227E+00</totfact>
</mgrwt>
</event>
<event>
12    3  0.2269558E-007  0.7188025E+03  0.7818608E-02  0.9685607E-01
          1   -1    0    0  501    0  0.00000000000E+00  0.00000000000E+00  0.37297591942E+04  0.37297591942E+04  0.00000000000E+00 0. -1.
         -2   -1    0    0    0  501 -0.00000000000E+00 -0.00000000000E+00 -0.29822016892E+03  0.29822016892E+03  0.00000000000E+00 0.  1.
        -24    2    1    2    0    0 -0.38136061303E+03 -0.48816935786E+03  0.15995548041E+03  0.64464841840E+03  0.78997395545E+02 0.  0.
    5000000    2    1    2    0    0  0.38136061303E+03  0.48816935786E+03  0.32715835449E+04  0.33833309448E+04  0.59993678948E+03 0.  0.
        -24    2    4    4    0    0 -0.10822057767E+03 -0.19182844564E+02  0.32074326811E+03  0.34838873437E+03  0.80117359169E+02 0.  0.
         24    2    4    4    0    0  0.48958119070E+03  0.50735220243E+03  0.29508402768E+04  0.30349422104E+04  0.79497683517E+02 0.  0.
         11    1    3    3    0    0 -0.35199847036E+03 -0.43411201000E+03  0.16551186622E+03  0.58288106696E+03  0.00000000000E+00 0. -1.
        -12    1    3    3    0    0 -0.29362142668E+02 -0.54057347868E+02 -0.55563858103E+01  0.61767351440E+02  0.00000000000E+00 0.  1.
         11    1    5    5    0    0 -0.90223815452E+02 -0.24079050617E+02  0.31547872378E+03  0.32900906174E+03  0.00000000000E+00 0. -1.
        -12    1    5    5    0    0 -0.17996762220E+02  0.48962060536E+01  0.52645443361E+01  0.19379672628E+02  0.00000000000E+00 0.  1.
          2    1    6    6  502    0  0.22164467995E+03  0.23890349610E+03  0.15323837323E+04  0.15666528485E+04  0.00000000000E+00 0. -1.
         -1    1    6    6    0  502  0.26793651075E+03  0.26844870633E+03  0.14184565445E+04  0.14682893619E+04  0.00000000000E+00 0.  1.
<mgrwt>
<rscale>  0 0.71880248E+03</rscale>
<asrwt>0</asrwt>
<pdfrwt beam="1">  1        1 0.57380907E+00 0.71880248E+03</pdfrwt>
<pdfrwt beam="2">  1       -2 0.45880029E-01 0.71880248E+03</pdfrwt>
<totfact> 0.71203421E-01</totfact>
</mgrwt>
</event>
<event>
12    3  0.2269558E-007  0.6812184E+03  0.7818608E-02  0.9749901E-01
         -2   -1    0    0    0  501 -0.00000000000E+00  0.00000000000E+00  0.27104280177E+03  0.27104280177E+03  0.00000000000E+00 0.  1.
          1   -1    0    0  501    0  0.00000000000E+00 -0.00000000000E+00 -0.20968742179E+04  0.20968742179E+04  0.00000000000E+00 0. -1.
        -24    2    1    2    0    0 -0.56588951910E+02 -0.56202154468E+03 -0.12146808962E+04  0.13419518859E+04  0.79464824672E+02 0.  0.
    5000000    2    1    2    0    0  0.56588951910E+02  0.56202154468E+03 -0.61115051998E+03  0.10259651338E+04  0.60002414247E+03 0.  0.
        -24    2    4    4    0    0  0.16360488777E+03 -0.41454627427E+02 -0.23883620336E+03  0.30444675205E+03  0.84617063057E+02 0.  0.
         24    2    4    4    0    0 -0.10701593586E+03  0.60347617210E+03 -0.37231431662E+03  0.72151838175E+03  0.79592235920E+02 0.  0.
         11    1    3    3    0    0  0.99537550468E+01 -0.21650654203E+03 -0.41181193116E+03  0.46536354243E+03  0.00000000000E+00 0. -1.
        -12    1    3    3    0    0 -0.66542706957E+02 -0.34551500265E+03 -0.80286896503E+03  0.87658834347E+03  0.00000000000E+00 0.  1.
         13    1    5    5    0    0  0.25882044714E+02 -0.32395502483E+02 -0.20780011965E+02  0.46380574781E+02  0.00000000000E+00 0. -1.
        -14    1    5    5    0    0  0.13772284306E+03 -0.90591249432E+01 -0.21805619139E+03  0.25806617727E+03  0.00000000000E+00 0.  1.
          2    1    6    6  502    0 -0.42993209196E+02  0.13937642055E+03 -0.12311232786E+03  0.19086866666E+03  0.00000000000E+00 0. -1.
         -1    1    6    6    0  502 -0.64022726666E+02  0.46409975155E+03 -0.24920198876E+03  0.53064971509E+03  0.00000000000E+00 0.  1.
<mgrwt>
<rscale>  0 0.68121841E+03</rscale>
<asrwt>0</asrwt>
<pdfrwt beam="1">  1        1 0.32259603E+00 0.68121841E+03</pdfrwt>
<pdfrwt beam="2">  1       -2 0.41698894E-01 0.68121841E+03</pdfrwt>
<totfact> 0.12903480E+01</totfact>
</mgrwt>
</event>
<event>
12    3  0.2269558E-007  0.8747060E+03  0.7818608E-02  0.9457764E-01
         -2   -1    0    0    0  501 -0.00000000000E+00  0.00000000000E+00  0.33621847534E+03  0.33621847534E+03  0.00000000000E+00 0.  1.
          1   -1    0    0  501    0  0.00000000000E+00 -0.00000000000E+00 -0.26529936272E+04  0.26529936272E+04  0.00000000000E+00 0. -1.
        -24    2    1    2    0    0  0.67869245819E+03 -0.47187485741E+03 -0.13350018143E+04  0.15724796782E+04  0.84694512383E+02 0.  0.
    5000000    2    1    2    0    0 -0.67869245819E+03  0.47187485741E+03 -0.98177333762E+03  0.14167324244E+04  0.59996878410E+03 0.  0.
        -24    2    4    4    0    0 -0.65172538384E+03  0.50606458666E+03 -0.60140663031E+03  0.10245571959E+04  0.84735888483E+02 0.  0.
         24    2    4    4    0    0 -0.26967074358E+02 -0.34189729248E+02 -0.38036670731E+03  0.39217522850E+03  0.85008335675E+02 0.  0.
         11    1    5    5    0    0 -0.56022099738E+03  0.46646666376E+03 -0.54301079003E+03  0.90901013877E+03  0.00000000000E+00 0. -1.
        -12    1    5    5    0    0 -0.91504386459E+02  0.39597922895E+02 -0.58395840286E+02  0.11554705709E+03  0.00000000000E+00 0.  1.
         13    1    3    3    0    0  0.10847693872E+03 -0.67406053336E+02 -0.15395828827E+03  0.20003493892E+03  0.00000000000E+00 0. -1.
        -14    1    3    3    0    0  0.57021551947E+03 -0.40446880407E+03 -0.11810435260E+04  0.13724447393E+04  0.00000000000E+00 0.  1.
          4    1    6    6  502    0 -0.38250110014E+02  0.16723738446E+02 -0.13410378512E+03  0.14045134221E+03  0.00000000000E+00 0. -1.
         -3    1    6    6    0  502  0.11283035657E+02 -0.50913467694E+02 -0.24626292219E+03  0.25172388629E+03  0.00000000000E+00 0.  1.
<mgrwt>
<rscale>  0 0.87470602E+03</rscale>
<asrwt>0</asrwt>
<pdfrwt beam="1">  1        1 0.40815286E+00 0.87470602E+03</pdfrwt>
<pdfrwt beam="2">  1       -2 0.51725920E-01 0.87470602E+03</pdfrwt>
<totfact> 0.34059854E+00</totfact>
</mgrwt>
</event>
<event>
12    3  0.2269558E-007  0.9039225E+03  0.7818608E-02  0.9420691E-01
         -2   -1    0    0    0  501 -0.00000000000E+00  0.00000000000E+00  0.10399604382E+04  0.10399604382E+04  0.00000000000E+00 0.  1.
          1   -1    0    0  501    0  0.00000000000E+00 -0.00000000000E+00 -0.89359085682E+03  0.89359085682E+03  0.00000000000E+00 0. -1.
        -24    2    1    2    0    0  0.81367851394E+03 -0.15137202381E+03 -0.19751752184E+03  0.85513647698E+03  0.85199819170E+02 0.  0.
    5000000    2    1    2    0    0 -0.81367851394E+03  0.15137202381E+03  0.34388710325E+03  0.10784148181E+04  0.59977826438E+03 0.  0.
        -24    2    4    4    0    0 -0.60106365308E+02 -0.14870018219E+03  0.16405575685E+03  0.24365387016E+03  0.82026811180E+02 0.  0.
         24    2    4    4    0    0 -0.75357214863E+03  0.30007220600E+03  0.17983134640E+03  0.83476094792E+03  0.81069198908E+02 0.  0.
         13    1    5    5    0    0 -0.66874088736E+02 -0.11721529642E+03  0.88123711770E+02  0.16117492992E+03  0.00000000000E+00 0. -1.
        -14    1    5    5    0    0  0.67677234282E+01 -0.31484885775E+02  0.75932045079E+02  0.82478940237E+02  0.00000000000E+00 0.  1.
         13    1    3    3    0    0  0.35782311730E+03 -0.94429610827E+02 -0.12138795060E+03  0.38947319449E+03  0.00000000000E+00 0. -1.
        -14    1    3    3    0    0  0.45585539664E+03 -0.56942412985E+02 -0.76129571239E+02  0.46566328249E+03  0.00000000000E+00 0.  1.
          2    1    6    6  502    0 -0.25957560724E+03  0.10989446890E+03  0.23693155287E+02  0.28287392205E+03  0.00000000000E+00 0. -1.
         -1    1    6    6    0  502 -0.49399654140E+03  0.19017773711E+03  0.15613819112E+03  0.55188702588E+03  0.00000000000E+00 0.  1.
<mgrwt>
<rscale>  0 0.90392252E+03</rscale>
<asrwt>0</asrwt>
<pdfrwt beam="1">  1        1 0.13747552E+00 0.90392252E+03</pdfrwt>
<pdfrwt beam="2">  1       -2 0.15999391E+00 0.90392252E+03</pdfrwt>
<totfact> 0.40913321E+00</totfact>
</mgrwt>
</event>
<event>
12    3  0.2269558E-007  0.5670378E+03  0.7818608E-02  0.9976255E-01
         -2   -1    0    0    0  501 -0.00000000000E+00  0.00000000000E+00  0.26355669630E+03  0.26355669630E+03  0.00000000000E+00 0.  1.
          1   -1    0    0  501    0  0.00000000000E+00 -0.00000000000E+00 -0.16423539875E+04  0.16423539875E+04  0.00000000000E+00 0. -1.
        -24    2    1    2    0    0  0.32170416640E+03 -0.27866939128E+03 -0.97425883162E+03  0.10662362981E+04  0.80804529922E+02 0.  0.
    5000000    2    1    2    0    0 -0.32170416640E+03  0.27866939128E+03 -0.40453845960E+03  0.83967438573E+03  0.60020955378E+03 0.  0.
        -24    2    4    4    0    0 -0.40279294619E+03  0.38822531575E+03 -0.37636214675E+03  0.67915433205E+03  0.81492870536E+02 0.  0.
         24    2    4    4    0    0  0.81088779787E+02 -0.10955592447E+03 -0.28176312847E+02  0.16052005368E+03  0.79968070090E+02 0.  0.
         11    1    5    5    0    0 -0.23199822816E+03  0.17100615188E+03 -0.17410760148E+03  0.33671907987E+03  0.00000000000E+00 0. -1.
        -12    1    5    5    0    0 -0.17079471802E+03  0.21721916387E+03 -0.20225454527E+03  0.34243525218E+03  0.00000000000E+00 0.  1.
         13    1    3    3    0    0  0.51828452990E+02 -0.74612941835E+02 -0.27101884202E+03  0.28583997684E+03  0.00000000000E+00 0. -1.
        -14    1    3    3    0    0  0.26987571341E+03 -0.20405644944E+03 -0.70323998960E+03  0.78039632125E+03  0.00000000000E+00 0.  1.
          4    1    6    6  502    0  0.67058377406E+02 -0.10672162394E+03  0.31479832435E+01  0.12608029503E+03  0.00000000000E+00 0. -1.
         -3    1    6    6    0  502  0.14030402381E+02 -0.28343005360E+01 -0.31324296091E+02  0.34439758653E+02  0.00000000000E+00 0.  1.
<mgrwt>
<rscale>  0 0.56703784E+03</rscale>
<asrwt>0</asrwt>
<pdfrwt beam="1">  1        1 0.25266984E+00 0.56703784E+03</pdfrwt>
<pdfrwt beam="2">  1       -2 0.40547184E-01 0.56703784E+03</pdfrwt>
<totfact> 0.27888786E+01</totfact>
</mgrwt>
</event>
<event>
12    3  0.2269558E-007  0.3483118E+03  0.7818608E-02  0.1063310E+00
         -2   -1    0    0    0  501 -0.00000000000E+00  0.00000000000E+00  0.61659758875E+03  0.61659758875E+03  0.00000000000E+00 0.  1.
          1   -1    0    0  501    0  0.00000000000E+00 -0.00000000000E+00 -0.56233664822E+03  0.56233664822E+03  0.00000000000E+00 0. -1.
        -24    2    1    2    0    0 -0.10395792234E+03  0.25194128821E+03 -0.31446607825E+03  0.42381862376E+03  0.80322158581E+02 0.  0.
    5000000    2    1    2    0    0  0.10395792234E+03 -0.25194128821E+03  0.36872701877E+03  0.75511561321E+03  0.59996525951E+03 0.  0.
        -24    2    4    4    0    0 -0.82820239179E+02 -0.28761957094E+02  0.43000226785E+03  0.44745154139E+03  0.87318321898E+02 0.  0.
         24    2    4    4    0    0  0.18677816151E+03 -0.22317933111E+03 -0.61275249078E+02  0.30766407182E+03  0.78787241910E+02 0.  0.
         11    1    3    3    0    0 -0.37673532460E+02  0.12701146170E+03 -0.96139730844E+02  0.16368889485E+03  0.00000000000E+00 0. -1.
        -12    1    3    3    0    0 -0.66284389876E+02  0.12492982651E+03 -0.21832634740E+03  0.26012972891E+03  0.00000000000E+00 0.  1.
         13    1    5    5    0    0 -0.42948159088E+02 -0.59449873880E+02  0.26300989147E+03  0.27304401639E+03  0.00000000000E+00 0. -1.
        -14    1    5    5    0    0 -0.39872080091E+02  0.30687916786E+02  0.16699237638E+03  0.17440752500E+03  0.00000000000E+00 0.  1.
          4    1    6    6  502    0  0.15249460003E+03 -0.13213639891E+03 -0.22857732784E+02  0.20306921703E+03  0.00000000000E+00 0. -1.
         -3    1    6    6    0  502  0.34283561483E+02 -0.91042932205E+02 -0.38417516294E+02  0.10459485480E+03  0.00000000000E+00 0.  1.
<mgrwt>
<rscale>  0 0.34831183E+03</rscale>
<asrwt>0</asrwt>
<pdfrwt beam="1">  1        1 0.86513331E-01 0.34831183E+03</pdfrwt>
<pdfrwt beam="2">  1       -2 0.94861167E-01 0.34831183E+03</pdfrwt>
<totfact> 0.32779032E+01</totfact>
</mgrwt>
</event>
<event>
12    3  0.2269558E-007  0.5497366E+03  0.7818608E-02  0.1001555E+00
          1   -1    0    0  501    0  0.00000000000E+00  0.00000000000E+00  0.80231934000E+03  0.80231934000E+03  0.00000000000E+00 0. -1.
         -2   -1    0    0    0  501 -0.00000000000E+00 -0.00000000000E+00 -0.65646802072E+03  0.65646802072E+03  0.00000000000E+00 0.  1.
        -24    2    1    2    0    0 -0.33765293158E+03  0.41831498964E+03  0.32506393727E+03  0.63335332886E+03  0.80454602728E+02 0.  0.
    5000000    2    1    2    0    0  0.33765293158E+03 -0.41831498964E+03 -0.17921261799E+03  0.82543403185E+03  0.60018934157E+03 0.  0.
        -24    2    4    4    0    0  0.44859676295E+02 -0.85740921096E+02  0.20042621373E+03  0.23652253842E+03  0.80052157523E+02 0.  0.
         24    2    4    4    0    0  0.29279325528E+03 -0.33257406855E+03 -0.37963883172E+03  0.58891149343E+03  0.79735206336E+02 0.  0.
         11    1    3    3    0    0 -0.49868957509E+02  0.27660760887E+02  0.48470051456E+02  0.74842344325E+02  0.00000000000E+00 0. -1.
        -12    1    3    3    0    0 -0.28778397407E+03  0.39065422876E+03  0.27659388582E+03  0.55851098454E+03  0.00000000000E+00 0.  1.
         13    1    5    5    0    0 -0.97036801599E+01 -0.73851755928E+01  0.88788664247E+02  0.89622146403E+02  0.00000000000E+00 0. -1.
        -14    1    5    5    0    0  0.54563356455E+02 -0.78355745503E+02  0.11163754949E+03  0.14690039202E+03  0.00000000000E+00 0.  1.
          2    1    6    6  502    0  0.18429272456E+03 -0.15197277161E+03 -0.18585683137E+03  0.30265870779E+03  0.00000000000E+00 0. -1.
         -1    1    6    6    0  502  0.10850053073E+03 -0.18060129693E+03 -0.19378200036E+03  0.28625278564E+03  0.00000000000E+00 0.  1.
<mgrwt>
<rscale>  0 0.54973661E+03</rscale>
<asrwt>0</asrwt>
<pdfrwt beam="1">  1        1 0.12343374E+00 0.54973661E+03</pdfrwt>
<pdfrwt beam="2">  1       -2 0.10099508E+00 0.54973661E+03</pdfrwt>
<totfact> 0.16271239E+01</totfact>
</mgrwt>
</event>
<event>
12    3  0.2269558E-007  0.7777132E+03  0.7818608E-02  0.9592849E-01
         -2   -1    0    0    0  501 -0.00000000000E+00  0.00000000000E+00  0.81360046033E+03  0.81360046033E+03  0.00000000000E+00 0.  1.
          1   -1    0    0  501    0  0.00000000000E+00 -0.00000000000E+00 -0.80006204426E+03  0.80006204426E+03  0.00000000000E+00 0. -1.
        -24    2    1    2    0    0 -0.35877902127E+03  0.59187290843E+03  0.32319649623E+02  0.69742648945E+03  0.79518693373E+02 0.  0.
    5000000    2    1    2    0    0  0.35877902127E+03 -0.59187290843E+03 -0.18781233547E+02  0.91623601514E+03  0.60008313996E+03 0.  0.
        -24    2    4    4    0    0  0.24266565470E+03 -0.66186915377E+03  0.10342856956E+03  0.71680469736E+03  0.78448126054E+02 0.  0.
         24    2    4    4    0    0  0.11611336657E+03  0.69996245340E+02 -0.12220980311E+03  0.19943131777E+03  0.80348156633E+02 0.  0.
         11    1    3    3    0    0 -0.23190652765E+03  0.42539435096E+03  0.51534593657E+02  0.48723383066E+03  0.00000000000E+00 0. -1.
        -12    1    3    3    0    0 -0.12687249362E+03  0.16647855747E+03 -0.19214944034E+02  0.21019265879E+03  0.00000000000E+00 0.  1.
         13    1    5    5    0    0  0.20565761903E+03 -0.59023973976E+03  0.11443625541E+03  0.63543187141E+03  0.00000000000E+00 0. -1.
        -14    1    5    5    0    0  0.37008035673E+02 -0.71629414013E+02 -0.11007685849E+02  0.81372825956E+02  0.00000000000E+00 0.  1.
          4    1    6    6  502    0  0.12521039945E+03  0.74601102411E+02 -0.12045995113E+03  0.18908614026E+03  0.00000000000E+00 0. -1.
         -3    1    6    6    0  502 -0.90970328780E+01 -0.46048570717E+01 -0.17498519760E+01  0.10345177513E+02  0.00000000000E+00 0.  1.
<mgrwt>
<rscale>  0 0.77771318E+03</rscale>
<asrwt>0</asrwt>
<pdfrwt beam="1">  1        1 0.12308647E+00 0.77771318E+03</pdfrwt>
<pdfrwt beam="2">  1       -2 0.12516930E+00 0.77771318E+03</pdfrwt>
<totfact> 0.94288609E+00</totfact>
</mgrwt>
</event>
<event>
12    3  0.2269558E-007  0.7809728E+03  0.7818608E-02  0.9587974E-01
         -2   -1    0    0    0  501 -0.00000000000E+00  0.00000000000E+00  0.10136480529E+04  0.10136480529E+04  0.00000000000E+00 0.  1.
          1   -1    0    0  501    0  0.00000000000E+00 -0.00000000000E+00 -0.81586175145E+03  0.81586175145E+03  0.00000000000E+00 0. -1.
        -24    2    1    2    0    0 -0.74120741898E+03  0.10670244613E+03 -0.21747062941E+03  0.78389308457E+03  0.80131413431E+02 0.  0.
    5000000    2    1    2    0    0  0.74120741898E+03 -0.10670244613E+03  0.41525693087E+03  0.10456167198E+04  0.60008512406E+03 0.  0.
        -24    2    4    4    0    0  0.10613147324E+03 -0.11498533359E+03 -0.11855626532E+03  0.21217618399E+03  0.80483715456E+02 0.  0.
         24    2    4    4    0    0  0.63507594573E+03  0.82828874620E+01  0.53381319619E+03  0.83344053580E+03  0.79224587162E+02 0.  0.
         11    1    3    3    0    0 -0.31647303788E+03  0.23036565206E+02 -0.12616481833E+03  0.34147244168E+03  0.00000000000E+00 0. -1.
        -12    1    3    3    0    0 -0.42473438109E+03  0.83665880920E+02 -0.91305811078E+02  0.44242064288E+03  0.00000000000E+00 0.  1.
         13    1    5    5    0    0  0.10861662747E+03 -0.66461280630E+02 -0.83804395895E+02  0.15243966137E+03  0.00000000000E+00 0. -1.
        -14    1    5    5    0    0 -0.24851542257E+01 -0.48524052958E+02 -0.34751869429E+02  0.59736522629E+02  0.00000000000E+00 0.  1.
          2    1    6    6  502    0  0.34099159752E+03 -0.10259962472E+02  0.23841215282E+03  0.41619813914E+03  0.00000000000E+00 0. -1.
         -1    1    6    6    0  502  0.29408434822E+03  0.18542849934E+02  0.29540104337E+03  0.41724239666E+03  0.00000000000E+00 0.  1.
<mgrwt>
<rscale>  0 0.78097276E+03</rscale>
<asrwt>0</asrwt>
<pdfrwt beam="1">  1        1 0.12551719E+00 0.78097276E+03</pdfrwt>
<pdfrwt beam="2">  1       -2 0.15594585E+00 0.78097276E+03</pdfrwt>
<totfact> 0.51691555E+00</totfact>
</mgrwt>
</event>
<event>
12    3  0.2269558E-007  0.9198556E+03  0.7818608E-02  0.9401096E-01
          1   -1    0    0  501    0  0.00000000000E+00  0.00000000000E+00  0.11982165916E+04  0.11982165916E+04  0.00000000000E+00 0. -1.
         -2   -1    0    0    0  501 -0.00000000000E+00 -0.00000000000E+00 -0.11637119300E+04  0.11637119300E+04  0.00000000000E+00 0.  1.
        -24    2    1    2    0    0 -0.45246269089E+03  0.69173595482E+03 -0.71430796839E+03  0.10954377000E+04  0.80788384816E+02 0.  0.
    5000000    2    1    2    0    0  0.45246269089E+03 -0.69173595482E+03  0.74881262994E+03  0.12664908215E+04  0.60004793844E+03 0.  0.
        -24    2    4    4    0    0  0.83573834607E+01 -0.52792215321E+03  0.46962322765E+03  0.71117768031E+03  0.80349681446E+02 0.  0.
         24    2    4    4    0    0  0.44410530743E+03 -0.16381380161E+03  0.27918940229E+03  0.55531314123E+03  0.79758866491E+02 0.  0.
         11    1    5    5    0    0  0.32863456294E+02 -0.38551928080E+03  0.37241236952E+03  0.53702522808E+03  0.00000000000E+00 0. -1.
        -12    1    5    5    0    0 -0.24506072834E+02 -0.14240287241E+03  0.97210858138E+02  0.17415245223E+03  0.00000000000E+00 0.  1.
         13    1    3    3    0    0 -0.28378716995E+03  0.48143055019E+03 -0.44499798128E+03  0.71437646646E+03  0.00000000000E+00 0. -1.
        -14    1    3    3    0    0 -0.16867552094E+03  0.21030540463E+03 -0.26930998710E+03  0.38106123358E+03  0.00000000000E+00 0.  1.
          4    1    6    6  502    0  0.36091786888E+03 -0.98566121640E+02  0.22372687391E+03  0.43592511114E+03  0.00000000000E+00 0. -1.
         -3    1    6    6    0  502  0.83187438545E+02 -0.65247679971E+02  0.55462528379E+02  0.11938803009E+03  0.00000000000E+00 0.  1.
<mgrwt>
<rscale>  0 0.91985562E+03</rscale>
<asrwt>0</asrwt>
<pdfrwt beam="1">  1        1 0.18434101E+00 0.91985562E+03</pdfrwt>
<pdfrwt beam="2">  1       -2 0.17903261E+00 0.91985562E+03</pdfrwt>
<totfact> 0.17423702E+00</totfact>
</mgrwt>
</event>
<event>
12    3  0.2269558E-007  0.6644351E+03  0.7818608E-02  0.9780064E-01
         -2   -1    0    0    0  501 -0.00000000000E+00  0.00000000000E+00  0.12683563109E+04  0.12683563109E+04  0.00000000000E+00 0.  1.
          1   -1    0    0  501    0  0.00000000000E+00 -0.00000000000E+00 -0.41680393757E+03  0.41680393757E+03  0.00000000000E+00 0. -1.
        -24    2    1    2    0    0 -0.40638959401E+03 -0.37087702179E+03  0.63234654423E+03  0.84192662462E+03  0.79221346977E+02 0.  0.
    5000000    2    1    2    0    0  0.40638959401E+03  0.37087702179E+03  0.21920582908E+03  0.84323362384E+03  0.60024118608E+03 0.  0.
        -24    2    4    4    0    0 -0.12949675326E+03  0.19420678064E+02 -0.18968461445E+02  0.15489001672E+03  0.80526659625E+02 0.  0.
         24    2    4    4    0    0  0.53588634727E+03  0.35145634373E+03  0.23817429052E+03  0.68834360712E+03  0.79963679599E+02 0.  0.
         11    1    5    5    0    0 -0.60363753674E+02  0.79165044831E+01  0.31479570383E+02  0.68537706063E+02  0.00000000000E+00 0. -1.
        -12    1    5    5    0    0 -0.69132999584E+02  0.11504173581E+02 -0.50448031828E+02  0.86352310662E+02  0.00000000000E+00 0.  1.
         11    1    3    3    0    0 -0.24819217272E+03 -0.26763253085E+03  0.38257773212E+03  0.52876483174E+03  0.00000000000E+00 0. -1.
        -12    1    3    3    0    0 -0.15819742129E+03 -0.10324449094E+03  0.24976881212E+03  0.31316179288E+03  0.00000000000E+00 0.  1.
          2    1    6    6  502    0  0.35868127944E+03  0.19871265681E+03  0.17636453671E+03  0.44636692306E+03  0.00000000000E+00 0. -1.
         -1    1    6    6    0  502  0.17720506783E+03  0.15274368692E+03  0.61809753815E+02  0.24197668405E+03  0.00000000000E+00 0.  1.
<mgrwt>
<rscale>  0 0.66443510E+03</rscale>
<asrwt>0</asrwt>
<pdfrwt beam="1">  1        1 0.64123683E-01 0.66443510E+03</pdfrwt>
<pdfrwt beam="2">  1       -2 0.19513174E+00 0.66443510E+03</pdfrwt>
<totfact> 0.73513967E+00</totfact>
</mgrwt>
</event>
<event>
12    3  0.2269558E-007  0.5664555E+03  0.7818608E-02  0.9977553E-01
          1   -1    0    0  501    0  0.00000000000E+00  0.00000000000E+00  0.55104528281E+03  0.55104528281E+03  0.00000000000E+00 0. -1.
         -4   -1    0    0    0  501 -0.00000000000E+00 -0.00000000000E+00 -0.10868386573E+04  0.10868386573E+04  0.00000000000E+00 0.  1.
        -24    2    1    2    0    0 -0.15199465078E+03 -0.39459698011E+03 -0.75729826170E+03  0.87143423980E+03  0.84189230523E+02 0.  0.
    5000000    2    1    2    0    0  0.15199465078E+03  0.39459698011E+03  0.22150488722E+03  0.76644970031E+03  0.59964287494E+03 0.  0.
        -24    2    4    4    0    0  0.39236809980E+02 -0.14072298987E+03 -0.12119288200E+02  0.16627251122E+03  0.78467723976E+02 0.  0.
         24    2    4    4    0    0  0.11275784080E+03  0.53531996999E+03  0.23362417542E+03  0.60017718908E+03  0.79690664621E+02 0.  0.
         11    1    3    3    0    0 -0.26345399810E+02 -0.65377512371E+02 -0.20018104847E+03  0.21222806455E+03  0.00000000000E+00 0. -1.
        -12    1    3    3    0    0 -0.12564925097E+03 -0.32921946774E+03 -0.55711721323E+03  0.65920617525E+03  0.00000000000E+00 0.  1.
         13    1    5    5    0    0  0.50715818872E+02 -0.51566933400E+02  0.11725782067E+02  0.73271664845E+02  0.00000000000E+00 0. -1.
        -14    1    5    5    0    0 -0.11479008892E+02 -0.89156056474E+02 -0.23845070267E+02  0.93000846379E+02  0.00000000000E+00 0.  1.
          2    1    6    6  502    0  0.39213987654E+02  0.25588968176E+03  0.15079327825E+03  0.29959285510E+03  0.00000000000E+00 0. -1.
         -1    1    6    6    0  502  0.73543853143E+02  0.27943028822E+03  0.82830897176E+02  0.30058433399E+03  0.00000000000E+00 0.  1.
<mgrwt>
<rscale>  0 0.56645546E+03</rscale>
<asrwt>0</asrwt>
<pdfrwt beam="1">  1        1 0.84776198E-01 0.56645546E+03</pdfrwt>
<pdfrwt beam="2">  1       -4 0.16720595E+00 0.56645546E+03</pdfrwt>
<totfact> 0.41883310E+00</totfact>
</mgrwt>
</event>
<event>
12    3  0.2269558E-007  0.7195888E+03  0.7818608E-02  0.9684307E-01
         -2   -1    0    0    0  501 -0.00000000000E+00  0.00000000000E+00  0.11217933330E+04  0.11217933330E+04  0.00000000000E+00 0.  1.
          1   -1    0    0  501    0  0.00000000000E+00 -0.00000000000E+00 -0.63453713408E+03  0.63453713408E+03  0.00000000000E+00 0. -1.
        -24    2    1    2    0    0  0.59723749708E+03 -0.28537790371E+03 -0.11812606301E+03  0.67714928280E+03  0.80275828250E+02 0.  0.
    5000000    2    1    2    0    0 -0.59723749708E+03  0.28537790371E+03  0.60538226192E+03  0.10791811843E+04  0.60000930792E+03 0.  0.
        -24    2    4    4    0    0 -0.30583125660E+03  0.35432182471E+03  0.95799381407E+02  0.48265698672E+03  0.68582303629E+02 0.  0.
         24    2    4    4    0    0 -0.29140624048E+03 -0.68943920996E+02  0.50958288051E+03  0.59652419755E+03  0.80594943559E+02 0.  0.
         13    1    5    5    0    0 -0.18133883450E+03  0.21292957186E+03  0.91323779557E+02  0.29421558114E+03  0.00000000000E+00 0. -1.
        -14    1    5    5    0    0 -0.12449242210E+03  0.14139225284E+03  0.44756018507E+01  0.18844140558E+03  0.00000000000E+00 0.  1.
         13    1    3    3    0    0  0.34296118809E+03 -0.20630570121E+03 -0.61864658170E+02  0.40498352413E+03  0.00000000000E+00 0. -1.
        -14    1    3    3    0    0  0.25427630899E+03 -0.79072202503E+02 -0.56261404838E+02  0.27216575867E+03  0.00000000000E+00 0.  1.
          4    1    6    6  502    0 -0.68570145037E+02  0.75594205543E+01  0.16757717400E+03  0.18122118771E+03  0.00000000000E+00 0. -1.
         -3    1    6    6    0  502 -0.22283609544E+03 -0.76503341550E+02  0.34200570651E+03  0.41530300984E+03  0.00000000000E+00 0.  1.
<mgrwt>
<rscale>  0 0.71958881E+03</rscale>
<asrwt>0</asrwt>
<pdfrwt beam="1">  1        1 0.97621098E-01 0.71958881E+03</pdfrwt>
<pdfrwt beam="2">  1       -2 0.17258359E+00 0.71958881E+03</pdfrwt>
<totfact> 0.57989462E+00</totfact>
</mgrwt>
</event>
<event>
12    3  0.2269558E-007  0.3835246E+03  0.7818608E-02  0.1049639E+00
         -4   -1    0    0    0  501 -0.00000000000E+00  0.00000000000E+00  0.43764896275E+03  0.43764896275E+03  0.00000000000E+00 0.  1.
          3   -1    0    0  501    0  0.00000000000E+00 -0.00000000000E+00 -0.11801264800E+04  0.11801264800E+04  0.00000000000E+00 0. -1.
        -24    2    1    2    0    0  0.30867877502E+03  0.28222009591E+02  0.25868053245E+03  0.41015048000E+03  0.72309960605E+02 0.  0.
    5000000    2    1    2    0    0 -0.30867877502E+03 -0.28222009591E+02 -0.10011580497E+04  0.12076249628E+04  0.59996795101E+03 0.  0.
        -24    2    4    4    0    0  0.26938669637E+02  0.58309762438E+02  0.38539763791E+02  0.10863760778E+03  0.78683518693E+02 0.  0.
         24    2    4    4    0    0 -0.33561744465E+03 -0.86531772029E+02 -0.10396978135E+04  0.10989873550E+04  0.81699732578E+02 0.  0.
         11    1    5    5    0    0 -0.25614117250E+02  0.99088260708E+01  0.22281409184E+02  0.35365647624E+02  0.00000000000E+00 0. -1.
        -12    1    5    5    0    0  0.52552786887E+02  0.48400936367E+02  0.16258354607E+02  0.73271960157E+02  0.00000000000E+00 0.  1.
         13    1    3    3    0    0  0.19827244566E+03  0.46555448230E+02  0.19185667200E+03  0.27980056301E+03  0.00000000000E+00 0. -1.
        -14    1    3    3    0    0  0.11040632935E+03 -0.18333438639E+02  0.66823860451E+02  0.13034991699E+03  0.00000000000E+00 0.  1.
          4    1    6    6  502    0 -0.11447266703E+03  0.16356362638E+01 -0.41365478771E+03  0.42920502117E+03  0.00000000000E+00 0. -1.
         -3    1    6    6    0  502 -0.22114477762E+03 -0.88167408292E+02 -0.62604302582E+03  0.66978233385E+03  0.00000000000E+00 0.  1.
<mgrwt>
<rscale>  0 0.38352459E+03</rscale>
<asrwt>0</asrwt>
<pdfrwt beam="1">  1        3 0.18155792E+00 0.38352459E+03</pdfrwt>
<pdfrwt beam="2">  1       -4 0.67330611E-01 0.38352459E+03</pdfrwt>
<totfact> 0.90532331E-01</totfact>
</mgrwt>
</event>
<event>
12    3  0.2269558E-007  0.7184196E+03  0.7818608E-02  0.9686241E-01
          1   -1    0    0  501    0  0.00000000000E+00  0.00000000000E+00  0.67532788783E+03  0.67532788783E+03  0.00000000000E+00 0. -1.
         -2   -1    0    0    0  501 -0.00000000000E+00 -0.00000000000E+00 -0.10232846326E+04  0.10232846326E+04  0.00000000000E+00 0.  1.
        -24    2    1    2    0    0 -0.66656626592E+03  0.81381139678E+02 -0.41857922167E+03  0.79526969608E+03  0.79447139207E+02 0.  0.
    5000000    2    1    2    0    0  0.66656626592E+03 -0.81381139678E+02  0.70622476896E+02  0.90334282435E+03  0.60008936609E+03 0.  0.
        -24    2    4    4    0    0  0.48513645506E+03 -0.21375870516E+03 -0.17215442432E+03  0.56310642522E+03  0.80009601018E+02 0.  0.
         24    2    4    4    0    0  0.18142981086E+03  0.13237756548E+03  0.24277690122E+03  0.34023639912E+03  0.79872319449E+02 0.  0.
         11    1    3    3    0    0 -0.40793805203E+03  0.88672647452E+02 -0.25707663247E+03  0.49027001505E+03  0.00000000000E+00 0. -1.
        -12    1    3    3    0    0 -0.25862821389E+03 -0.72915077740E+01 -0.16150258921E+03  0.30499968103E+03  0.00000000000E+00 0.  1.
         13    1    5    5    0    0  0.32790858224E+03 -0.14886117972E+03 -0.77184965910E+02  0.36829500146E+03  0.00000000000E+00 0. -1.
        -14    1    5    5    0    0  0.15722787282E+03 -0.64897525433E+02 -0.94969458410E+02  0.19481142377E+03  0.00000000000E+00 0.  1.
          4    1    6    6  502    0  0.67898755837E+02  0.20223480727E+02  0.11810675179E+03  0.13772594177E+03  0.00000000000E+00 0. -1.
         -3    1    6    6    0  502  0.11353105502E+03  0.11215408475E+03  0.12467014942E+03  0.20251045735E+03  0.00000000000E+00 0.  1.
<mgrwt>
<rscale>  0 0.71841963E+03</rscale>
<asrwt>0</asrwt>
<pdfrwt beam="1">  1        1 0.10389660E+00 0.71841963E+03</pdfrwt>
<pdfrwt beam="2">  1       -2 0.15742840E+00 0.71841963E+03</pdfrwt>
<totfact> 0.68038231E+00</totfact>
</mgrwt>
</event>
<event>
12    3  0.2269558E-007  0.9488836E+03  0.7818608E-02  0.9366456E-01
          1   -1    0    0  501    0  0.00000000000E+00  0.00000000000E+00  0.18670959861E+04  0.18670959861E+04  0.00000000000E+00 0. -1.
         -2   -1    0    0    0  501 -0.00000000000E+00 -0.00000000000E+00 -0.82972854398E+03  0.82972854398E+03  0.00000000000E+00 0.  1.
        -24    2    1    2    0    0  0.85028945438E+03  0.12086191997E+03 -0.37266914528E+03  0.94016773041E+03  0.86216642961E+02 0.  0.
    5000000    2    1    2    0    0 -0.85028945438E+03 -0.12086191997E+03  0.14100365874E+04  0.17566567997E+04  0.60003347749E+03 0.  0.
        -24    2    4    4    0    0  0.62120803764E+02 -0.66093496019E+02  0.15535132752E+03  0.20244432887E+03  0.92856485249E+02 0.  0.
         24    2    4    4    0    0 -0.91241025815E+03 -0.54768423954E+02  0.12546852599E+04  0.15542124708E+04  0.76480347962E+02 0.  0.
         11    1    3    3    0    0  0.35830341741E+03  0.93899395995E+02 -0.16351348808E+03  0.40488899254E+03  0.00000000000E+00 0. -1.
        -12    1    3    3    0    0  0.49198603697E+03  0.26962523978E+02 -0.20915565719E+03  0.53527873786E+03  0.00000000000E+00 0.  1.
         13    1    5    5    0    0  0.69780500002E+02 -0.18434714625E+02  0.12804589935E+03  0.14698608514E+03  0.00000000000E+00 0. -1.
        -14    1    5    5    0    0 -0.76596962379E+01 -0.47658781394E+02  0.27305428175E+02  0.55458243736E+02  0.00000000000E+00 0.  1.
          4    1    6    6  502    0 -0.90084144721E+03 -0.52251673799E+02  0.12191978642E+04  0.15168022226E+04  0.00000000000E+00 0. -1.
         -3    1    6    6    0  502 -0.11568810936E+02 -0.25167501548E+01  0.35487395753E+02  0.37410248264E+02  0.00000000000E+00 0.  1.
<mgrwt>
<rscale>  0 0.94888360E+03</rscale>
<asrwt>0</asrwt>
<pdfrwt beam="1">  1        1 0.28724554E+00 0.94888360E+03</pdfrwt>
<pdfrwt beam="2">  1       -2 0.12765055E+00 0.94888360E+03</pdfrwt>
<totfact> 0.14780819E+00</totfact>
</mgrwt>
</event>
<event>
12    3  0.2503023E-007  0.1150244E+04  0.7818608E-02  0.9157558E-01
         -2   -1    0    0    0  501 -0.00000000000E+00  0.00000000000E+00  0.10725615375E+04  0.10725615375E+04  0.00000000000E+00 0.  1.
          1   -1    0    0  501    0  0.00000000000E+00 -0.00000000000E+00 -0.13999284244E+04  0.13999284244E+04  0.00000000000E+00 0. -1.
        -24    2    1    2    0    0  0.11382032776E+04  0.11171155752E+03 -0.27480131696E+02  0.11467445930E+04  0.79258000291E+02 0.  0.
    5000000    2    1    2    0    0 -0.11382032776E+04 -0.11171155752E+03 -0.29988675516E+03  0.13257453689E+04  0.59973539500E+03 0.  0.
        -24    2    4    4    0    0 -0.50326128091E+03 -0.11408675150E+03 -0.42582208047E+03  0.67382782196E+03  0.80198414543E+02 0.  0.
         24    2    4    4    0    0 -0.63494199669E+03  0.23751939795E+01  0.12593532531E+03  0.65191754695E+03  0.77329173935E+02 0.  0.
         11    1    5    5    0    0 -0.25896919559E+02  0.79870615547E+01 -0.38553719058E+02  0.47125713237E+02  0.00000000000E+00 0. -1.
        -12    1    5    5    0    0 -0.47736436135E+03 -0.12207381305E+03 -0.38726836142E+03  0.62670210872E+03  0.00000000000E+00 0.  1.
         13    1    3    3    0    0  0.37594846240E+03  0.27692236662E+02  0.27054945956E+02  0.37793660375E+03  0.00000000000E+00 0. -1.
        -14    1    3    3    0    0  0.76225481521E+03  0.84019320859E+02 -0.54535077651E+02  0.76880798921E+03  0.00000000000E+00 0.  1.
          2    1    6    6  502    0 -0.11001380455E+03  0.18948109561E+02  0.45737384490E+02  0.12063986235E+03  0.00000000000E+00 0. -1.
         -1    1    6    6    0  502 -0.52492819214E+03 -0.16572915581E+02  0.80197940821E+02  0.53127768459E+03  0.00000000000E+00 0.  1.
<mgrwt>
<rscale>  0 0.11502441E+04</rscale>
<asrwt>0</asrwt>
<pdfrwt beam="1">  1        1 0.21537360E+00 0.11502441E+04</pdfrwt>
<pdfrwt beam="2">  1       -2 0.16500947E+00 0.11502441E+04</pdfrwt>
<totfact> 0.15288549E+00</totfact>
</mgrwt>
</event>
<event>
12    3  0.2269558E-007  0.2106669E+04  0.7818608E-02  0.8558311E-01
         -2   -1    0    0    0  501 -0.00000000000E+00  0.00000000000E+00  0.24171670118E+04  0.24171670118E+04  0.00000000000E+00 0.  1.
          1   -1    0    0  501    0  0.00000000000E+00 -0.00000000000E+00 -0.23444352442E+04  0.23444352442E+04  0.00000000000E+00 0. -1.
        -24    2    1    2    0    0  0.29903920749E+03 -0.20806715409E+04 -0.99708797656E+03  0.23279246535E+04  0.80188844506E+02 0.  0.
    5000000    2    1    2    0    0 -0.29903920749E+03  0.20806715409E+04  0.10698197442E+04  0.24336776025E+04  0.59971149684E+03 0.  0.
        -24    2    4    4    0    0 -0.23319845307E+03  0.17669405918E+04  0.64842898567E+03  0.18982893743E+04  0.81128452277E+02 0.  0.
         24    2    4    4    0    0 -0.65840754420E+02  0.31373094913E+03  0.42139075849E+03  0.53538822825E+03  0.79424619764E+02 0.  0.
         11    1    5    5    0    0 -0.14174677793E+03  0.11438431981E+04  0.37902651150E+03  0.12133138536E+04  0.00000000000E+00 0. -1.
        -12    1    5    5    0    0 -0.91451675142E+02  0.62309739364E+03  0.26940247416E+03  0.68497552068E+03  0.00000000000E+00 0.  1.
         13    1    3    3    0    0  0.74428080105E+02 -0.40153040421E+03 -0.22395004016E+03  0.46574652452E+03  0.00000000000E+00 0. -1.
        -14    1    3    3    0    0  0.22461112738E+03 -0.16791411367E+04 -0.77313793641E+03  0.18621781290E+04  0.00000000000E+00 0.  1.
          4    1    6    6  502    0 -0.56333864955E+02  0.10168064259E+03  0.17610692491E+03  0.21101210017E+03  0.00000000000E+00 0. -1.
         -1    1    6    6    0  502 -0.95068894653E+01  0.21205030654E+03  0.24528383359E+03  0.32437612809E+03  0.00000000000E+00 0.  1.
<mgrwt>
<rscale>  0 0.21066695E+04</rscale>
<asrwt>0</asrwt>
<pdfrwt beam="1">  1        1 0.36068235E+00 0.21066695E+04</pdfrwt>
<pdfrwt beam="2">  1       -2 0.37187185E+00 0.21066695E+04</pdfrwt>
<totfact> 0.15026840E-02</totfact>
</mgrwt>
</event>
<event>
12    3  0.2269558E-007  0.5915748E+03  0.7818608E-02  0.9923042E-01
         -2   -1    0    0    0  501 -0.00000000000E+00  0.00000000000E+00  0.48069708338E+03  0.48069708338E+03  0.00000000000E+00 0.  1.
          1   -1    0    0  501    0  0.00000000000E+00 -0.00000000000E+00 -0.94877128898E+03  0.94877128898E+03  0.00000000000E+00 0. -1.
        -24    2    1    2    0    0 -0.40258829737E+03 -0.29100047760E+03 -0.40907821861E+03  0.64830773034E+03  0.78735691587E+02 0.  0.
    5000000    2    1    2    0    0  0.40258829737E+03  0.29100047760E+03 -0.58995986988E+02  0.78116064203E+03  0.59997733876E+03 0.  0.
        -24    2    4    4    0    0 -0.21850415023E+02 -0.10003822600E+03  0.11559086540E+03  0.17326872940E+03  0.78585731077E+02 0.  0.
         24    2    4    4    0    0  0.42443871239E+03  0.39103870360E+03 -0.17458685239E+03  0.60789191262E+03  0.77411369455E+02 0.  0.
         11    1    5    5    0    0 -0.27523658638E+02 -0.50387705431E+02  0.12581459480E+02  0.58777255517E+02  0.00000000000E+00 0. -1.
        -12    1    5    5    0    0  0.56732436151E+01 -0.49650520564E+02  0.10300940592E+03  0.11449147389E+03  0.00000000000E+00 0.  1.
         13    1    3    3    0    0 -0.20587527748E+03 -0.12567590682E+03 -0.24278408692E+03  0.34223263476E+03  0.00000000000E+00 0. -1.
        -14    1    3    3    0    0 -0.19671301989E+03 -0.16532457078E+03 -0.16629413169E+03  0.30607509557E+03  0.00000000000E+00 0.  1.
          2    1    6    6  502    0  0.95022600362E+02  0.74466479968E+02 -0.68719663338E+02  0.13891343833E+03  0.00000000000E+00 0. -1.
         -1    1    6    6    0  502  0.32941611203E+03  0.31657222363E+03 -0.10586718905E+03  0.46897847430E+03  0.00000000000E+00 0.  1.
<mgrwt>
<rscale>  0 0.59157479E+03</rscale>
<asrwt>0</asrwt>
<pdfrwt beam="1">  1        1 0.14596481E+00 0.59157479E+03</pdfrwt>
<pdfrwt beam="2">  1       -2 0.73953398E-01 0.59157479E+03</pdfrwt>
<totfact> 0.24967115E+01</totfact>
</mgrwt>
</event>
<event>
12    3  0.2269558E-007  0.1168870E+04  0.7818608E-02  0.9140550E-01
         -2   -1    0    0    0  501 -0.00000000000E+00  0.00000000000E+00  0.75208039563E+03  0.75208039563E+03  0.00000000000E+00 0.  1.
          1   -1    0    0  501    0  0.00000000000E+00 -0.00000000000E+00 -0.18585174443E+04  0.18585174443E+04  0.00000000000E+00 0. -1.
        -24    2    1    2    0    0  0.18501893378E+03  0.10805382176E+04 -0.66656750554E+03  0.12854699749E+04  0.79535976360E+02 0.  0.
    5000000    2    1    2    0    0 -0.18501893378E+03 -0.10805382176E+04 -0.43986954309E+03  0.13251278649E+04  0.60056956137E+03 0.  0.
        -24    2    4    4    0    0 -0.10707993739E+03 -0.11138521370E+04 -0.34617789387E+03  0.11752017289E+04  0.95536764425E+02 0.  0.
         24    2    4    4    0    0 -0.77938996386E+02  0.33313919444E+02 -0.93691649218E+02  0.14992613602E+03  0.80718131435E+02 0.  0.
         13    1    3    3    0    0  0.56906776503E+02  0.17114593573E+03 -0.96504661202E+02  0.20455430126E+03  0.00000000000E+00 0. -1.
        -14    1    3    3    0    0  0.12811215727E+03  0.90939228183E+03 -0.57006284434E+03  0.10809156737E+04  0.00000000000E+00 0.  1.
         13    1    5    5    0    0 -0.10247499482E+03 -0.64417439705E+03 -0.17573660596E+03  0.67553322128E+03  0.00000000000E+00 0. -1.
        -14    1    5    5    0    0 -0.46049425651E+01 -0.46967773996E+03 -0.17044128791E+03  0.49966850765E+03  0.00000000000E+00 0.  1.
          2    1    6    6  502    0 -0.41943373552E+02  0.59303364370E+02 -0.57135585641E+02  0.92415424887E+02  0.00000000000E+00 0. -1.
         -1    1    6    6    0  502 -0.35995622833E+02 -0.25989444926E+02 -0.36556063577E+02  0.57510711133E+02  0.00000000000E+00 0.  1.
<mgrwt>
<rscale>  0 0.11688700E+04</rscale>
<asrwt>0</asrwt>
<pdfrwt beam="1">  1        1 0.28592575E+00 0.11688700E+04</pdfrwt>
<pdfrwt beam="2">  1       -2 0.11570468E+00 0.11688700E+04</pdfrwt>
<totfact> 0.18633085E+00</totfact>
</mgrwt>
</event>
<event>
12    3  0.2269558E-007  0.3643623E+03  0.7818608E-02  0.1056870E+00
          1   -1    0    0  501    0  0.00000000000E+00  0.00000000000E+00  0.10415163660E+04  0.10415163660E+04  0.00000000000E+00 0. -1.
         -2   -1    0    0    0  501 -0.00000000000E+00 -0.00000000000E+00 -0.36976811594E+03  0.36976811594E+03  0.00000000000E+00 0.  1.
        -24    2    1    2    0    0  0.20081990485E+03  0.96318247436E+02  0.73130304702E+03  0.76868516996E+03  0.80417068854E+02 0.  0.
    5000000    2    1    2    0    0 -0.20081990485E+03 -0.96318247436E+02 -0.59554796973E+02  0.64259931196E+03  0.59981769140E+03 0.  0.
        -24    2    4    4    0    0 -0.33525224862E+03 -0.35662841497E+02  0.14717417099E+03  0.37634894961E+03  0.79450530505E+02 0.  0.
         24    2    4    4    0    0  0.13443234376E+03 -0.60655405939E+02 -0.20672896796E+03  0.26625036235E+03  0.80007849231E+02 0.  0.
         11    1    3    3    0    0  0.55827098783E+02  0.30651465843E+02  0.10800257070E+03  0.12538234563E+03  0.00000000000E+00 0. -1.
        -12    1    3    3    0    0  0.14499280607E+03  0.65666781593E+02  0.62330047632E+03  0.64330282434E+03  0.00000000000E+00 0.  1.
         11    1    5    5    0    0 -0.22310068366E+03 -0.55824816453E+02  0.11911535610E+03  0.25899573981E+03  0.00000000000E+00 0. -1.
        -12    1    5    5    0    0 -0.11215156496E+03  0.20161974956E+02  0.28058814890E+02  0.11735320979E+03  0.00000000000E+00 0.  1.
          2    1    6    6  502    0  0.13972922397E+03 -0.47213244208E+02 -0.16123799833E+03  0.21852011021E+03  0.00000000000E+00 0. -1.
         -1    1    6    6    0  502 -0.52968802025E+01 -0.13442161731E+02 -0.45490969633E+02  0.47730252148E+02  0.00000000000E+00 0.  1.
<mgrwt>
<rscale>  0 0.36436234E+03</rscale>
<asrwt>0</asrwt>
<pdfrwt beam="1">  1        1 0.16023329E+00 0.36436234E+03</pdfrwt>
<pdfrwt beam="2">  1       -2 0.56887403E-01 0.36436234E+03</pdfrwt>
<totfact> 0.38435858E+01</totfact>
</mgrwt>
</event>
<event>
12    3  0.2269558E-007  0.1313822E+04  0.7818608E-02  0.9018675E-01
          1   -1    0    0  501    0  0.00000000000E+00  0.00000000000E+00  0.26990675361E+04  0.26990675361E+04  0.00000000000E+00 0. -1.
         -2   -1    0    0    0  501 -0.00000000000E+00 -0.00000000000E+00 -0.69874196509E+03  0.69874196509E+03  0.00000000000E+00 0.  1.
        -24    2    1    2    0    0  0.12324410155E+04 -0.26566661714E+03  0.52935857574E+03  0.13697265381E+04  0.80253843339E+02 0.  0.
    5000000    2    1    2    0    0 -0.12324410155E+04  0.26566661714E+03  0.14709669952E+04  0.20280829631E+04  0.59990582257E+03 0.  0.
        -24    2    4    4    0    0 -0.11269832898E+04  0.38281875950E+03  0.11260959824E+04  0.16404437128E+04  0.79510221419E+02 0.  0.
         24    2    4    4    0    0 -0.10545772568E+03 -0.11715214236E+03  0.34487101288E+03  0.38763925026E+03  0.80512213102E+02 0.  0.
         11    1    3    3    0    0  0.82596199183E+03 -0.17093726289E+03  0.31351890624E+03  0.89984824519E+03  0.00000000000E+00 0. -1.
        -12    1    3    3    0    0  0.40647902364E+03 -0.94729354256E+02  0.21583966950E+03  0.46987829291E+03  0.00000000000E+00 0.  1.
         13    1    5    5    0    0 -0.37864764258E+03  0.14192955565E+03  0.33439326235E+03  0.52472553769E+03  0.00000000000E+00 0. -1.
        -14    1    5    5    0    0 -0.74833564721E+03  0.24088920385E+03  0.79170272002E+03  0.11157181751E+04  0.00000000000E+00 0.  1.
          2    1    6    6  502    0 -0.66069390740E+02 -0.16355053677E+02  0.11652932526E+03  0.13495086447E+03  0.00000000000E+00 0. -1.
         -1    1    6    6    0  502 -0.39388334937E+02 -0.10079708868E+03  0.22834168761E+03  0.25268838580E+03  0.00000000000E+00 0.  1.
<mgrwt>
<rscale>  0 0.13138221E+04</rscale>
<asrwt>0</asrwt>
<pdfrwt beam="1">  1        1 0.41524115E+00 0.13138221E+04</pdfrwt>
<pdfrwt beam="2">  1       -2 0.10749877E+00 0.13138221E+04</pdfrwt>
<totfact> 0.58354629E-01</totfact>
</mgrwt>
</event>
<event>
12    3  0.2269558E-007  0.1305714E+04  0.7818608E-02  0.9025046E-01
         -2   -1    0    0    0  501 -0.00000000000E+00  0.00000000000E+00  0.71137430491E+03  0.71137430491E+03  0.00000000000E+00 0.  1.
          1   -1    0    0  501    0  0.00000000000E+00 -0.00000000000E+00 -0.29809774815E+04  0.29809774815E+04  0.00000000000E+00 0. -1.
        -24    2    1    2    0    0 -0.91715894715E+03 -0.91478991470E+03 -0.17377260337E+04  0.21688810977E+04  0.79575908605E+02 0.  0.
    5000000    2    1    2    0    0  0.91715894715E+03  0.91478991470E+03 -0.53187714282E+03  0.15234706887E+04  0.60004043354E+03 0.  0.
        -24    2    4    4    0    0  0.54807858629E+03  0.66029136150E+03 -0.54156769072E+02  0.86355177524E+03  0.80086790773E+02 0.  0.
         24    2    4    4    0    0  0.36908036085E+03  0.25449855320E+03 -0.47772037375E+03  0.65991891345E+03  0.79286761119E+02 0.  0.
         11    1    3    3    0    0 -0.39962477399E+03 -0.45171583127E+03 -0.78654591664E+03  0.99116175834E+03  0.00000000000E+00 0. -1.
        -12    1    3    3    0    0 -0.51753417316E+03 -0.46307408343E+03 -0.95118011709E+03  0.11777193394E+04  0.00000000000E+00 0.  1.
         13    1    5    5    0    0  0.22676583330E+03  0.31912723525E+03  0.24104145000E+01  0.39149807858E+03  0.00000000000E+00 0. -1.
        -14    1    5    5    0    0  0.32131275299E+03  0.34116412625E+03 -0.56567183572E+02  0.47205369666E+03  0.00000000000E+00 0.  1.
          2    1    6    6  502    0  0.15121821700E+03  0.14650035976E+03 -0.24910855785E+03  0.32616618181E+03  0.00000000000E+00 0. -1.
         -3    1    6    6    0  502  0.21786214385E+03  0.10799819344E+03 -0.22861181591E+03  0.33375273165E+03  0.00000000000E+00 0.  1.
<mgrwt>
<rscale>  0 0.13057137E+04</rscale>
<asrwt>0</asrwt>
<pdfrwt beam="1">  1        1 0.45861192E+00 0.13057137E+04</pdfrwt>
<pdfrwt beam="2">  1       -2 0.10944220E+00 0.13057137E+04</pdfrwt>
<totfact> 0.35207089E-01</totfact>
</mgrwt>
</event>
<event>
12    3  0.2269558E-007  0.1120768E+04  0.7818608E-02  0.9185183E-01
         -2   -1    0    0    0  501 -0.00000000000E+00  0.00000000000E+00  0.12547877642E+04  0.12547877642E+04  0.00000000000E+00 0.  1.
          1   -1    0    0  501    0  0.00000000000E+00 -0.00000000000E+00 -0.14589241472E+04  0.14589241472E+04  0.00000000000E+00 0. -1.
        -24    2    1    2    0    0 -0.71071373842E+02  0.10553566022E+04  0.63529495097E+03  0.12360240308E+04  0.72986518138E+02 0.  0.
    5000000    2    1    2    0    0  0.71071373842E+02 -0.10553566022E+04 -0.83943133392E+03  0.14776878806E+04  0.60007317061E+03 0.  0.
        -24    2    4    4    0    0  0.15188040808E+03 -0.50903351516E+02 -0.24729483254E+03  0.30620170512E+03  0.83342308964E+02 0.  0.
         24    2    4    4    0    0 -0.80809034238E+02 -0.10044532507E+04 -0.59213650138E+03  0.11714861755E+04  0.79358617737E+02 0.  0.
         11    1    3    3    0    0 -0.49039016632E+02  0.80492126806E+03  0.44779570657E+03  0.92240125095E+03  0.00000000000E+00 0. -1.
        -12    1    3    3    0    0 -0.22032357211E+02  0.25043533418E+03  0.18749924439E+03  0.31362277981E+03  0.00000000000E+00 0.  1.
         11    1    5    5    0    0  0.31705192880E+02  0.16295418694E+02 -0.21181047870E+02  0.41465608820E+02  0.00000000000E+00 0. -1.
        -12    1    5    5    0    0  0.12017521520E+03 -0.67198770210E+02 -0.22611378467E+03  0.26473609630E+03  0.00000000000E+00 0.  1.
          4    1    6    6  502    0 -0.51050780175E+02 -0.24082925189E+03 -0.12966164935E+03  0.27823920291E+03  0.00000000000E+00 0. -1.
         -3    1    6    6    0  502 -0.29758254063E+02 -0.76362399883E+03 -0.46247485203E+03  0.89324697259E+03  0.00000000000E+00 0.  1.
<mgrwt>
<rscale>  0 0.11207677E+04</rscale>
<asrwt>0</asrwt>
<pdfrwt beam="1">  1        1 0.22444987E+00 0.11207677E+04</pdfrwt>
<pdfrwt beam="2">  1       -2 0.19304427E+00 0.11207677E+04</pdfrwt>
<totfact> 0.89089312E-01</totfact>
</mgrwt>
</event>
<event>
12    3  0.2269558E-007  0.6716624E+03  0.7818608E-02  0.9766959E-01
          1   -1    0    0  501    0  0.00000000000E+00  0.00000000000E+00  0.11718908562E+04  0.11718908562E+04  0.00000000000E+00 0. -1.
         -2   -1    0    0    0  501 -0.00000000000E+00 -0.00000000000E+00 -0.21137193780E+04  0.21137193780E+04  0.00000000000E+00 0.  1.
        -24    2    1    2    0    0 -0.55971458902E+03  0.27155774359E+03 -0.18966966052E+04  0.19976268732E+04  0.77660048409E+02 0.  0.
    5000000    2    1    2    0    0  0.55971458902E+03 -0.27155774359E+03  0.95486808334E+03  0.12879833611E+04  0.60008670429E+03 0.  0.
        -24    2    4    4    0    0  0.57084816045E+03 -0.27184488887E+03  0.10070557939E+04  0.11918118638E+04  0.80541174015E+02 0.  0.
         24    2    4    4    0    0 -0.11133571436E+02  0.28714527791E+00 -0.52187710569E+02  0.96171497333E+02  0.80008505169E+02 0.  0.
         11    1    3    3    0    0 -0.42376850723E+03  0.16722118146E+03 -0.13753946563E+04  0.14488799577E+04  0.00000000000E+00 0. -1.
        -12    1    3    3    0    0 -0.13594608179E+03  0.10433656213E+03 -0.52130194888E+03  0.54874691549E+03  0.00000000000E+00 0.  1.
         11    1    5    5    0    0  0.47245560198E+03 -0.25243728412E+03  0.87579794788E+03  0.10266259902E+04  0.00000000000E+00 0. -1.
        -12    1    5    5    0    0  0.98392558474E+02 -0.19407604747E+02  0.13125784602E+03  0.16518587357E+03  0.00000000000E+00 0.  1.
          2    1    6    6  502    0 -0.42965577418E+02 -0.14481936005E+02 -0.33813138558E+02  0.56560548552E+02  0.00000000000E+00 0. -1.
         -1    1    6    6    0  502  0.31832005981E+02  0.14769081283E+02 -0.18374572011E+02  0.39610948781E+02  0.00000000000E+00 0.  1.
<mgrwt>
<rscale>  0 0.67166244E+03</rscale>
<asrwt>0</asrwt>
<pdfrwt beam="1">  1        1 0.18029091E+00 0.67166244E+03</pdfrwt>
<pdfrwt beam="2">  1       -2 0.32518759E+00 0.67166244E+03</pdfrwt>
<totfact> 0.23694976E-01</totfact>
</mgrwt>
</event>
<event>
12    3  0.2269558E-007  0.7476786E+03  0.7818608E-02  0.9638999E-01
          1   -1    0    0  501    0  0.00000000000E+00  0.00000000000E+00  0.18528194787E+04  0.18528194787E+04  0.00000000000E+00 0. -1.
         -2   -1    0    0    0  501 -0.00000000000E+00 -0.00000000000E+00 -0.38763743471E+03  0.38763743471E+03  0.00000000000E+00 0.  1.
        -24    2    1    2    0    0 -0.26029420089E+03  0.67185946624E+03  0.42762264868E+03  0.84193480095E+03  0.82733705294E+02 0.  0.
    5000000    2    1    2    0    0  0.26029420089E+03 -0.67185946624E+03  0.10375593953E+04  0.13985221125E+04  0.60015530231E+03 0.  0.
        -24    2    4    4    0    0  0.13269711937E+03 -0.60382862607E+03  0.10600527498E+04  0.12298125155E+04  0.80681198407E+02 0.  0.
         24    2    4    4    0    0  0.12759708152E+03 -0.68030840164E+02 -0.22493354459E+02  0.16870959700E+03  0.83950977938E+02 0.  0.
         11    1    3    3    0    0 -0.10230736349E+03  0.36942744726E+03  0.20761569533E+03  0.43594462075E+03  0.00000000000E+00 0. -1.
        -12    1    3    3    0    0 -0.15798683740E+03  0.30243201898E+03  0.22000695335E+03  0.40599018020E+03  0.00000000000E+00 0.  1.
         11    1    5    5    0    0  0.12181868815E+03 -0.46482534325E+03  0.87303644956E+03  0.99654153691E+03  0.00000000000E+00 0. -1.
        -12    1    5    5    0    0  0.10878431214E+02 -0.13900328282E+03  0.18701630020E+03  0.23327097857E+03  0.00000000000E+00 0.  1.
          4    1    6    6  502    0  0.11481427646E+03 -0.42714598364E+02 -0.47018335512E+02  0.13121577217E+03  0.00000000000E+00 0. -1.
         -3    1    6    6    0  502  0.12782805062E+02 -0.25316241799E+02  0.24524981053E+02  0.37493824822E+02  0.00000000000E+00 0.  1.
<mgrwt>
<rscale>  0 0.74767863E+03</rscale>
<asrwt>0</asrwt>
<pdfrwt beam="1">  1        1 0.28504915E+00 0.74767863E+03</pdfrwt>
<pdfrwt beam="2">  1       -2 0.59636529E-01 0.74767863E+03</pdfrwt>
<totfact> 0.89787083E+00</totfact>
</mgrwt>
</event>
<event>
12    3  0.2269558E-007  0.9747528E+03  0.7818608E-02  0.9336677E-01
          1   -1    0    0  501    0  0.00000000000E+00  0.00000000000E+00  0.12596405434E+04  0.12596405434E+04  0.00000000000E+00 0. -1.
         -2   -1    0    0    0  501 -0.00000000000E+00 -0.00000000000E+00 -0.18887953534E+04  0.18887953534E+04  0.00000000000E+00 0.  1.
        -24    2    1    2    0    0  0.97820615488E+02 -0.93638814729E+03 -0.14721403244E+04  0.17493689116E+04  0.81870745083E+02 0.  0.
    5000000    2    1    2    0    0 -0.97820615488E+02  0.93638814729E+03  0.84298551445E+03  0.13990669852E+04  0.60031010017E+03 0.  0.
        -24    2    4    4    0    0 -0.77393509001E+01  0.16359389237E+02 -0.62082278274E+02  0.10284242272E+03  0.79967665130E+02 0.  0.
         24    2    4    4    0    0 -0.90081264588E+02  0.92002875805E+03  0.90506779272E+03  0.12962245625E+04  0.80516191771E+02 0.  0.
         11    1    5    5    0    0  0.33545004056E+02  0.21730836639E+02 -0.35415981033E+02  0.53402137324E+02  0.00000000000E+00 0. -1.
        -12    1    5    5    0    0 -0.41284354957E+02 -0.53714474020E+01 -0.26666297241E+02  0.49440285395E+02  0.00000000000E+00 0.  1.
         13    1    3    3    0    0 -0.10895400400E+01 -0.18214929246E+03 -0.33352743228E+03  0.38002644635E+03  0.00000000000E+00 0. -1.
        -14    1    3    3    0    0  0.98910155528E+02 -0.75423885483E+03 -0.11386128921E+04  0.13693424653E+04  0.00000000000E+00 0.  1.
          4    1    6    6  502    0 -0.43163483358E+02  0.60668823626E+03  0.54581859939E+03  0.81722190729E+03  0.00000000000E+00 0. -1.
         -3    1    6    6    0  502 -0.46917781230E+02  0.31334052180E+03  0.35924919333E+03  0.47900265521E+03  0.00000000000E+00 0.  1.
<mgrwt>
<rscale>  0 0.97475284E+03</rscale>
<asrwt>0</asrwt>
<pdfrwt beam="1">  1        1 0.19379085E+00 0.97475284E+03</pdfrwt>
<pdfrwt beam="2">  1       -2 0.29058390E+00 0.97475284E+03</pdfrwt>
<totfact> 0.31151538E-01</totfact>
</mgrwt>
</event>
<event>
12    3  0.2269558E-007  0.7353114E+03  0.7818608E-02  0.9658680E-01
          1   -1    0    0  501    0  0.00000000000E+00  0.00000000000E+00  0.35552251549E+04  0.35552251549E+04  0.00000000000E+00 0. -1.
         -2   -1    0    0    0  501 -0.00000000000E+00 -0.00000000000E+00 -0.15838752097E+03  0.15838752097E+03  0.00000000000E+00 0.  1.
        -24    2    1    2    0    0  0.42295667125E+03 -0.45390773578E+03  0.16681596260E+04  0.17815943295E+04  0.79982740442E+02 0.  0.
    5000000    2    1    2    0    0 -0.42295667125E+03  0.45390773578E+03  0.17286780079E+04  0.19320183463E+04  0.59953536775E+03 0.  0.
        -24    2    4    4    0    0  0.42944330012E+02  0.36151258739E+03  0.88810132961E+03  0.96331662034E+03  0.81971781968E+02 0.  0.
         24    2    4    4    0    0 -0.46590100126E+03  0.92395148392E+02  0.84057667830E+03  0.96870172599E+03  0.78824332728E+02 0.  0.
         13    1    5    5    0    0  0.33409728476E+02  0.63012669355E+02  0.12598148072E+03  0.14476926449E+03  0.00000000000E+00 0. -1.
        -14    1    5    5    0    0  0.95346015359E+01  0.29849991803E+03  0.76211984889E+03  0.81854735585E+03  0.00000000000E+00 0.  1.
         13    1    3    3    0    0  0.28365556499E+03 -0.35452771056E+03  0.11825924544E+04  0.12667577867E+04  0.00000000000E+00 0. -1.
        -14    1    3    3    0    0  0.13930110625E+03 -0.99380025221E+02  0.48556717167E+03  0.51483654282E+03  0.00000000000E+00 0.  1.
          4    1    6    6  502    0 -0.36967002013E+02  0.13556257733E+02  0.12136305038E+03  0.12759044384E+03  0.00000000000E+00 0. -1.
         -3    1    6    6    0  502 -0.42893399924E+03  0.78838890659E+02  0.71921362791E+03  0.84111128215E+03  0.00000000000E+00 0.  1.
<mgrwt>
<rscale>  0 0.73531138E+03</rscale>
<asrwt>0</asrwt>
<pdfrwt beam="1">  1        1 0.54695765E+00 0.73531138E+03</pdfrwt>
<pdfrwt beam="2">  1       -2 0.24367314E-01 0.73531138E+03</pdfrwt>
<totfact> 0.32327577E+00</totfact>
</mgrwt>
</event>
<event>
12    3  0.2269558E-007  0.5969805E+03  0.7818608E-02  0.9911690E-01
         -2   -1    0    0    0  501 -0.00000000000E+00  0.00000000000E+00  0.10166128188E+04  0.10166128188E+04  0.00000000000E+00 0.  1.
          1   -1    0    0  501    0  0.00000000000E+00 -0.00000000000E+00 -0.13294008029E+04  0.13294008029E+04  0.00000000000E+00 0. -1.
        -24    2    1    2    0    0  0.22871411997E+03  0.48029374012E+03 -0.10984880296E+04  0.12231115360E+04  0.79584249871E+02 0.  0.
    5000000    2    1    2    0    0 -0.22871411997E+03 -0.48029374012E+03  0.78570004541E+03  0.11229020858E+04  0.60049338662E+03 0.  0.
        -24    2    4    4    0    0 -0.30876279255E+03 -0.26121649378E+03  0.77342986503E+03  0.87711727999E+03  0.87019814167E+02 0.  0.
         24    2    4    4    0    0  0.80048672574E+02 -0.21907724634E+03  0.12270180380E+02  0.24578480577E+03  0.76530932154E+02 0.  0.
         11    1    3    3    0    0  0.14343230527E+03  0.37033081492E+03 -0.77058306532E+03  0.86690022449E+03  0.00000000000E+00 0. -1.
        -12    1    3    3    0    0  0.85281814703E+02  0.10996292520E+03 -0.32790496426E+03  0.35621131147E+03  0.00000000000E+00 0.  1.
         13    1    5    5    0    0 -0.12963278948E+03 -0.16653624666E+03  0.38876479100E+03  0.44235398074E+03  0.00000000000E+00 0. -1.
        -14    1    5    5    0    0 -0.17913000307E+03 -0.94680247118E+02  0.38466507404E+03  0.43476329925E+03  0.00000000000E+00 0.  1.
          2    1    6    6  502    0  0.14277606867E+02 -0.14187312521E+03 -0.60680966225E+01  0.14271879873E+03  0.00000000000E+00 0. -1.
         -1    1    6    6    0  502  0.65771065707E+02 -0.77204121130E+02  0.18338277003E+02  0.10306600704E+03  0.00000000000E+00 0.  1.
<mgrwt>
<rscale>  0 0.59698050E+03</rscale>
<asrwt>0</asrwt>
<pdfrwt beam="1">  1        1 0.20452320E+00 0.59698050E+03</pdfrwt>
<pdfrwt beam="2">  1       -2 0.15640197E+00 0.59698050E+03</pdfrwt>
<totfact> 0.21505355E+00</totfact>
</mgrwt>
</event>
<event>
12    3  0.2269558E-007  0.7916639E+03  0.7818608E-02  0.9572162E-01
          1   -1    0    0  501    0  0.00000000000E+00  0.00000000000E+00  0.16909994620E+04  0.16909994620E+04  0.00000000000E+00 0. -1.
         -2   -1    0    0    0  501 -0.00000000000E+00 -0.00000000000E+00 -0.67447309826E+03  0.67447309826E+03  0.00000000000E+00 0.  1.
        -24    2    1    2    0    0  0.90377241309E+02  0.67701729464E+03  0.12503626386E+04  0.14267011384E+04  0.74491256913E+02 0.  0.
    5000000    2    1    2    0    0 -0.90377241309E+02 -0.67701729464E+03 -0.23383627484E+03  0.93877142186E+03  0.60007659185E+03 0.  0.
        -24    2    4    4    0    0  0.14471719861E+03 -0.63005306071E+03 -0.21393741683E+03  0.68542708817E+03  0.78301647473E+02 0.  0.
         24    2    4    4    0    0 -0.23509443992E+03 -0.46964233933E+02 -0.19898858008E+02  0.25334433369E+03  0.79450310982E+02 0.  0.
         11    1    5    5    0    0  0.87577974831E+02 -0.49829970602E+03 -0.14615832488E+03  0.52662582032E+03  0.00000000000E+00 0. -1.
        -12    1    5    5    0    0  0.57139223779E+02 -0.13175335469E+03 -0.67779091951E+02  0.15880126785E+03  0.00000000000E+00 0.  1.
         13    1    3    3    0    0  0.86347377129E+02  0.39530132719E+03  0.76868888833E+03  0.86867808529E+03  0.00000000000E+00 0. -1.
        -14    1    3    3    0    0  0.40298641798E+01  0.28171596745E+03  0.48167375023E+03  0.55802305309E+03  0.00000000000E+00 0.  1.
          2    1    6    6  502    0 -0.11670435463E+03 -0.54461455574E+02  0.15083058153E+02  0.12966670805E+03  0.00000000000E+00 0. -1.
         -1    1    6    6    0  502 -0.11839008529E+03  0.74972216409E+01 -0.34981916161E+02  0.12367762565E+03  0.00000000000E+00 0.  1.
<mgrwt>
<rscale>  0 0.79166391E+03</rscale>
<asrwt>0</asrwt>
<pdfrwt beam="1">  1        1 0.26015376E+00 0.79166391E+03</pdfrwt>
<pdfrwt beam="2">  1       -2 0.10376509E+00 0.79166391E+03</pdfrwt>
<totfact> 0.33063133E+00</totfact>
</mgrwt>
</event>
<event>
12    3  0.2269558E-007  0.5576902E+03  0.7818608E-02  0.9997295E-01
         -2   -1    0    0    0  501 -0.00000000000E+00  0.00000000000E+00  0.20552421676E+03  0.20552421676E+03  0.00000000000E+00 0.  1.
          1   -1    0    0  501    0  0.00000000000E+00 -0.00000000000E+00 -0.22474535199E+04  0.22474535199E+04  0.00000000000E+00 0. -1.
        -24    2    1    2    0    0 -0.53724891796E+03 -0.73695176745E+02 -0.89761268863E+03  0.10518589575E+04  0.81433094266E+02 0.  0.
    5000000    2    1    2    0    0  0.53724891796E+03  0.73695176745E+02 -0.11443166145E+04  0.14011187791E+04  0.59967152678E+03 0.  0.
        -24    2    4    4    0    0  0.42411781674E+03  0.10010673773E+03 -0.27543384649E+03  0.52131330301E+03  0.77501449586E+02 0.  0.
         24    2    4    4    0    0  0.11313110122E+03 -0.26411560980E+02 -0.86888276802E+03  0.87980547611E+03  0.74861168976E+02 0.  0.
         11    1    5    5    0    0  0.32907207041E+03  0.44393658135E+02 -0.19727553883E+03  0.38623420696E+03  0.00000000000E+00 0. -1.
        -12    1    5    5    0    0  0.95045746331E+02  0.55713079590E+02 -0.78158307661E+02  0.13507909605E+03  0.00000000000E+00 0.  1.
         13    1    3    3    0    0 -0.89827067091E+01  0.42967912619E+01 -0.42964631348E+02  0.44103412361E+02  0.00000000000E+00 0. -1.
        -14    1    3    3    0    0 -0.52826621125E+03 -0.77991968007E+02 -0.85464805728E+03  0.10077555452E+04  0.00000000000E+00 0.  1.
          2    1    6    6  502    0  0.31550199557E+02 -0.35063015230E+02 -0.48304483357E+03  0.48534229299E+03  0.00000000000E+00 0. -1.
         -1    1    6    6    0  502  0.81580901664E+02  0.86514542498E+01 -0.38583793445E+03  0.39446318312E+03  0.00000000000E+00 0.  1.
<mgrwt>
<rscale>  0 0.55769020E+03</rscale>
<asrwt>0</asrwt>
<pdfrwt beam="1">  1        1 0.34576205E+00 0.55769020E+03</pdfrwt>
<pdfrwt beam="2">  1       -2 0.31619113E-01 0.55769020E+03</pdfrwt>
<totfact> 0.17752687E+01</totfact>
</mgrwt>
</event>
<event>
12    3  0.2269558E-007  0.1175174E+04  0.7818608E-02  0.9134868E-01
          1   -1    0    0  501    0  0.00000000000E+00  0.00000000000E+00  0.59254837843E+03  0.59254837843E+03  0.00000000000E+00 0. -1.
         -2   -1    0    0    0  501 -0.00000000000E+00 -0.00000000000E+00 -0.31525910274E+04  0.31525910274E+04  0.00000000000E+00 0.  1.
        -24    2    1    2    0    0  0.31065207883E+03  0.10987906921E+04 -0.36871150454E+03  0.12023432333E+04  0.76389645206E+02 0.  0.
    5000000    2    1    2    0    0 -0.31065207883E+03 -0.10987906921E+04 -0.21913311444E+04  0.25427961725E+04  0.60002874199E+03 0.  0.
        -24    2    4    4    0    0 -0.38958456819E+02 -0.80300754414E+03 -0.18244358447E+04  0.19951700671E+04  0.76148326636E+02 0.  0.
         24    2    4    4    0    0 -0.27169362201E+03 -0.29578314800E+03 -0.36689529966E+03  0.54762610542E+03  0.63064217675E+02 0.  0.
         11    1    5    5    0    0 -0.68512590491E+01 -0.62913152381E+02 -0.20049876740E+03  0.21024928114E+03  0.00000000000E+00 0. -1.
        -12    1    5    5    0    0 -0.32107197770E+02 -0.74009439176E+03 -0.16239370773E+04  0.17849207859E+04  0.00000000000E+00 0.  1.
         13    1    3    3    0    0  0.19748503227E+03  0.81780750198E+03 -0.26160036215E+03  0.88104721652E+03  0.00000000000E+00 0. -1.
        -14    1    3    3    0    0  0.11316704656E+03  0.28098319015E+03 -0.10711114240E+03  0.32129601678E+03  0.00000000000E+00 0.  1.
          4    1    6    6  502    0 -0.18302334822E+03 -0.18637697636E+03 -0.27600082254E+03  0.38001365417E+03  0.00000000000E+00 0. -1.
         -3    1    6    6    0  502 -0.88670273788E+02 -0.10940617163E+03 -0.90894477121E+02  0.16761245126E+03  0.00000000000E+00 0.  1.
<mgrwt>
<rscale>  0 0.11751745E+04</rscale>
<asrwt>0</asrwt>
<pdfrwt beam="1">  1        1 0.91161287E-01 0.11751745E+04</pdfrwt>
<pdfrwt beam="2">  1       -2 0.48501402E+00 0.11751745E+04</pdfrwt>
<totfact> 0.62140053E-02</totfact>
</mgrwt>
</event>
<event>
12    3  0.2269558E-007  0.7478010E+03  0.7818608E-02  0.9638807E-01
         -2   -1    0    0    0  501 -0.00000000000E+00  0.00000000000E+00  0.38289627063E+03  0.38289627063E+03  0.00000000000E+00 0.  1.
          1   -1    0    0  501    0  0.00000000000E+00 -0.00000000000E+00 -0.19659793554E+04  0.19659793554E+04  0.00000000000E+00 0. -1.
        -24    2    1    2    0    0  0.84021230192E+02 -0.67308924266E+03 -0.23072946201E+03  0.72130821894E+03  0.83311261966E+02 0.  0.
    5000000    2    1    2    0    0 -0.84021230192E+02  0.67308924266E+03 -0.13523536227E+04  0.16275674071E+04  0.60000553990E+03 0.  0.
        -24    2    4    4    0    0  0.17938256956E+03  0.32864168985E+03 -0.97340512570E+03  0.10460616883E+04  0.80895304908E+02 0.  0.
         24    2    4    4    0    0 -0.26340379975E+03  0.34444755281E+03 -0.37894849704E+03  0.58150571880E+03  0.80754313968E+02 0.  0.
         11    1    5    5    0    0  0.10267888081E+03  0.20704901456E+03 -0.49066828893E+03  0.54237221237E+03  0.00000000000E+00 0. -1.
        -12    1    5    5    0    0  0.76703688750E+02  0.12159267529E+03 -0.48273683677E+03  0.50368947590E+03  0.00000000000E+00 0.  1.
         13    1    3    3    0    0  0.30611921475E+02 -0.10355431394E+03 -0.63765836456E+02  0.12540601090E+03  0.00000000000E+00 0. -1.
        -14    1    3    3    0    0  0.53409308717E+02 -0.56953492872E+03 -0.16696362556E+03  0.59590220804E+03  0.00000000000E+00 0.  1.
          2    1    6    6  502    0 -0.88347543662E+02  0.18006349010E+03 -0.16069519431E+03  0.25700407470E+03  0.00000000000E+00 0. -1.
         -1    1    6    6    0  502 -0.17505625609E+03  0.16438406271E+03 -0.21825330273E+03  0.32450164410E+03  0.00000000000E+00 0.  1.
<mgrwt>
<rscale>  0 0.74780102E+03</rscale>
<asrwt>0</asrwt>
<pdfrwt beam="1">  1        1 0.30245835E+00 0.74780102E+03</pdfrwt>
<pdfrwt beam="2">  1       -2 0.58907120E-01 0.74780102E+03</pdfrwt>
<totfact> 0.77412822E+00</totfact>
</mgrwt>
</event>
<event>
12    3  0.2269558E-007  0.3621272E+03  0.7818608E-02  0.1057745E+00
          1   -1    0    0  501    0  0.00000000000E+00  0.00000000000E+00  0.26959727725E+04  0.26959727725E+04  0.00000000000E+00 0. -1.
         -2   -1    0    0    0  501 -0.00000000000E+00 -0.00000000000E+00 -0.65178522819E+02  0.65178522819E+02  0.00000000000E+00 0.  1.
        -24    2    1    2    0    0 -0.17456684437E+03 -0.69061883506E+02  0.80484511129E+03  0.82998175107E+03  0.76491352738E+02 0.  0.
    5000000    2    1    2    0    0  0.17456684437E+03  0.69061883506E+02  0.18259491383E+04  0.19311695442E+04  0.60006868416E+03 0.  0.
        -24    2    4    4    0    0 -0.95705155906E+02  0.20336601785E+03  0.12801088677E+04  0.13021814024E+04  0.80501413866E+02 0.  0.
         24    2    4    4    0    0  0.27027200028E+03 -0.13430413434E+03  0.54584027066E+03  0.62898814176E+03  0.81239933369E+02 0.  0.
         11    1    3    3    0    0 -0.39544976950E+02  0.22100783964E+00  0.30652155941E+03  0.30906200095E+03  0.00000000000E+00 0. -1.
        -12    1    3    3    0    0 -0.13502186742E+03 -0.69282891346E+02  0.49832355187E+03  0.52091975012E+03  0.00000000000E+00 0.  1.
         13    1    5    5    0    0 -0.54929261696E+02  0.10001847325E+03  0.86373223847E+03  0.87123722289E+03  0.00000000000E+00 0. -1.
        -14    1    5    5    0    0 -0.40775894210E+02  0.10334754460E+03  0.41637662922E+03  0.43094417954E+03  0.00000000000E+00 0.  1.
          2    1    6    6  502    0  0.21699544512E+03 -0.78950057039E+02  0.45320006061E+03  0.50863585171E+03  0.00000000000E+00 0. -1.
         -1    1    6    6    0  502  0.53276555156E+02 -0.55354077301E+02  0.92640210046E+02  0.12035229005E+03  0.00000000000E+00 0.  1.
<mgrwt>
<rscale>  0 0.36212721E+03</rscale>
<asrwt>0</asrwt>
<pdfrwt beam="1">  1        1 0.41476496E+00 0.36212721E+03</pdfrwt>
<pdfrwt beam="2">  1       -2 0.10027467E-01 0.36212721E+03</pdfrwt>
<totfact> 0.66421079E+01</totfact>
</mgrwt>
</event>
<event>
12    3  0.2269558E-007  0.1275590E+04  0.7818608E-02  0.9049150E-01
         -2   -1    0    0    0  501 -0.00000000000E+00  0.00000000000E+00  0.11053116978E+04  0.11053116978E+04  0.00000000000E+00 0.  1.
          1   -1    0    0  501    0  0.00000000000E+00 -0.00000000000E+00 -0.15240700907E+04  0.15240700907E+04  0.00000000000E+00 0. -1.
        -24    2    1    2    0    0  0.12125724189E+04  0.17630742034E+03 -0.12318626081E+03  0.12334262486E+04  0.68915007686E+02 0.  0.
    5000000    2    1    2    0    0 -0.12125724189E+04 -0.17630742034E+03 -0.29557213204E+03  0.13959555399E+04  0.59992733446E+03 0.  0.
        -24    2    4    4    0    0 -0.15394807184E+03 -0.20234331292E+03 -0.19372793022E+03  0.32922116732E+03  0.78824114062E+02 0.  0.
         24    2    4    4    0    0 -0.10586243471E+04  0.26035892573E+02 -0.10184420182E+03  0.10667343726E+04  0.78654970097E+02 0.  0.
         11    1    5    5    0    0 -0.28168387370E+02 -0.92158622190E+02 -0.49192093679E+02  0.10819672718E+03  0.00000000000E+00 0. -1.
        -12    1    5    5    0    0 -0.12577968447E+03 -0.11018469073E+03 -0.14453583655E+03  0.22102444014E+03  0.00000000000E+00 0.  1.
         13    1    3    3    0    0  0.90401675037E+03  0.16118157438E+03 -0.97461070755E+02  0.92343080151E+03  0.00000000000E+00 0. -1.
        -14    1    3    3    0    0  0.30855566856E+03  0.15125845965E+02 -0.25725190060E+02  0.30999544710E+03  0.00000000000E+00 0.  1.
          2    1    6    6  502    0 -0.49061562570E+03  0.39740443778E+02 -0.75221040717E+02  0.49793694382E+03  0.00000000000E+00 0. -1.
         -1    1    6    6    0  502 -0.56800872139E+03 -0.13704551205E+02 -0.26623161103E+02  0.56879742880E+03  0.00000000000E+00 0.  1.
<mgrwt>
<rscale>  0 0.12755897E+04</rscale>
<asrwt>0</asrwt>
<pdfrwt beam="1">  1        1 0.23447232E+00 0.12755897E+04</pdfrwt>
<pdfrwt beam="2">  1       -2 0.17004795E+00 0.12755897E+04</pdfrwt>
<totfact> 0.11367931E+00</totfact>
</mgrwt>
</event>
<event>
12    3  0.2269558E-007  0.7668840E+03  0.7818608E-02  0.9609228E-01
          1   -1    0    0  501    0  0.00000000000E+00  0.00000000000E+00  0.15620655245E+04  0.15620655245E+04  0.00000000000E+00 0. -1.
         -2   -1    0    0    0  501 -0.00000000000E+00 -0.00000000000E+00 -0.43783165387E+03  0.43783165387E+03  0.00000000000E+00 0.  1.
        -24    2    1    2    0    0 -0.30772460025E+03  0.63614097285E+03  0.62598332098E+03  0.94738461185E+03  0.79452612772E+02 0.  0.
    5000000    2    1    2    0    0  0.30772460025E+03 -0.63614097285E+03  0.49825054962E+03  0.10525125665E+04  0.60013275656E+03 0.  0.
        -24    2    4    4    0    0  0.22563799960E+03 -0.68120719679E+03  0.23066943405E+03  0.75757342587E+03  0.75850879787E+02 0.  0.
         24    2    4    4    0    0  0.82086600654E+02  0.45066223939E+02  0.26758111557E+03  0.29493914062E+03  0.81365033726E+02 0.  0.
         13    1    5    5    0    0  0.58027611286E+02 -0.29268287702E+03  0.10114517162E+03  0.31505684553E+03  0.00000000000E+00 0. -1.
        -14    1    5    5    0    0  0.16761038831E+03 -0.38852431977E+03  0.12952426242E+03  0.44251658034E+03  0.00000000000E+00 0.  1.
         13    1    3    3    0    0 -0.14961816208E+03  0.39706686679E+03  0.36348273031E+03  0.55871941649E+03  0.00000000000E+00 0. -1.
        -14    1    3    3    0    0 -0.15810643817E+03  0.23907410606E+03  0.26250059067E+03  0.38866519536E+03  0.00000000000E+00 0.  1.
          2    1    6    6  502    0  0.76139153970E+02  0.24632267474E+02  0.11055993414E+03  0.13648230070E+03  0.00000000000E+00 0. -1.
         -1    1    6    6    0  502  0.59474466845E+01  0.20433956466E+02  0.15702118143E+03  0.15845683992E+03  0.00000000000E+00 0.  1.
<mgrwt>
<rscale>  0 0.76688404E+03</rscale>
<asrwt>0</asrwt>
<pdfrwt beam="1">  1        1 0.24031777E+00 0.76688404E+03</pdfrwt>
<pdfrwt beam="2">  1       -2 0.67358717E-01 0.76688404E+03</pdfrwt>
<totfact> 0.10836850E+01</totfact>
</mgrwt>
</event>
<event>
12    3  0.2269558E-007  0.6559406E+03  0.7818608E-02  0.9795695E-01
          1   -1    0    0  501    0  0.00000000000E+00  0.00000000000E+00  0.39002259615E+04  0.39002259615E+04  0.00000000000E+00 0. -1.
         -2   -1    0    0    0  501 -0.00000000000E+00 -0.00000000000E+00 -0.12944070398E+03  0.12944070398E+03  0.00000000000E+00 0.  1.
        -24    2    1    2    0    0 -0.47290828917E+03 -0.23482898895E+03  0.22402919392E+04  0.23030878960E+04  0.80740199320E+02 0.  0.
    5000000    2    1    2    0    0  0.47290828917E+03  0.23482898895E+03  0.15304933183E+04  0.17265787694E+04  0.59989794615E+03 0.  0.
        -24    2    4    4    0    0 -0.12547265394E+03  0.75822032082E+02  0.22808628736E+03  0.28244898832E+03  0.79130961628E+02 0.  0.
         24    2    4    4    0    0  0.59838094311E+03  0.15900695687E+03  0.13024070309E+04  0.14441297811E+04  0.76836092684E+02 0.  0.
         11    1    3    3    0    0 -0.25837493383E+03 -0.16030457373E+03  0.11606914312E+04  0.11998582255E+04  0.00000000000E+00 0. -1.
        -12    1    3    3    0    0 -0.21453335534E+03 -0.74524415222E+02  0.10796005080E+04  0.11032296705E+04  0.00000000000E+00 0.  1.
         11    1    5    5    0    0 -0.10350918163E+03  0.31940820129E+02  0.10911235555E+03  0.15375263512E+03  0.00000000000E+00 0. -1.
        -12    1    5    5    0    0 -0.21963472307E+02  0.43881211952E+02  0.11897393180E+03  0.12869635320E+03  0.00000000000E+00 0.  1.
          2    1    6    6  502    0  0.83722526917E+02 -0.29418843186E+01  0.15459429343E+03  0.17583376171E+03  0.00000000000E+00 0. -1.
         -1    1    6    6    0  502  0.51465841619E+03  0.16194884118E+03  0.11478127375E+04  0.12682960194E+04  0.00000000000E+00 0.  1.
<mgrwt>
<rscale>  0 0.65594060E+03</rscale>
<asrwt>0</asrwt>
<pdfrwt beam="1">  1        1 0.60003467E+00 0.65594060E+03</pdfrwt>
<pdfrwt beam="2">  1       -2 0.19913957E-01 0.65594060E+03</pdfrwt>
<totfact> 0.24738274E+00</totfact>
</mgrwt>
</event>
<event>
12    3  0.2269558E-007  0.3401001E+03  0.7818608E-02  0.1066753E+00
         -2   -1    0    0    0  501 -0.00000000000E+00  0.00000000000E+00  0.10587977268E+03  0.10587977268E+03  0.00000000000E+00 0.  1.
          1   -1    0    0  501    0  0.00000000000E+00 -0.00000000000E+00 -0.40195587566E+04  0.40195587566E+04  0.00000000000E+00 0. -1.
        -24    2    1    2    0    0  0.20152697500E+03 -0.21712724012E+03 -0.28646997725E+04  0.28810969377E+04  0.80358059283E+02 0.  0.
    5000000    2    1    2    0    0 -0.20152697500E+03  0.21712724012E+03 -0.10489792114E+04  0.12443415916E+04  0.60022599955E+03 0.  0.
        -24    2    4    4    0    0 -0.14043913785E+03  0.15040177177E+02 -0.10005043267E+04  0.10135463442E+04  0.79485380772E+02 0.  0.
         24    2    4    4    0    0 -0.61087837151E+02  0.20208706295E+03 -0.48474884718E+02  0.23079524738E+03  0.79660070969E+02 0.  0.
         11    1    3    3    0    0  0.15406121222E+03 -0.20752272583E+03 -0.24327782955E+04  0.24464690421E+04  0.00000000000E+00 0. -1.
        -12    1    3    3    0    0  0.47465762790E+02 -0.96045142909E+01 -0.43192147697E+03  0.43462789556E+03  0.00000000000E+00 0.  1.
         13    1    5    5    0    0 -0.49658041656E+02  0.40642086857E+02 -0.51332123419E+03  0.51731652766E+03  0.00000000000E+00 0. -1.
        -14    1    5    5    0    0 -0.90781096198E+02 -0.25601909680E+02 -0.48718309253E+03  0.49622981657E+03  0.00000000000E+00 0.  1.
          2    1    6    6  502    0 -0.57080937141E+01  0.86144169611E+02 -0.54616625197E+02  0.10215858280E+03  0.00000000000E+00 0. -1.
         -1    1    6    6    0  502 -0.55379743437E+02  0.11594289334E+03  0.61417404793E+01  0.12863666458E+03  0.00000000000E+00 0.  1.
<mgrwt>
<rscale>  0 0.34010011E+03</rscale>
<asrwt>0</asrwt>
<pdfrwt beam="1">  1        1 0.61839348E+00 0.34010011E+03</pdfrwt>
<pdfrwt beam="2">  1       -2 0.16289200E-01 0.34010011E+03</pdfrwt>
<totfact> 0.30670654E+00</totfact>
</mgrwt>
</event>
<event>
12    3  0.2269558E-007  0.4705679E+03  0.7818608E-02  0.1021760E+00
         -2   -1    0    0    0  501 -0.00000000000E+00  0.00000000000E+00  0.11188358599E+04  0.11188358599E+04  0.00000000000E+00 0.  1.
          1   -1    0    0  501    0  0.00000000000E+00 -0.00000000000E+00 -0.40055719085E+03  0.40055719085E+03  0.00000000000E+00 0. -1.
        -24    2    1    2    0    0  0.18204647058E+03  0.42088230813E+03  0.59314209129E+03  0.75385855582E+03  0.78754980658E+02 0.  0.
    5000000    2    1    2    0    0 -0.18204647058E+03 -0.42088230813E+03  0.12513657780E+03  0.76553449497E+03  0.60008421504E+03 0.  0.
        -24    2    4    4    0    0 -0.16173403461E+03 -0.36581732689E+03  0.33855595271E+03  0.52984153008E+03  0.78305167619E+02 0.  0.
         24    2    4    4    0    0 -0.20312435970E+02 -0.55064981242E+02 -0.21341937492E+03  0.23569296489E+03  0.80985164665E+02 0.  0.
         11    1    3    3    0    0  0.30200789909E+02  0.16478679531E+03  0.21021791241E+03  0.26880912618E+03  0.00000000000E+00 0. -1.
        -12    1    3    3    0    0  0.15184568067E+03  0.25609551282E+03  0.38292417888E+03  0.48504942964E+03  0.00000000000E+00 0.  1.
         13    1    5    5    0    0 -0.82377823312E+01 -0.65338397552E+02  0.86292542536E+02  0.10855123283E+03  0.00000000000E+00 0. -1.
        -14    1    5    5    0    0 -0.15349625228E+03 -0.30047892934E+03  0.25226341018E+03  0.42129029725E+03  0.00000000000E+00 0.  1.
          2    1    6    6  502    0  0.12218284978E+02 -0.56911452298E+01 -0.14347025254E+03  0.14410200895E+03  0.00000000000E+00 0. -1.
         -1    1    6    6    0  502 -0.32530720948E+02 -0.49373836013E+02 -0.69949122383E+02  0.91590955941E+02  0.00000000000E+00 0.  1.
<mgrwt>
<rscale>  0 0.47056789E+03</rscale>
<asrwt>0</asrwt>
<pdfrwt beam="1">  1        1 0.61624184E-01 0.47056789E+03</pdfrwt>
<pdfrwt beam="2">  1       -2 0.17212859E+00 0.47056789E+03</pdfrwt>
<totfact> 0.11377427E+01</totfact>
</mgrwt>
</event>
<event>
12    3  0.2269558E-007  0.5375832E+03  0.7818608E-02  0.1004409E+00
          1   -1    0    0  501    0  0.00000000000E+00  0.00000000000E+00  0.15458381916E+04  0.15458381916E+04  0.00000000000E+00 0. -1.
         -2   -1    0    0    0  501 -0.00000000000E+00 -0.00000000000E+00 -0.32655467621E+03  0.32655467621E+03  0.00000000000E+00 0.  1.
        -24    2    1    2    0    0  0.37757850547E+03 -0.18186742434E+03  0.10324578044E+04  0.11171236425E+04  0.79717168659E+02 0.  0.
    5000000    2    1    2    0    0 -0.37757850547E+03  0.18186742434E+03  0.18682571101E+03  0.75526922530E+03  0.59990538301E+03 0.  0.
        -24    2    4    4    0    0 -0.66783552756E+02 -0.17128684794E+03 -0.68710451985E+02  0.21427112594E+03  0.85975356960E+02 0.  0.
         24    2    4    4    0    0 -0.31079495272E+03  0.35315427228E+03  0.25553616299E+03  0.54099809936E+03  0.77902312255E+02 0.  0.
         11    1    5    5    0    0 -0.36481288703E+02 -0.60762071245E+02  0.14884735533E+02  0.72418706695E+02  0.00000000000E+00 0. -1.
        -12    1    5    5    0    0 -0.30302264053E+02 -0.11052477669E+03 -0.83595187517E+02  0.14185241924E+03  0.00000000000E+00 0.  1.
         13    1    3    3    0    0  0.25385564328E+03 -0.12519535911E+03  0.59320790488E+03  0.65727633761E+03  0.00000000000E+00 0. -1.
        -14    1    3    3    0    0  0.12372286219E+03 -0.56672065228E+02  0.43924989947E+03  0.45984730487E+03  0.00000000000E+00 0.  1.
          4    1    6    6  502    0 -0.94958121635E+02  0.11536894455E+03  0.12320876540E+03  0.19366837146E+03  0.00000000000E+00 0. -1.
         -3    1    6    6    0  502 -0.21583683108E+03  0.23778532773E+03  0.13232739759E+03  0.34732972790E+03  0.00000000000E+00 0.  1.
<mgrwt>
<rscale>  0 0.53758318E+03</rscale>
<asrwt>0</asrwt>
<pdfrwt beam="1">  1        1 0.23782126E+00 0.53758318E+03</pdfrwt>
<pdfrwt beam="2">  1       -2 0.50239182E-01 0.53758318E+03</pdfrwt>
<totfact> 0.21260737E+01</totfact>
</mgrwt>
</event>
<event>
12    3  0.2269558E-007  0.6864038E+03  0.7818608E-02  0.9740770E-01
          1   -1    0    0  501    0  0.00000000000E+00  0.00000000000E+00  0.34967145112E+03  0.34967145112E+03  0.00000000000E+00 0. -1.
         -2   -1    0    0    0  501 -0.00000000000E+00 -0.00000000000E+00 -0.19706646694E+04  0.19706646694E+04  0.00000000000E+00 0.  1.
        -24    2    1    2    0    0  0.58588364351E+03 -0.16474621094E+03 -0.17103422150E+03  0.63723199072E+03  0.80068391555E+02 0.  0.
    5000000    2    1    2    0    0 -0.58588364351E+03  0.16474621094E+03 -0.14499589968E+04  0.16831041298E+04  0.60004788280E+03 0.  0.
        -24    2    4    4    0    0  0.25742309413E+02  0.13594450642E+03 -0.66315739912E+03  0.68291293233E+03  0.86306209618E+02 0.  0.
         24    2    4    4    0    0 -0.61162595292E+03  0.28801704517E+02 -0.78680159771E+03  0.10001911975E+04  0.80061432323E+02 0.  0.
         11    1    3    3    0    0  0.42563294088E+03 -0.89797289821E+02 -0.14430320962E+03  0.45831252430E+03  0.00000000000E+00 0. -1.
        -12    1    3    3    0    0  0.16025070262E+03 -0.74948921118E+02 -0.26731011883E+02  0.17891946642E+03  0.00000000000E+00 0.  1.
         13    1    5    5    0    0  0.18357912931E+02  0.13783559430E+03 -0.48361618734E+03  0.50320997673E+03  0.00000000000E+00 0. -1.
        -14    1    5    5    0    0  0.73843964829E+01 -0.18910878783E+01 -0.17954121177E+03  0.17970295560E+03  0.00000000000E+00 0.  1.
          4    1    6    6  502    0 -0.42287032601E+03  0.42301269368E+02 -0.59048478159E+03  0.72751700138E+03  0.00000000000E+00 0. -1.
         -3    1    6    6    0  502 -0.18875562691E+03 -0.13499564851E+02 -0.19631681611E+03  0.27267419612E+03  0.00000000000E+00 0.  1.
<mgrwt>
<rscale>  0 0.68640381E+03</rscale>
<asrwt>0</asrwt>
<pdfrwt beam="1">  1        1 0.53795607E-01 0.68640381E+03</pdfrwt>
<pdfrwt beam="2">  1       -2 0.30317918E+00 0.68640381E+03</pdfrwt>
<totfact> 0.20127008E+00</totfact>
</mgrwt>
</event>
<event>
12    3  0.2269558E-007  0.3173370E+03  0.7818608E-02  0.1076881E+00
          1   -1    0    0  501    0  0.00000000000E+00  0.00000000000E+00  0.65657885739E+03  0.65657885739E+03  0.00000000000E+00 0. -1.
         -2   -1    0    0    0  501 -0.00000000000E+00 -0.00000000000E+00 -0.19564350133E+03  0.19564350133E+03  0.00000000000E+00 0.  1.
        -24    2    1    2    0    0  0.35755527910E+01 -0.75071607425E+02  0.61094822271E+02  0.12691043211E+03  0.82007009773E+02 0.  0.
    5000000    2    1    2    0    0 -0.35755527910E+01  0.75071607425E+02  0.39984053379E+03  0.72531192661E+03  0.60046349397E+03 0.  0.
        -24    2    4    4    0    0  0.60845037258E+02 -0.21057349355E+03  0.12881452930E+02  0.23298726588E+03  0.77934712970E+02 0.  0.
         24    2    4    4    0    0 -0.64420590049E+02  0.28564510098E+03  0.38695908086E+03  0.49232466073E+03  0.83084927402E+02 0.  0.
         11    1    3    3    0    0 -0.57237873651E+01 -0.91034089621E+02  0.58229753918E+02  0.10821585585E+03  0.00000000000E+00 0. -1.
        -12    1    3    3    0    0  0.92993401562E+01  0.15962482196E+02  0.28650683531E+01  0.18694576269E+02  0.00000000000E+00 0.  1.
         13    1    5    5    0    0  0.59072754177E+02 -0.10890567797E+03 -0.21299402823E+02  0.12571277397E+03  0.00000000000E+00 0. -1.
        -14    1    5    5    0    0  0.17722830813E+01 -0.10166781559E+03  0.34180855753E+02  0.10727449191E+03  0.00000000000E+00 0.  1.
          4    1    6    6  502    0 -0.70468735109E+02  0.17581804439E+03  0.20036933201E+03  0.27572757673E+03  0.00000000000E+00 0. -1.
         -3    1    6    6    0  502  0.60481450597E+01  0.10982705659E+03  0.18658974885E+03  0.21659708399E+03  0.00000000000E+00 0.  1.
<mgrwt>
<rscale>  0 0.31733700E+03</rscale>
<asrwt>0</asrwt>
<pdfrwt beam="1">  1        1 0.10101213E+00 0.31733700E+03</pdfrwt>
<pdfrwt beam="2">  1       -2 0.30099001E-01 0.31733700E+03</pdfrwt>
<totfact> 0.27742398E+02</totfact>
</mgrwt>
</event>
<event>
12    3  0.2269558E-007  0.9273205E+03  0.7818608E-02  0.9392059E-01
          1   -1    0    0  501    0  0.00000000000E+00  0.00000000000E+00  0.57133784745E+03  0.57133784745E+03  0.00000000000E+00 0. -1.
         -2   -1    0    0    0  501 -0.00000000000E+00 -0.00000000000E+00 -0.18210767335E+04  0.18210767335E+04  0.00000000000E+00 0.  1.
        -24    2    1    2    0    0 -0.18081670109E+03  0.90364357066E+03 -0.42500545710E+03  0.10178877722E+04  0.78736878673E+02 0.  0.
    5000000    2    1    2    0    0  0.18081670109E+03 -0.90364357066E+03 -0.82473342893E+03  0.13745268087E+04  0.59989360467E+03 0.  0.
        -24    2    4    4    0    0  0.15930476526E+03 -0.63783110212E+03 -0.20183587873E+03  0.69237091387E+03  0.80207464488E+02 0.  0.
         24    2    4    4    0    0  0.21511935830E+02 -0.26581246854E+03 -0.62289755020E+03  0.68215589486E+03  0.78843357545E+02 0.  0.
         11    1    5    5    0    0  0.51235310386E+02 -0.36376526351E+03 -0.10097623097E+03  0.38098086984E+03  0.00000000000E+00 0. -1.
        -12    1    5    5    0    0  0.10806945488E+03 -0.27406583861E+03 -0.10085964776E+03  0.31139004402E+03  0.00000000000E+00 0.  1.
         13    1    3    3    0    0 -0.49762910229E+02  0.11296136080E+03 -0.55307418313E+02  0.13526095811E+03  0.00000000000E+00 0. -1.
        -14    1    3    3    0    0 -0.13105379086E+03  0.79068220985E+03 -0.36969803878E+03  0.88262681409E+03  0.00000000000E+00 0.  1.
          4    1    6    6  502    0  0.26894063853E+02 -0.21355489857E+03 -0.41227099546E+03  0.46507672386E+03  0.00000000000E+00 0. -1.
         -3    1    6    6    0  502 -0.53821280228E+01 -0.52257569964E+02 -0.21062655474E+03  0.21707917100E+03  0.00000000000E+00 0.  1.
<mgrwt>
<rscale>  0 0.92732047E+03</rscale>
<asrwt>0</asrwt>
<pdfrwt beam="1">  1        1 0.87898131E-01 0.92732047E+03</pdfrwt>
<pdfrwt beam="2">  1       -2 0.28016565E+00 0.92732047E+03</pdfrwt>
<totfact> 0.13737639E+00</totfact>
</mgrwt>
</event>
<event>
12    3  0.2269558E-007  0.1114202E+04  0.7818608E-02  0.9191459E-01
         -4   -1    0    0    0  501 -0.00000000000E+00  0.00000000000E+00  0.19343170660E+04  0.19343170660E+04  0.00000000000E+00 0.  1.
          3   -1    0    0  501    0  0.00000000000E+00 -0.00000000000E+00 -0.70533656742E+03  0.70533656742E+03  0.00000000000E+00 0. -1.
        -24    2    1    2    0    0 -0.37093970054E+03 -0.10220410258E+04  0.65009632100E+03  0.12695289361E+04  0.83152709682E+02 0.  0.
    5000000    2    1    2    0    0  0.37093970054E+03  0.10220410258E+04  0.57888417756E+03  0.13701246973E+04  0.59997556236E+03 0.  0.
        -24    2    4    4    0    0  0.83214702561E+02  0.68608096346E+03  0.82935791579E+02  0.70071222710E+03  0.80545046601E+02 0.  0.
         24    2    4    4    0    0  0.28772499798E+03  0.33596006231E+03  0.49594838598E+03  0.66941247025E+03  0.80581733846E+02 0.  0.
         11    1    5    5    0    0  0.25336073925E+01  0.31778820568E+03  0.19592645609E+02  0.31840168749E+03  0.00000000000E+00 0. -1.
        -12    1    5    5    0    0  0.80681095169E+02  0.36829275778E+03  0.63343145970E+02  0.38231053961E+03  0.00000000000E+00 0.  1.
         13    1    3    3    0    0 -0.15866844855E+03 -0.47074333632E+03  0.25076273071E+03  0.55646824920E+03  0.00000000000E+00 0. -1.
        -14    1    3    3    0    0 -0.21227125199E+03 -0.55129768945E+03  0.39933359029E+03  0.71306068686E+03  0.00000000000E+00 0.  1.
          2    1    6    6  502    0  0.23901792597E+03  0.30812611196E+03  0.45876126385E+03  0.60210727201E+03  0.00000000000E+00 0. -1.
         -1    1    6    6    0  502  0.48707072014E+02  0.27833950352E+02  0.37187122137E+02  0.67305198233E+02  0.00000000000E+00 0.  1.
<mgrwt>
<rscale>  0 0.11142019E+04</rscale>
<asrwt>0</asrwt>
<pdfrwt beam="1">  1        3 0.10851332E+00 0.11142019E+04</pdfrwt>
<pdfrwt beam="2">  1       -4 0.29758724E+00 0.11142019E+04</pdfrwt>
<totfact> 0.51088970E-02</totfact>
</mgrwt>
</event>
<event>
12    3  0.2269558E-007  0.7260462E+03  0.7818608E-02  0.9673698E-01
          1   -1    0    0  501    0  0.00000000000E+00  0.00000000000E+00  0.85143863516E+03  0.85143863516E+03  0.00000000000E+00 0. -1.
         -2   -1    0    0    0  501 -0.00000000000E+00 -0.00000000000E+00 -0.76625580694E+03  0.76625580694E+03  0.00000000000E+00 0.  1.
        -24    2    1    2    0    0 -0.66662098191E+03 -0.18492633450E+03  0.98140346943E+02  0.70184511679E+03  0.66134390035E+02 0.  0.
    5000000    2    1    2    0    0  0.66662098191E+03  0.18492633450E+03 -0.12957518725E+02  0.91584932531E+03  0.60002567167E+03 0.  0.
        -24    2    4    4    0    0  0.14138429438E+02  0.49235776386E+02  0.19153349407E+03  0.21423647329E+03  0.81167298074E+02 0.  0.
         24    2    4    4    0    0  0.65248255248E+03  0.13569055812E+03 -0.20449101279E+03  0.70161285202E+03  0.79363788696E+02 0.  0.
         13    1    5    5    0    0 -0.16972124012E+02 -0.12084955201E+02  0.17845716043E+02  0.27432985925E+02  0.00000000000E+00 0. -1.
        -14    1    5    5    0    0  0.31110553451E+02  0.61320731587E+02  0.17368777802E+03  0.18680348737E+03  0.00000000000E+00 0.  1.
         13    1    3    3    0    0 -0.38189290082E+03 -0.95365357106E+02  0.87199418694E+02  0.40316309063E+03  0.00000000000E+00 0. -1.
        -14    1    3    3    0    0 -0.28472808110E+03 -0.89560977398E+02  0.10940928248E+02  0.29868202616E+03  0.00000000000E+00 0.  1.
          2    1    6    6  502    0  0.37779063037E+03  0.41783026941E+02 -0.99404827013E+02  0.39287771808E+03  0.00000000000E+00 0. -1.
         -1    1    6    6    0  502  0.27469192211E+03  0.93907531176E+02 -0.10508618578E+03  0.30873513393E+03  0.00000000000E+00 0.  1.
<mgrwt>
<rscale>  0 0.72604616E+03</rscale>
<asrwt>0</asrwt>
<pdfrwt beam="1">  1        1 0.13099056E+00 0.72604616E+03</pdfrwt>
<pdfrwt beam="2">  1       -2 0.11788551E+00 0.72604616E+03</pdfrwt>
<totfact> 0.99557771E+00</totfact>
</mgrwt>
</event>
<event>
12    3  0.2269558E-007  0.7241641E+03  0.7818608E-02  0.9676778E-01
          1   -1    0    0  501    0  0.00000000000E+00  0.00000000000E+00  0.24458895578E+03  0.24458895578E+03  0.00000000000E+00 0. -1.
         -2   -1    0    0    0  501 -0.00000000000E+00 -0.00000000000E+00 -0.24632610385E+04  0.24632610385E+04  0.00000000000E+00 0.  1.
        -24    2    1    2    0    0  0.56176753728E+03  0.27171852213E+03 -0.13074364253E+04  0.14509384472E+04  0.80116478476E+02 0.  0.
    5000000    2    1    2    0    0 -0.56176753728E+03 -0.27171852213E+03 -0.91123565738E+03  0.12569115470E+04  0.60005207490E+03 0.  0.
        -24    2    4    4    0    0  0.10560420399E+03 -0.27937640139E+02 -0.66965680873E+02  0.15064484263E+03  0.79225668568E+02 0.  0.
         24    2    4    4    0    0 -0.66737174127E+03 -0.24378088199E+03 -0.84426997651E+03  0.11062667044E+04  0.78867411418E+02 0.  0.
         11    1    5    5    0    0  0.74524177554E+02 -0.99925015324E+01 -0.82424494718E+02  0.11156836674E+03  0.00000000000E+00 0. -1.
        -12    1    5    5    0    0  0.31080026434E+02 -0.17945138607E+02  0.15458813845E+02  0.39076475894E+02  0.00000000000E+00 0.  1.
         13    1    3    3    0    0  0.42541655149E+03  0.22710045507E+03 -0.93987469077E+03  0.10563703391E+04  0.00000000000E+00 0. -1.
        -14    1    3    3    0    0  0.13635098580E+03  0.44618067066E+02 -0.36756173452E+03  0.39456810809E+03  0.00000000000E+00 0.  1.
          2    1    6    6  502    0 -0.32282876527E+03 -0.13841028602E+03 -0.47007802938E+03  0.58681272368E+03  0.00000000000E+00 0. -1.
         -1    1    6    6    0  502 -0.34454297600E+03 -0.10537059597E+03 -0.37419194713E+03  0.51945398074E+03  0.00000000000E+00 0.  1.
<mgrwt>
<rscale>  0 0.72416406E+03</rscale>
<asrwt>0</asrwt>
<pdfrwt beam="1">  1        1 0.37629070E-01 0.72416406E+03</pdfrwt>
<pdfrwt beam="2">  1       -2 0.37896323E+00 0.72416406E+03</pdfrwt>
<totfact> 0.10832361E+00</totfact>
</mgrwt>
</event>
<event>
12    3  0.2269558E-007  0.9126905E+03  0.7818608E-02  0.9409855E-01
          1   -1    0    0  501    0  0.00000000000E+00  0.00000000000E+00  0.22053481030E+04  0.22053481030E+04  0.00000000000E+00 0. -1.
         -2   -1    0    0    0  501 -0.00000000000E+00 -0.00000000000E+00 -0.58143408902E+03  0.58143408902E+03  0.00000000000E+00 0.  1.
        -24    2    1    2    0    0  0.18411145967E+03  0.79877774166E+03  0.15660521932E+04  0.17692900417E+04  0.76973175862E+02 0.  0.
    5000000    2    1    2    0    0 -0.18411145967E+03 -0.79877774166E+03  0.57861820819E+02  0.10174921503E+04  0.59999947958E+03 0.  0.
        -24    2    4    4    0    0  0.19234013805E+03 -0.43457416956E+03  0.56825271973E+02  0.48713430292E+03  0.90671274321E+02 0.  0.
         24    2    4    4    0    0 -0.37645159772E+03 -0.36420357210E+03  0.10365488459E+01  0.53035784740E+03  0.83176466112E+02 0.  0.
         11    1    3    3    0    0  0.46965857929E+02  0.21216314259E+03  0.34535715376E+03  0.40803254102E+03  0.00000000000E+00 0. -1.
        -12    1    3    3    0    0  0.13714560174E+03  0.58661459908E+03  0.12206950394E+04  0.13612575007E+04  0.00000000000E+00 0.  1.
         13    1    5    5    0    0  0.15483868261E+03 -0.32692165791E+03  0.46538662849E+01  0.36176573430E+03  0.00000000000E+00 0. -1.
        -14    1    5    5    0    0  0.37501455442E+02 -0.10765251165E+03  0.52171405688E+02  0.12536856861E+03  0.00000000000E+00 0.  1.
          4    1    6    6  502    0 -0.19349167996E+03 -0.24223688568E+03 -0.10053367514E+02  0.31019156855E+03  0.00000000000E+00 0. -1.
         -3    1    6    6    0  502 -0.18295991775E+03 -0.12196668642E+03  0.11089916360E+02  0.22016627886E+03  0.00000000000E+00 0.  1.
<mgrwt>
<rscale>  0 0.91269053E+03</rscale>
<asrwt>0</asrwt>
<pdfrwt beam="1">  1        1 0.33928432E+00 0.91269053E+03</pdfrwt>
<pdfrwt beam="2">  1       -2 0.89451399E-01 0.91269053E+03</pdfrwt>
<totfact> 0.20772550E+00</totfact>
</mgrwt>
</event>
<event>
12    3  0.2269558E-007  0.6342287E+03  0.7818608E-02  0.9836831E-01
         -4   -1    0    0    0  501 -0.00000000000E+00  0.00000000000E+00  0.11529099576E+04  0.11529099576E+04  0.00000000000E+00 0.  1.
          1   -1    0    0  501    0  0.00000000000E+00 -0.00000000000E+00 -0.36313739867E+03  0.36313739867E+03  0.00000000000E+00 0. -1.
        -24    2    1    2    0    0 -0.36506968004E+03  0.33575644808E+03  0.41762664497E+03  0.65316745377E+03  0.78787336345E+02 0.  0.
    5000000    2    1    2    0    0  0.36506968004E+03 -0.33575644808E+03  0.37214591397E+03  0.86287990250E+03  0.60005073215E+03 0.  0.
        -24    2    4    4    0    0  0.23793654041E+02 -0.41260754116E+03  0.22451028657E+03  0.47701711337E+03  0.79557128424E+02 0.  0.
         24    2    4    4    0    0  0.34127602599E+03  0.76851093075E+02  0.14763562740E+03  0.38586278913E+03  0.68690589855E+02 0.  0.
         11    1    5    5    0    0  0.51934960184E+02 -0.21880742161E+03  0.11341104237E+03  0.25186502808E+03  0.00000000000E+00 0. -1.
        -12    1    5    5    0    0 -0.28141306143E+02 -0.19380011955E+03  0.11109924420E+03  0.22515208529E+03  0.00000000000E+00 0.  1.
         13    1    3    3    0    0 -0.12528024667E+03  0.14158443076E+03  0.20246286065E+03  0.27700631975E+03  0.00000000000E+00 0. -1.
        -14    1    3    3    0    0 -0.23978943337E+03  0.19417201732E+03  0.21516378432E+03  0.37616113402E+03  0.00000000000E+00 0.  1.
          2    1    6    6  502    0  0.28866820169E+03  0.70453034472E+02  0.97019919770E+02  0.31257931084E+03  0.00000000000E+00 0. -1.
         -1    1    6    6    0  502  0.52607824305E+02  0.63980586029E+01  0.50615707628E+02  0.73283478293E+02  0.00000000000E+00 0.  1.
<mgrwt>
<rscale>  0 0.63422868E+03</rscale>
<asrwt>0</asrwt>
<pdfrwt beam="1">  1        1 0.55867293E-01 0.63422868E+03</pdfrwt>
<pdfrwt beam="2">  1       -4 0.17737076E+00 0.63422868E+03</pdfrwt>
<totfact> 0.61841527E+00</totfact>
</mgrwt>
</event>
<event>
12    3  0.2269558E-007  0.9847090E+03  0.7818608E-02  0.9325476E-01
         -2   -1    0    0    0  501 -0.00000000000E+00  0.00000000000E+00  0.10803706979E+04  0.10803706979E+04  0.00000000000E+00 0.  1.
          1   -1    0    0  501    0  0.00000000000E+00 -0.00000000000E+00 -0.97562773888E+03  0.97562773888E+03  0.00000000000E+00 0. -1.
        -24    2    1    2    0    0  0.95123458643E+02  0.92874881837E+03 -0.33581018477E+02  0.93760762072E+03  0.79734093257E+02 0.  0.
    5000000    2    1    2    0    0 -0.95123458643E+02 -0.92874881837E+03  0.13832397748E+03  0.11183908160E+04  0.60003471119E+03 0.  0.
        -24    2    4    4    0    0  0.14395064831E+03 -0.13038292715E+03 -0.12464446733E+03  0.24085326640E+03  0.68938783400E+02 0.  0.
         24    2    4    4    0    0 -0.23907410696E+03 -0.79836589122E+03  0.26296844481E+03  0.87753754964E+03  0.79844994707E+02 0.  0.
         11    1    3    3    0    0  0.13670042535E+02  0.41963348676E+03 -0.41976527019E+02  0.42194924113E+03  0.00000000000E+00 0. -1.
        -12    1    3    3    0    0  0.81453416109E+02  0.50911533161E+03  0.83955085420E+01  0.51565837959E+03  0.00000000000E+00 0.  1.
         13    1    5    5    0    0  0.13678064719E+03 -0.10874837302E+03 -0.12956459685E+03  0.21753652299E+03  0.00000000000E+00 0. -1.
        -14    1    5    5    0    0  0.71700011293E+01 -0.21634554130E+02  0.49201295197E+01  0.23316743407E+02  0.00000000000E+00 0.  1.
          2    1    6    6  502    0 -0.17073434683E+03 -0.66517213414E+03  0.20129215088E+03  0.71562749753E+03  0.00000000000E+00 0. -1.
         -1    1    6    6    0  502 -0.68339760123E+02 -0.13319375708E+03  0.61676293930E+02  0.16191005210E+03  0.00000000000E+00 0.  1.
<mgrwt>
<rscale>  0 0.98470905E+03</rscale>
<asrwt>0</asrwt>
<pdfrwt beam="1">  1        1 0.15009658E+00 0.98470905E+03</pdfrwt>
<pdfrwt beam="2">  1       -2 0.16621088E+00 0.98470905E+03</pdfrwt>
<totfact> 0.31374225E+00</totfact>
</mgrwt>
</event>
<event>
12    3  0.2269558E-007  0.4469619E+03  0.7818608E-02  0.1028632E+00
         -2   -1    0    0    0  501 -0.00000000000E+00  0.00000000000E+00  0.57190464305E+03  0.57190464305E+03  0.00000000000E+00 0.  1.
          1   -1    0    0  501    0  0.00000000000E+00 -0.00000000000E+00 -0.44819821960E+03  0.44819821960E+03  0.00000000000E+00 0. -1.
        -24    2    1    2    0    0  0.14262139268E+03 -0.27763606235E+03  0.12098547098E+03  0.34427357675E+03  0.80400041616E+02 0.  0.
    5000000    2    1    2    0    0 -0.14262139268E+03  0.27763606235E+03  0.27209524641E+01  0.67582928589E+03  0.59942904110E+03 0.  0.
        -24    2    4    4    0    0 -0.28697099114E+03  0.29948597479E+03  0.15525749677E+03  0.44981950022E+03  0.78666979224E+02 0.  0.
         24    2    4    4    0    0  0.14434959846E+03 -0.21849912435E+02 -0.15253654431E+03  0.22600978567E+03  0.80615138900E+02 0.  0.
         11    1    5    5    0    0 -0.54080551876E+02  0.95753504563E+02  0.63902584699E+02  0.12718875759E+03  0.00000000000E+00 0. -1.
        -12    1    5    5    0    0 -0.23289043927E+03  0.20373247023E+03  0.91354912075E+02  0.32263074262E+03  0.00000000000E+00 0.  1.
         13    1    3    3    0    0  0.61885478522E+02 -0.16779595323E+03  0.10403886191E+03  0.20690427536E+03  0.00000000000E+00 0. -1.
        -14    1    3    3    0    0  0.80735914160E+02 -0.10984010912E+03  0.16946609070E+02  0.13736930140E+03  0.00000000000E+00 0.  1.
          2    1    6    6  502    0  0.13617955871E+03 -0.15423103181E+00 -0.15014650907E+03  0.20270389780E+03  0.00000000000E+00 0. -1.
         -1    1    6    6    0  502  0.81700397551E+01 -0.21695681403E+02 -0.23900352410E+01  0.23305887874E+02  0.00000000000E+00 0.  1.
<mgrwt>
<rscale>  0 0.44696192E+03</rscale>
<asrwt>0</asrwt>
<pdfrwt beam="1">  1        1 0.68953572E-01 0.44696192E+03</pdfrwt>
<pdfrwt beam="2">  1       -2 0.87985330E-01 0.44696192E+03</pdfrwt>
<totfact> 0.52251119E+01</totfact>
</mgrwt>
</event>
<event>
12    3  0.2269558E-007  0.1232598E+04  0.7818608E-02  0.9084792E-01
         -2   -1    0    0    0  501 -0.00000000000E+00  0.00000000000E+00  0.31405820122E+04  0.31405820122E+04  0.00000000000E+00 0.  1.
          1   -1    0    0  501    0  0.00000000000E+00 -0.00000000000E+00 -0.54351121039E+03  0.54351121039E+03  0.00000000000E+00 0. -1.
        -24    2    1    2    0    0  0.42522405485E+03  0.10877573162E+04  0.66064411539E+03  0.13445166813E+04  0.85105718889E+02 0.  0.
    5000000    2    1    2    0    0 -0.42522405485E+03 -0.10877573162E+04  0.19364266865E+04  0.23395765413E+04  0.59986548877E+03 0.  0.
        -24    2    4    4    0    0 -0.54773605676E+03 -0.72737531124E+03  0.12172107443E+04  0.15218935110E+04  0.73947491242E+02 0.  0.
         24    2    4    4    0    0  0.12251200191E+03 -0.36038200499E+03  0.71921594211E+03  0.81768303025E+03  0.80309317288E+02 0.  0.
         11    1    5    5    0    0 -0.22333381525E+03 -0.24599653024E+03  0.41267111246E+03  0.52980159775E+03  0.00000000000E+00 0. -1.
        -12    1    5    5    0    0 -0.32440224151E+03 -0.48137878100E+03  0.80453963189E+03  0.99209191327E+03  0.00000000000E+00 0.  1.
         11    1    3    3    0    0  0.94657475658E+02  0.25912942387E+03  0.11600177143E+03  0.29927329815E+03  0.00000000000E+00 0. -1.
        -12    1    3    3    0    0  0.33056657919E+03  0.82862789236E+03  0.54464234396E+03  0.10452433832E+04  0.00000000000E+00 0.  1.
          2    1    6    6  502    0  0.56096204843E+02 -0.90162571023E+02  0.14639592645E+03  0.18085309146E+03  0.00000000000E+00 0. -1.
         -1    1    6    6    0  502  0.66415797066E+02 -0.27021943396E+03  0.57282001566E+03  0.63682993879E+03  0.00000000000E+00 0.  1.
<mgrwt>
<rscale>  0 0.12325984E+04</rscale>
<asrwt>0</asrwt>
<pdfrwt beam="1">  1        1 0.83617111E-01 0.12325984E+04</pdfrwt>
<pdfrwt beam="2">  1       -2 0.48316645E+00 0.12325984E+04</pdfrwt>
<totfact> 0.71750551E-02</totfact>
</mgrwt>
</event>
<event>
12    3  0.2269558E-007  0.1340960E+04  0.7818608E-02  0.8997700E-01
          1   -1    0    0  501    0  0.00000000000E+00  0.00000000000E+00  0.24151460669E+04  0.24151460669E+04  0.00000000000E+00 0. -1.
         -2   -1    0    0    0  501 -0.00000000000E+00 -0.00000000000E+00 -0.17288314600E+04  0.17288314600E+04  0.00000000000E+00 0.  1.
        -24    2    1    2    0    0 -0.41184819286E+02  0.12738960531E+04 -0.12250132983E+04  0.17696022590E+04  0.79543891038E+02 0.  0.
    5000000    2    1    2    0    0  0.41184819286E+02 -0.12738960531E+04  0.19113279052E+04  0.23743752679E+04  0.59998017320E+03 0.  0.
        -24    2    4    4    0    0  0.24068675174E+03 -0.22996891344E+03  0.46783073893E+03  0.58005521191E+03  0.82356754228E+02 0.  0.
         24    2    4    4    0    0 -0.19950193245E+03 -0.10439271396E+04  0.14434971663E+04  0.17943200560E+04  0.79470122492E+02 0.  0.
         11    1    3    3    0    0 -0.34151989446E+02  0.76129820874E+03 -0.67950538769E+03  0.10210136595E+04  0.00000000000E+00 0. -1.
        -12    1    3    3    0    0 -0.70328298401E+01  0.51259784432E+03 -0.54550791065E+03  0.74858859948E+03  0.00000000000E+00 0.  1.
         13    1    5    5    0    0  0.18496262316E+03 -0.21663627600E+03  0.40335763243E+03  0.49380140511E+03  0.00000000000E+00 0. -1.
        -14    1    5    5    0    0  0.55724128576E+02 -0.13332637443E+02  0.64473106497E+02  0.86253806804E+02  0.00000000000E+00 0.  1.
          2    1    6    6  502    0 -0.17257428081E+03 -0.73626376848E+03  0.10546058725E+04  0.12977132832E+04  0.00000000000E+00 0. -1.
         -1    1    6    6    0  502 -0.26927651644E+02 -0.30766337114E+03  0.38889129377E+03  0.49660677275E+03  0.00000000000E+00 0.  1.
<mgrwt>
<rscale>  0 0.13409599E+04</rscale>
<asrwt>0</asrwt>
<pdfrwt beam="1">  1        1 0.37156093E+00 0.13409599E+04</pdfrwt>
<pdfrwt beam="2">  1       -2 0.26597407E+00 0.13409599E+04</pdfrwt>
<totfact> 0.67011214E-02</totfact>
</mgrwt>
</event>
<event>
12    3  0.2269558E-007  0.1398542E+04  0.7818608E-02  0.8954874E-01
         -2   -1    0    0    0  501 -0.00000000000E+00  0.00000000000E+00  0.13298743871E+04  0.13298743871E+04  0.00000000000E+00 0.  1.
          1   -1    0    0  501    0  0.00000000000E+00 -0.00000000000E+00 -0.17288083282E+04  0.17288083282E+04  0.00000000000E+00 0. -1.
        -24    2    1    2    0    0 -0.41780466205E+03  0.12780779949E+04 -0.75523867205E+03  0.15437832341E+04  0.69549446586E+02 0.  0.
    5000000    2    1    2    0    0  0.41780466205E+03 -0.12780779949E+04  0.35630473092E+03  0.15148994812E+04  0.59993606326E+03 0.  0.
        -24    2    4    4    0    0 -0.12457455759E+03 -0.34635130148E+03  0.88171973443E+00  0.37685833529E+03  0.80891180070E+02 0.  0.
         24    2    4    4    0    0  0.54237921964E+03 -0.93172669344E+03  0.35542301119E+03  0.11380411459E+04  0.80760656489E+02 0.  0.
         11    1    3    3    0    0 -0.27977341230E+03  0.90887340000E+03 -0.50263143251E+03  0.10756218557E+04  0.00000000000E+00 0. -1.
        -12    1    3    3    0    0 -0.13803124975E+03  0.36920459491E+03 -0.25260723954E+03  0.46816137846E+03  0.00000000000E+00 0.  1.
         13    1    5    5    0    0 -0.65005483508E+02 -0.26511816243E+03 -0.20990994472E+02  0.27377723570E+03  0.00000000000E+00 0. -1.
        -14    1    5    5    0    0 -0.59569074080E+02 -0.81233139043E+02  0.21872714206E+02  0.10308109959E+03  0.00000000000E+00 0.  1.
          4    1    6    6  502    0  0.17901536891E+03 -0.32511355188E+03  0.83318320646E+02  0.38037779441E+03  0.00000000000E+00 0. -1.
         -3    1    6    6    0  502  0.36336385073E+03 -0.60661314156E+03  0.27210469054E+03  0.75766335146E+03  0.00000000000E+00 0.  1.
<mgrwt>
<rscale>  0 0.13985421E+04</rscale>
<asrwt>0</asrwt>
<pdfrwt beam="1">  1        1 0.26597051E+00 0.13985421E+04</pdfrwt>
<pdfrwt beam="2">  1       -2 0.20459606E+00 0.13985421E+04</pdfrwt>
<totfact> 0.47214686E-01</totfact>
</mgrwt>
</event>
<event>
12    3  0.2550779E-007  0.5078930E+03  0.7818608E-02  0.1011739E+00
          1   -1    0    0  501    0  0.00000000000E+00  0.00000000000E+00  0.10567588200E+04  0.10567588200E+04  0.00000000000E+00 0. -1.
         -2   -1    0    0    0  501 -0.00000000000E+00 -0.00000000000E+00 -0.32531450107E+03  0.32531450107E+03  0.00000000000E+00 0.  1.
        -24    2    1    2    0    0 -0.18034019642E+03  0.28364069998E+03 -0.41198050672E+02  0.34776688954E+03  0.79182680886E+02 0.  0.
    5000000    2    1    2    0    0  0.18034019642E+03 -0.28364069998E+03  0.77264236956E+03  0.10343064315E+04  0.59986575985E+03 0.  0.
        -24    2    4    4    0    0  0.10657540388E+03 -0.45988271602E+03  0.55462577513E+03  0.73259794330E+03  0.78990929084E+02 0.  0.
         24    2    4    4    0    0  0.73764792536E+02  0.17624201604E+03  0.21801659442E+03  0.30170848818E+03  0.83631833413E+02 0.  0.
         13    1    3    3    0    0 -0.11373337307E+03  0.11713087034E+03  0.20984658008E+01  0.16327683392E+03  0.00000000000E+00 0. -1.
        -14    1    3    3    0    0 -0.66606823344E+02  0.16650982964E+03 -0.43296516473E+02  0.18449005562E+03  0.00000000000E+00 0.  1.
         13    1    5    5    0    0  0.57451459114E+02 -0.16806207211E+03  0.15783518400E+03  0.23760781878E+03  0.00000000000E+00 0. -1.
        -14    1    5    5    0    0  0.49123944769E+02 -0.29182064391E+03  0.39679059113E+03  0.49499012452E+03  0.00000000000E+00 0.  1.
          4    1    6    6  502    0  0.70242060674E+02  0.94075113134E+02  0.83602186872E+02  0.14412980139E+03  0.00000000000E+00 0. -1.
         -3    1    6    6    0  502  0.35227318614E+01  0.82166902904E+02  0.13441440755E+03  0.15757868679E+03  0.00000000000E+00 0.  1.
<mgrwt>
<rscale>  0 0.50789301E+03</rscale>
<asrwt>0</asrwt>
<pdfrwt beam="1">  1        1 0.16257828E+00 0.50789301E+03</pdfrwt>
<pdfrwt beam="2">  1       -2 0.50048385E-01 0.50789301E+03</pdfrwt>
<totfact> 0.47534290E+01</totfact>
</mgrwt>
</event>
<event>
12    3  0.2269558E-007  0.5610253E+03  0.7818608E-02  0.9989737E-01
          1   -1    0    0  501    0  0.00000000000E+00  0.00000000000E+00  0.34488684175E+03  0.34488684175E+03  0.00000000000E+00 0. -1.
         -2   -1    0    0    0  501 -0.00000000000E+00 -0.00000000000E+00 -0.12803085998E+04  0.12803085998E+04  0.00000000000E+00 0.  1.
        -24    2    1    2    0    0 -0.36910100452E+03  0.22883469781E+03 -0.73566953710E+03  0.85810697187E+03  0.80851944202E+02 0.  0.
    5000000    2    1    2    0    0  0.36910100452E+03 -0.22883469781E+03 -0.19975222098E+03  0.76708846971E+03  0.59993574665E+03 0.  0.
        -24    2    4    4    0    0 -0.29453003552E+02 -0.27611939716E+03  0.41822874361E+02  0.29195703255E+03  0.79877125192E+02 0.  0.
         24    2    4    4    0    0  0.39855400808E+03  0.47284699341E+02 -0.24157509534E+03  0.47513143717E+03  0.79436866426E+02 0.  0.
         13    1    5    5    0    0 -0.33059915866E+02 -0.20103489664E+03 -0.42697215641E+01  0.20377982782E+03  0.00000000000E+00 0. -1.
        -14    1    5    5    0    0  0.36069123140E+01 -0.75084500518E+02  0.46092595925E+02  0.88177204727E+02  0.00000000000E+00 0.  1.
         13    1    3    3    0    0 -0.74875312580E+02  0.60005302221E+02 -0.10674935452E+03  0.14353526890E+03  0.00000000000E+00 0. -1.
        -14    1    3    3    0    0 -0.29422569194E+03  0.16882939559E+03 -0.62892018259E+03  0.71457170297E+03  0.00000000000E+00 0.  1.
          2    1    6    6  502    0  0.37377087351E+03  0.24943805868E+02 -0.23113108911E+03  0.44016864914E+03  0.00000000000E+00 0. -1.
         -1    1    6    6    0  502  0.24783134563E+02  0.22340893473E+02 -0.10444006237E+02  0.34962788021E+02  0.00000000000E+00 0.  1.
<mgrwt>
<rscale>  0 0.56102528E+03</rscale>
<asrwt>0</asrwt>
<pdfrwt beam="1">  1        1 0.53059515E-01 0.56102528E+03</pdfrwt>
<pdfrwt beam="2">  1       -2 0.19697055E+00 0.56102528E+03</pdfrwt>
<totfact> 0.92922587E+00</totfact>
</mgrwt>
</event>
<event>
12    3  0.2269558E-007  0.3491868E+03  0.7818608E-02  0.1062949E+00
          1   -1    0    0  501    0  0.00000000000E+00  0.00000000000E+00  0.35838007294E+03  0.35838007294E+03  0.00000000000E+00 0. -1.
         -2   -1    0    0    0  501 -0.00000000000E+00 -0.00000000000E+00 -0.59481203499E+03  0.59481203499E+03  0.00000000000E+00 0.  1.
        -24    2    1    2    0    0  0.90115922287E+02  0.18514853420E+03  0.91252542193E+02  0.23918297556E+03  0.80502237084E+02 0.  0.
    5000000    2    1    2    0    0 -0.90115922287E+02 -0.18514853420E+03 -0.32768450424E+03  0.71400913236E+03  0.60002587246E+03 0.  0.
        -24    2    4    4    0    0  0.15745946888E+03 -0.15670192114E+03 -0.38027958380E+03  0.44764468654E+03  0.80151276351E+02 0.  0.
         24    2    4    4    0    0 -0.24757539117E+03 -0.28446613066E+02  0.52595079564E+02  0.26636444583E+03  0.77980712345E+02 0.  0.
         11    1    5    5    0    0  0.63413489938E+02 -0.43832305336E+02 -0.69089725860E+02  0.10351778551E+03  0.00000000000E+00 0. -1.
        -12    1    5    5    0    0  0.94045978947E+02 -0.11286961580E+03 -0.31118985794E+03  0.34412690103E+03  0.00000000000E+00 0.  1.
         11    1    3    3    0    0  0.61509367372E+02  0.62343647535E+02  0.68196858237E+02  0.11099974836E+03  0.00000000000E+00 0. -1.
        -12    1    3    3    0    0  0.28606554915E+02  0.12280488667E+03  0.23055683956E+02  0.12818322721E+03  0.00000000000E+00 0.  1.
          2    1    6    6  502    0 -0.14221820604E+02  0.17822870726E+02  0.89618302429E+01  0.24499577619E+02  0.00000000000E+00 0. -1.
         -1    1    6    6    0  502 -0.23335357057E+03 -0.46269483792E+02  0.43633249321E+02  0.24186486821E+03  0.00000000000E+00 0.  1.
<mgrwt>
<rscale>  0 0.34918684E+03</rscale>
<asrwt>0</asrwt>
<pdfrwt beam="1">  1        1 0.55135396E-01 0.34918684E+03</pdfrwt>
<pdfrwt beam="2">  1       -2 0.91509544E-01 0.34918684E+03</pdfrwt>
<totfact> 0.64645119E+01</totfact>
</mgrwt>
</event>
<event>
12    3  0.2269558E-007  0.5287394E+03  0.7818608E-02  0.1006538E+00
         -2   -1    0    0    0  501 -0.00000000000E+00  0.00000000000E+00  0.28181648562E+03  0.28181648562E+03  0.00000000000E+00 0.  1.
          1   -1    0    0  501    0  0.00000000000E+00 -0.00000000000E+00 -0.12009756073E+04  0.12009756073E+04  0.00000000000E+00 0. -1.
        -24    2    1    2    0    0  0.12220156554E+03  0.35830691676E+03 -0.57769047334E+03  0.69562858308E+03  0.82799597761E+02 0.  0.
    5000000    2    1    2    0    0 -0.12220156554E+03 -0.35830691676E+03 -0.34146864834E+03  0.78716350984E+03  0.59975702097E+03 0.  0.
        -24    2    4    4    0    0  0.21362501956E+03 -0.79686035541E+02 -0.22702420461E+03  0.32969449507E+03  0.71923274119E+02 0.  0.
         24    2    4    4    0    0 -0.33582658510E+03 -0.27862088121E+03 -0.11444444373E+03  0.45746901477E+03  0.75968928266E+02 0.  0.
         11    1    5    5    0    0  0.70439641196E+02 -0.57583672509E+01 -0.34545207377E+02  0.78665578228E+02  0.00000000000E+00 0. -1.
        -12    1    5    5    0    0  0.14318537836E+03 -0.73927668290E+02 -0.19247899724E+03  0.25102891685E+03  0.00000000000E+00 0.  1.
         13    1    3    3    0    0  0.11111250874E+03  0.22745027173E+03 -0.33753863784E+03  0.42191462139E+03  0.00000000000E+00 0. -1.
        -14    1    3    3    0    0  0.11089056806E+02  0.13085664502E+03 -0.24015183550E+03  0.27371396168E+03  0.00000000000E+00 0.  1.
          4    1    6    6  502    0 -0.29960799115E+03 -0.21780233911E+03 -0.80917104986E+02  0.37914428014E+03  0.00000000000E+00 0. -1.
         -1    1    6    6    0  502 -0.36218593952E+02 -0.60818542101E+02 -0.33527338743E+02  0.78324734626E+02  0.00000000000E+00 0.  1.
<mgrwt>
<rscale>  0 0.52873941E+03</rscale>
<asrwt>0</asrwt>
<pdfrwt beam="1">  1        1 0.18476548E+00 0.52873941E+03</pdfrwt>
<pdfrwt beam="2">  1       -2 0.43356383E-01 0.52873941E+03</pdfrwt>
<totfact> 0.49511718E+01</totfact>
</mgrwt>
</event>
<event>
12    3  0.2269558E-007  0.9976364E+03  0.7818608E-02  0.9311141E-01
          1   -1    0    0  501    0  0.00000000000E+00  0.00000000000E+00  0.12236030900E+04  0.12236030900E+04  0.00000000000E+00 0. -1.
         -2   -1    0    0    0  501 -0.00000000000E+00 -0.00000000000E+00 -0.97141733402E+03  0.97141733402E+03  0.00000000000E+00 0.  1.
        -24    2    1    2    0    0  0.84416275440E+03  0.40756253371E+03 -0.25099569240E+03  0.97362853328E+03  0.78966501903E+02 0.  0.
    5000000    2    1    2    0    0 -0.84416275440E+03 -0.40756253371E+03  0.50318144836E+03  0.12213918907E+04  0.59990716441E+03 0.  0.
        -24    2    4    4    0    0 -0.20811812083E+03  0.10389943163E+03  0.27461755253E+03  0.36834249987E+03  0.78442035555E+02 0.  0.
         24    2    4    4    0    0 -0.63604463357E+03 -0.51146196534E+03  0.22856389584E+03  0.85304939084E+03  0.96466008800E+02 0.  0.
         13    1    5    5    0    0 -0.94594618223E+02  0.13833046057E+02  0.74167975554E+02  0.12099745269E+03  0.00000000000E+00 0. -1.
        -14    1    5    5    0    0 -0.11352350261E+03  0.90066385571E+02  0.20044957697E+03  0.24734504718E+03  0.00000000000E+00 0.  1.
         13    1    3    3    0    0  0.38875225995E+03  0.16931357227E+03 -0.76638293625E+02  0.43089306495E+03  0.00000000000E+00 0. -1.
        -14    1    3    3    0    0  0.45541049445E+03  0.23824896144E+03 -0.17435739878E+03  0.54273546834E+03  0.00000000000E+00 0.  1.
          2    1    6    6  502    0 -0.57968076941E+02 -0.58629224136E+02  0.53056309910E+02  0.98044152749E+02  0.00000000000E+00 0. -1.
         -1    1    6    6    0  502 -0.57807655663E+03 -0.45283274120E+03  0.17550758593E+03  0.75500523809E+03  0.00000000000E+00 0.  1.
<mgrwt>
<rscale>  0 0.99763644E+03</rscale>
<asrwt>0</asrwt>
<pdfrwt beam="1">  1        1 0.18824663E+00 0.99763644E+03</pdfrwt>
<pdfrwt beam="2">  1       -2 0.14944882E+00 0.99763644E+03</pdfrwt>
<totfact> 0.27163344E+00</totfact>
</mgrwt>
</event>
<event>
12    3  0.2269558E-007  0.5396247E+03  0.7818608E-02  0.1003924E+00
          3   -1    0    0  501    0  0.00000000000E+00  0.00000000000E+00  0.10756339060E+04  0.10756339060E+04  0.00000000000E+00 0. -1.
         -2   -1    0    0    0  501 -0.00000000000E+00 -0.00000000000E+00 -0.30425588108E+03  0.30425588108E+03  0.00000000000E+00 0.  1.
        -24    2    1    2    0    0 -0.16447348047E+03 -0.37308018792E+03  0.22971171383E+03  0.47461818609E+03  0.79086020901E+02 0.  0.
    5000000    2    1    2    0    0  0.16447348047E+03  0.37308018792E+03  0.54166631113E+03  0.90527160103E+03  0.59989492965E+03 0.  0.
        -24    2    4    4    0    0  0.24260047083E+02 -0.12830269604E+03  0.27520175931E+03  0.31491181645E+03  0.79895632620E+02 0.  0.
         24    2    4    4    0    0  0.14021343339E+03  0.50138288396E+03  0.26646455181E+03  0.59035978458E+03  0.80478038254E+02 0.  0.
         11    1    5    5    0    0  0.40352909539E+02 -0.63732856854E+02  0.86242592738E+02  0.11457756828E+03  0.00000000000E+00 0. -1.
        -12    1    5    5    0    0 -0.16092862456E+02 -0.64569839190E+02  0.18895916658E+03  0.20033424817E+03  0.00000000000E+00 0.  1.
         13    1    3    3    0    0 -0.14245190109E+03 -0.25279925351E+03  0.13548022971E+03  0.32024193876E+03  0.00000000000E+00 0. -1.
        -14    1    3    3    0    0 -0.22021579386E+02 -0.12028093441E+03  0.94231484120E+02  0.15437624733E+03  0.00000000000E+00 0.  1.
          2    1    6    6  502    0  0.23667055805E+02  0.25163172148E+02  0.31250715027E+02  0.46582421070E+02  0.00000000000E+00 0. -1.
         -1    1    6    6    0  502  0.11654637758E+03  0.47621971181E+03  0.23521383679E+03  0.54377736351E+03  0.00000000000E+00 0.  1.
<mgrwt>
<rscale>  0 0.53962468E+03</rscale>
<asrwt>0</asrwt>
<pdfrwt beam="1">  1        3 0.16548214E+00 0.53962468E+03</pdfrwt>
<pdfrwt beam="2">  1       -2 0.46808598E-01 0.53962468E+03</pdfrwt>
<totfact> 0.45395719E+00</totfact>
</mgrwt>
</event>
<event>
12    3  0.2269558E-007  0.4343066E+03  0.7818608E-02  0.1032508E+00
         -2   -1    0    0    0  501 -0.00000000000E+00  0.00000000000E+00  0.24399928832E+03  0.24399928832E+03  0.00000000000E+00 0.  1.
          1   -1    0    0  501    0  0.00000000000E+00 -0.00000000000E+00 -0.88592567703E+03  0.88592567703E+03  0.00000000000E+00 0. -1.
        -24    2    1    2    0    0 -0.49487558059E+00 -0.26373093605E+03 -0.18642322594E+03  0.33183636266E+03  0.76206960866E+02 0.  0.
    5000000    2    1    2    0    0  0.49487558059E+00  0.26373093605E+03 -0.45550316277E+03  0.79808860269E+03  0.59992335754E+03 0.  0.
        -24    2    4    4    0    0 -0.18697753878E+03  0.33242790526E+03 -0.13508647638E+03  0.41246324215E+03  0.80054093091E+02 0.  0.
         24    2    4    4    0    0  0.18747241436E+03 -0.68696969218E+02 -0.32041668640E+03  0.38562536054E+03  0.78580443161E+02 0.  0.
         11    1    3    3    0    0 -0.22891619318E+02 -0.21048441276E+03 -0.11835334699E+03  0.24255974315E+03  0.00000000000E+00 0. -1.
        -12    1    3    3    0    0  0.22396743737E+02 -0.53246523281E+02 -0.68069878948E+02  0.89276619512E+02  0.00000000000E+00 0.  1.
         13    1    5    5    0    0 -0.82074786474E+02  0.96281502300E+02 -0.75332091934E+02  0.14724578885E+03  0.00000000000E+00 0. -1.
        -14    1    5    5    0    0 -0.10490275230E+03  0.23614640297E+03 -0.59754384443E+02  0.26521745330E+03  0.00000000000E+00 0.  1.
          2    1    6    6  502    0  0.54609742619E+01  0.13450773857E+02 -0.27834229231E+02  0.31392513027E+02  0.00000000000E+00 0. -1.
         -1    1    6    6    0  502  0.18201144009E+03 -0.82147743076E+02 -0.29258245716E+03  0.35423284751E+03  0.00000000000E+00 0.  1.
<mgrwt>
<rscale>  0 0.43430665E+03</rscale>
<asrwt>0</asrwt>
<pdfrwt beam="1">  1        1 0.13629626E+00 0.43430665E+03</pdfrwt>
<pdfrwt beam="2">  1       -2 0.37538351E-01 0.43430665E+03</pdfrwt>
<totfact> 0.11456711E+02</totfact>
</mgrwt>
</event>
<event>
12    3  0.3128720E-007  0.1239234E+04  0.7818608E-02  0.9079191E-01
          1   -1    0    0  501    0  0.00000000000E+00  0.00000000000E+00  0.21808361472E+04  0.21808361472E+04  0.00000000000E+00 0. -1.
         -2   -1    0    0    0  501 -0.00000000000E+00 -0.00000000000E+00 -0.13716037762E+04  0.13716037762E+04  0.00000000000E+00 0.  1.
        -24    2    1    2    0    0  0.95789533154E+03 -0.70434253720E+03 -0.82035503711E+03  0.14479818623E+04  0.10003604757E+03 0.  0.
    5000000    2    1    2    0    0 -0.95789533154E+03  0.70434253720E+03  0.16295874081E+04  0.21044580611E+04  0.59960548249E+03 0.  0.
        -24    2    4    4    0    0  0.44457065496E+02  0.10169739599E+03  0.75701438482E+02  0.15799044089E+03  0.83135314994E+02 0.  0.
         24    2    4    4    0    0 -0.10023523970E+04  0.60264514121E+03  0.15538859696E+04  0.19464676202E+04  0.79265983382E+02 0.  0.
         13    1    3    3    0    0  0.54692052662E+03 -0.44689453478E+03 -0.52668145248E+03  0.88103923865E+03  0.00000000000E+00 0. -1.
        -14    1    3    3    0    0  0.41097480492E+03 -0.25744800243E+03 -0.29367358463E+03  0.56694262368E+03  0.00000000000E+00 0.  1.
         13    1    5    5    0    0  0.23748387182E+02  0.19814046067E+02 -0.14724218990E+02  0.34254706832E+02  0.00000000000E+00 0. -1.
        -14    1    5    5    0    0  0.20708678314E+02  0.81883349923E+02  0.90425657473E+02  0.12373573405E+03  0.00000000000E+00 0.  1.
          2    1    6    6  502    0 -0.29636143911E+03  0.13999781244E+03  0.41173633771E+03  0.52626637919E+03  0.00000000000E+00 0. -1.
         -1    1    6    6    0  502 -0.70599095793E+03  0.46264732877E+03  0.11421496319E+04  0.14202012410E+04  0.00000000000E+00 0.  1.
<mgrwt>
<rscale>  0 0.12392343E+04</rscale>
<asrwt>0</asrwt>
<pdfrwt beam="1">  1        1 0.33551326E+00 0.12392343E+04</pdfrwt>
<pdfrwt beam="2">  1       -2 0.21101596E+00 0.12392343E+04</pdfrwt>
<totfact> 0.21580429E-01</totfact>
</mgrwt>
</event>
<event>
12    3  0.2269558E-007  0.1562677E+04  0.7818608E-02  0.8843811E-01
          1   -1    0    0  501    0  0.00000000000E+00  0.00000000000E+00  0.35882345206E+04  0.35882345206E+04  0.00000000000E+00 0. -1.
         -2   -1    0    0    0  501 -0.00000000000E+00 -0.00000000000E+00 -0.74451302538E+03  0.74451302538E+03  0.00000000000E+00 0.  1.
        -24    2    1    2    0    0 -0.15110147726E+04 -0.24294890965E+03  0.86361515944E+03  0.17591197150E+04  0.80505977533E+02 0.  0.
    5000000    2    1    2    0    0  0.15110147726E+04  0.24294890965E+03  0.19801063358E+04  0.25736278310E+04  0.60045757189E+03 0.  0.
        -24    2    4    4    0    0  0.12421938155E+04  0.17823265258E+02  0.12725694100E+04  0.17800127015E+04  0.75160960163E+02 0.  0.
         24    2    4    4    0    0  0.26882095712E+03  0.22512564439E+03  0.70753692576E+03  0.79361512954E+03  0.79184656176E+02 0.  0.
         11    1    3    3    0    0 -0.80857226469E+03 -0.16089305102E+03  0.43486071013E+03  0.93208342883E+03  0.00000000000E+00 0. -1.
        -12    1    3    3    0    0 -0.70244250792E+03 -0.82055858626E+02  0.42875444930E+03  0.82703628618E+03  0.00000000000E+00 0.  1.
         13    1    5    5    0    0  0.47359419443E+03  0.87131797435E+00  0.53716129305E+03  0.71612462249E+03  0.00000000000E+00 0. -1.
        -14    1    5    5    0    0  0.76859962106E+03  0.16951947283E+02  0.73540811699E+03  0.10638880790E+04  0.00000000000E+00 0.  1.
          4    1    6    6  502    0  0.85321838307E+02  0.58353322607E+02  0.29155032752E+03  0.30933237759E+03  0.00000000000E+00 0. -1.
         -3    1    6    6    0  502  0.18349911881E+03  0.16677232178E+03  0.41598659825E+03  0.48428275195E+03  0.00000000000E+00 0.  1.
<mgrwt>
<rscale>  0 0.15626772E+04</rscale>
<asrwt>0</asrwt>
<pdfrwt beam="1">  1        1 0.55203607E+00 0.15626772E+04</pdfrwt>
<pdfrwt beam="2">  1       -2 0.11454047E+00 0.15626772E+04</pdfrwt>
<totfact> 0.10577909E-01</totfact>
</mgrwt>
</event>
<event>
12    3  0.2269558E-007  0.5649768E+03  0.7818608E-02  0.9980856E-01
          1   -1    0    0  501    0  0.00000000000E+00  0.00000000000E+00  0.11715894022E+04  0.11715894022E+04  0.00000000000E+00 0. -1.
         -2   -1    0    0    0  501 -0.00000000000E+00 -0.00000000000E+00 -0.48430176271E+03  0.48430176271E+03  0.00000000000E+00 0.  1.
        -24    2    1    2    0    0  0.46102861500E+03 -0.77496440399E+02  0.75571126971E+03  0.89219445432E+03  0.79739193738E+02 0.  0.
    5000000    2    1    2    0    0 -0.46102861500E+03  0.77496440399E+02 -0.68423630269E+02  0.76369671055E+03  0.59999815867E+03 0.  0.
        -24    2    4    4    0    0 -0.48257092837E+03 -0.74777392704E+02 -0.21072644590E+03  0.53693785469E+03  0.73690334665E+02 0.  0.
         24    2    4    4    0    0  0.21542313374E+02  0.15227383310E+03  0.14230281563E+03  0.22675885587E+03  0.86706953964E+02 0.  0.
         11    1    3    3    0    0  0.18113610955E+03 -0.43731859633E+02  0.37186722753E+03  0.41594230446E+03  0.00000000000E+00 0. -1.
        -12    1    3    3    0    0  0.27989250545E+03 -0.33764580766E+02  0.38384404218E+03  0.47625214986E+03  0.00000000000E+00 0.  1.
         11    1    5    5    0    0 -0.23262119942E+03 -0.33208486730E+00 -0.88085529855E+02  0.24874041342E+03  0.00000000000E+00 0. -1.
        -12    1    5    5    0    0 -0.24994972896E+03 -0.74445307837E+02 -0.12264091604E+03  0.28819744127E+03  0.00000000000E+00 0.  1.
          2    1    6    6  502    0 -0.20689367963E+02  0.94308436293E+02  0.11466241182E+03  0.14989863171E+03  0.00000000000E+00 0. -1.
         -1    1    6    6    0  502  0.42231681336E+02  0.57965396810E+02  0.27640403809E+02  0.76860224164E+02  0.00000000000E+00 0.  1.
<mgrwt>
<rscale>  0 0.56497683E+03</rscale>
<asrwt>0</asrwt>
<pdfrwt beam="1">  1        1 0.18024452E+00 0.56497683E+03</pdfrwt>
<pdfrwt beam="2">  1       -2 0.74507964E-01 0.56497683E+03</pdfrwt>
<totfact> 0.16754835E+01</totfact>
</mgrwt>
</event>
<event>
12    3  0.2269558E-007  0.3320882E+03  0.7818608E-02  0.1070217E+00
         -4   -1    0    0    0  501 -0.00000000000E+00  0.00000000000E+00  0.33991727371E+03  0.33991727371E+03  0.00000000000E+00 0.  1.
          3   -1    0    0  501    0  0.00000000000E+00 -0.00000000000E+00 -0.40209354184E+03  0.40209354184E+03  0.00000000000E+00 0. -1.
        -24    2    1    2    0    0 -0.40607489235E+02 -0.79239195655E+02 -0.61867208434E+02  0.13535098373E+03  0.81021719351E+02 0.  0.
    5000000    2    1    2    0    0  0.40607489235E+02  0.79239195655E+02 -0.30905969058E+00  0.60665983183E+03  0.60009019132E+03 0.  0.
        -24    2    4    4    0    0  0.26264576868E+02 -0.22915953029E+03 -0.11302726126E+03  0.26820601197E+03  0.77171139374E+02 0.  0.
         24    2    4    4    0    0  0.14342912367E+02  0.30839872594E+03  0.11271820157E+03  0.33845381985E+03  0.80809045960E+02 0.  0.
         11    1    5    5    0    0 -0.14175582410E+02 -0.67638335988E+02 -0.65093240966E+02  0.94936935127E+02  0.00000000000E+00 0. -1.
        -12    1    5    5    0    0  0.40440159278E+02 -0.16152119430E+03 -0.47934020293E+02  0.17326907685E+03  0.00000000000E+00 0.  1.
         11    1    3    3    0    0  0.22212897498E+02 -0.36637297844E+02 -0.33244961400E+02  0.54230359275E+02  0.00000000000E+00 0. -1.
        -12    1    3    3    0    0 -0.62820386733E+02 -0.42601897810E+02 -0.28622247035E+02  0.81120624453E+02  0.00000000000E+00 0.  1.
          4    1    6    6  502    0  0.21927881256E+02  0.23746943497E+03  0.50431850727E+02  0.24375384323E+03  0.00000000000E+00 0. -1.
         -3    1    6    6    0  502 -0.75849688884E+01  0.70929290969E+02  0.62286350841E+02  0.94699976619E+02  0.00000000000E+00 0.  1.
<mgrwt>
<rscale>  0 0.33208824E+03</rscale>
<asrwt>0</asrwt>
<pdfrwt beam="1">  1        3 0.61860545E-01 0.33208824E+03</pdfrwt>
<pdfrwt beam="2">  1       -4 0.52294965E-01 0.33208824E+03</pdfrwt>
<totfact> 0.19711284E+01</totfact>
</mgrwt>
</event>
<event>
12    3  0.2269558E-007  0.1178691E+04  0.7818608E-02  0.9131715E-01
         -2   -1    0    0    0  501 -0.00000000000E+00  0.00000000000E+00  0.59930012018E+03  0.59930012018E+03  0.00000000000E+00 0.  1.
          1   -1    0    0  501    0  0.00000000000E+00 -0.00000000000E+00 -0.23882197490E+04  0.23882197490E+04  0.00000000000E+00 0. -1.
        -24    2    1    2    0    0  0.61233456800E+03  0.92121585970E+03 -0.62463134535E+03  0.12729339341E+04  0.81266226749E+02 0.  0.
    5000000    2    1    2    0    0 -0.61233456800E+03 -0.92121585970E+03 -0.11642882835E+04  0.17145859351E+04  0.60053762457E+03 0.  0.
        -24    2    4    4    0    0 -0.29051014650E+03 -0.33379912946E+02 -0.36805010427E+03  0.47668420958E+03  0.79098625804E+02 0.  0.
         24    2    4    4    0    0 -0.32182442149E+03 -0.88783594676E+03 -0.79623817925E+03  0.12379017256E+04  0.81128400877E+02 0.  0.
         11    1    5    5    0    0 -0.32013736637E+02  0.20497894256E+02 -0.59088521988E+02  0.70260205188E+02  0.00000000000E+00 0. -1.
        -12    1    5    5    0    0 -0.25849640987E+03 -0.53877807202E+02 -0.30896158228E+03  0.40642400440E+03  0.00000000000E+00 0.  1.
         13    1    3    3    0    0  0.17228225585E+03  0.21676228352E+03 -0.12654918459E+03  0.30443679042E+03  0.00000000000E+00 0. -1.
        -14    1    3    3    0    0  0.44005231214E+03  0.70445357618E+03 -0.49808216076E+03  0.96849714366E+03  0.00000000000E+00 0.  1.
          2    1    6    6  502    0  0.44745081477E+00 -0.52175169400E+02 -0.45479339228E+02  0.69215741062E+02  0.00000000000E+00 0. -1.
         -1    1    6    6    0  502 -0.32227187231E+03 -0.83566077736E+03 -0.75075884002E+03  0.11686859845E+04  0.00000000000E+00 0.  1.
<mgrwt>
<rscale>  0 0.11786914E+04</rscale>
<asrwt>0</asrwt>
<pdfrwt beam="1">  1        1 0.36741843E+00 0.11786914E+04</pdfrwt>
<pdfrwt beam="2">  1       -2 0.92200018E-01 0.11786914E+04</pdfrwt>
<totfact> 0.14042893E+00</totfact>
</mgrwt>
</event>
<event>
12    3  0.2269558E-007  0.1577444E+04  0.7818608E-02  0.8834526E-01
         -2   -1    0    0    0  501 -0.00000000000E+00  0.00000000000E+00  0.28971058760E+04  0.28971058760E+04  0.00000000000E+00 0.  1.
          1   -1    0    0  501    0  0.00000000000E+00 -0.00000000000E+00 -0.92339472601E+03  0.92339472601E+03  0.00000000000E+00 0. -1.
        -24    2    1    2    0    0 -0.41023880652E+03  0.15214127649E+04  0.10798427247E+04  0.19120601484E+04  0.83192676980E+02 0.  0.
    5000000    2    1    2    0    0  0.41023880652E+03 -0.15214127649E+04  0.89386842525E+03  0.19084404536E+04  0.60012625643E+03 0.  0.
        -24    2    4    4    0    0  0.26470019003E+03 -0.96181895570E+03  0.23334348456E+03  0.10277199226E+04  0.81222923472E+02 0.  0.
         24    2    4    4    0    0  0.14553861648E+03 -0.55959380918E+03  0.66052494069E+03  0.88072053101E+03  0.71054460153E+02 0.  0.
         13    1    3    3    0    0 -0.24487249437E+03  0.93650646400E+03  0.61473964489E+03  0.11466960044E+04  0.00000000000E+00 0. -1.
        -14    1    3    3    0    0 -0.16536631215E+03  0.58490630089E+03  0.46510307983E+03  0.76536414397E+03  0.00000000000E+00 0.  1.
         13    1    5    5    0    0  0.13396485156E+02 -0.14175184995E+03  0.47605476027E+02  0.15013105650E+03  0.00000000000E+00 0. -1.
        -14    1    5    5    0    0  0.25130370488E+03 -0.82006710575E+03  0.18573800853E+03  0.87758886606E+03  0.00000000000E+00 0.  1.
          4    1    6    6  502    0  0.10530337231E+03 -0.34791524739E+03  0.36646647138E+03  0.51617002454E+03  0.00000000000E+00 0. -1.
         -3    1    6    6    0  502  0.40235244174E+02 -0.21167856179E+03  0.29405846931E+03  0.36455050647E+03  0.00000000000E+00 0.  1.
<mgrwt>
<rscale>  0 0.15774435E+04</rscale>
<asrwt>0</asrwt>
<pdfrwt beam="1">  1        1 0.14206073E+00 0.15774435E+04</pdfrwt>
<pdfrwt beam="2">  1       -2 0.44570859E+00 0.15774435E+04</pdfrwt>
<totfact> 0.53278429E-02</totfact>
</mgrwt>
</event>
<event>
12    3  0.2269558E-007  0.1407137E+04  0.7818608E-02  0.8948668E-01
         -2   -1    0    0    0  501 -0.00000000000E+00  0.00000000000E+00  0.81389956307E+03  0.81389956307E+03  0.00000000000E+00 0.  1.
          1   -1    0    0  501    0  0.00000000000E+00 -0.00000000000E+00 -0.27168971825E+04  0.27168971825E+04  0.00000000000E+00 0. -1.
        -24    2    1    2    0    0 -0.29197105949E+03  0.13273658491E+04 -0.40402867475E+03  0.14203465622E+04  0.83653988594E+02 0.  0.
    5000000    2    1    2    0    0  0.29197105949E+03 -0.13273658491E+04 -0.14989689446E+04  0.21104501833E+04  0.59995406698E+03 0.  0.
        -24    2    4    4    0    0  0.37989663271E+03 -0.56922888212E+03 -0.50313207054E+03  0.85319735135E+03  0.80379525761E+02 0.  0.
         24    2    4    4    0    0 -0.87925573224E+02 -0.75813696696E+03 -0.99583687410E+03  0.12572528320E+04  0.80566969823E+02 0.  0.
         11    1    3    3    0    0 -0.13478352044E+03  0.79480582384E+03 -0.22601808164E+03  0.83723776087E+03  0.00000000000E+00 0. -1.
        -12    1    3    3    0    0 -0.15718753905E+03  0.53256002524E+03 -0.17801059311E+03  0.58310880132E+03  0.00000000000E+00 0.  1.
         11    1    5    5    0    0  0.26806394074E+03 -0.33351576836E+03 -0.32413215839E+03  0.53679856573E+03  0.00000000000E+00 0. -1.
        -12    1    5    5    0    0  0.11183269198E+03 -0.23571311376E+03 -0.17899991215E+03  0.31639878562E+03  0.00000000000E+00 0.  1.
          2    1    6    6  502    0 -0.67142242513E+02 -0.67633315064E+03 -0.91970438259E+03  0.11435867972E+04  0.00000000000E+00 0. -1.
         -1    1    6    6    0  502 -0.20783330711E+02 -0.81803816321E+02 -0.76132491510E+02  0.11366603478E+03  0.00000000000E+00 0.  1.
<mgrwt>
<rscale>  0 0.14071374E+04</rscale>
<asrwt>0</asrwt>
<pdfrwt beam="1">  1        1 0.41798418E+00 0.14071374E+04</pdfrwt>
<pdfrwt beam="2">  1       -2 0.12521532E+00 0.14071374E+04</pdfrwt>
<totfact> 0.38434585E-01</totfact>
</mgrwt>
</event>
<event>
12    3  0.2269558E-007  0.5628958E+03  0.7818608E-02  0.9985524E-01
          3   -1    0    0  501    0  0.00000000000E+00  0.00000000000E+00  0.22710286980E+03  0.22710286980E+03  0.00000000000E+00 0. -1.
         -4   -1    0    0    0  501 -0.00000000000E+00 -0.00000000000E+00 -0.16661259160E+04  0.16661259160E+04  0.00000000000E+00 0.  1.
        -24    2    1    2    0    0  0.16495766073E+02  0.42529115230E+03 -0.26095714011E+03  0.50436218312E+03  0.71679203873E+02 0.  0.
    5000000    2    1    2    0    0 -0.16495766073E+02 -0.42529115230E+03 -0.11780659061E+04  0.13888666026E+04  0.59997207133E+03 0.  0.
        -24    2    4    4    0    0  0.25079690776E+03 -0.29596444088E+03 -0.45736158305E+03  0.60487794714E+03  0.78763405717E+02 0.  0.
         24    2    4    4    0    0 -0.26729267383E+03 -0.12932671142E+03 -0.72070432300E+03  0.78398865549E+03  0.83980467790E+02 0.  0.
         11    1    5    5    0    0  0.12275325762E+03 -0.18177780411E+03 -0.30324297260E+03  0.37425637303E+03  0.00000000000E+00 0. -1.
        -12    1    5    5    0    0  0.12804365014E+03 -0.11418663677E+03 -0.15411861045E+03  0.23062157411E+03  0.00000000000E+00 0.  1.
         13    1    3    3    0    0 -0.75148625838E+01  0.83000393125E+02 -0.83840131605E+02  0.11821466105E+03  0.00000000000E+00 0. -1.
        -14    1    3    3    0    0  0.24010628657E+02  0.34229075918E+03 -0.17711700850E+03  0.38614752208E+03  0.00000000000E+00 0.  1.
          4    1    6    6  502    0 -0.24960928228E+03 -0.90078188577E+02 -0.61082071591E+03  0.66597358869E+03  0.00000000000E+00 0. -1.
         -3    1    6    6    0  502 -0.17683391549E+02 -0.39248522842E+02 -0.10988360709E+03  0.11801506679E+03  0.00000000000E+00 0.  1.
<mgrwt>
<rscale>  0 0.56289582E+03</rscale>
<asrwt>0</asrwt>
<pdfrwt beam="1">  1        3 0.34938903E-01 0.56289582E+03</pdfrwt>
<pdfrwt beam="2">  1       -4 0.25632706E+00 0.56289582E+03</pdfrwt>
<totfact> 0.10892253E+00</totfact>
</mgrwt>
</event>
<event>
12    3  0.2269558E-007  0.5522486E+03  0.7818608E-02  0.1000975E+00
          1   -1    0    0  501    0  0.00000000000E+00  0.00000000000E+00  0.23449936630E+03  0.23449936630E+03  0.00000000000E+00 0. -1.
         -2   -1    0    0    0  501 -0.00000000000E+00 -0.00000000000E+00 -0.14444361975E+04  0.14444361975E+04  0.00000000000E+00 0.  1.
        -24    2    1    2    0    0  0.38204773042E+03 -0.10646757981E+03 -0.65776343248E+03  0.77216229088E+03  0.79284654839E+02 0.  0.
    5000000    2    1    2    0    0 -0.38204773042E+03  0.10646757981E+03 -0.55217339869E+03  0.90677327288E+03  0.60003874235E+03 0.  0.
        -24    2    4    4    0    0 -0.22335502531E+03 -0.23519960308E+03 -0.24948337519E+03  0.41697036576E+03  0.80100005018E+02 0.  0.
         24    2    4    4    0    0 -0.15869270511E+03  0.34166718289E+03 -0.30269002350E+03  0.48980290712E+03  0.79785957317E+02 0.  0.
         11    1    5    5    0    0 -0.45332258540E+02 -0.52478145953E+02 -0.16047751069E+02  0.71179349403E+02  0.00000000000E+00 0. -1.
        -12    1    5    5    0    0 -0.17802276677E+03 -0.18272145713E+03 -0.23343562412E+03  0.34579101635E+03  0.00000000000E+00 0.  1.
         11    1    3    3    0    0  0.54424537510E+02 -0.74419339824E+01 -0.15068317931E+03  0.16038339437E+03  0.00000000000E+00 0. -1.
        -12    1    3    3    0    0  0.32762319291E+03 -0.99025645825E+02 -0.50708025317E+03  0.61177889651E+03  0.00000000000E+00 0.  1.
          4    1    6    6  502    0 -0.12082199703E+03  0.17987587718E+03 -0.14501223961E+03  0.26073326561E+03  0.00000000000E+00 0. -1.
         -3    1    6    6    0  502 -0.37870708081E+02  0.16179130570E+03 -0.15767778389E+03  0.22906964152E+03  0.00000000000E+00 0.  1.
<mgrwt>
<rscale>  0 0.55224859E+03</rscale>
<asrwt>0</asrwt>
<pdfrwt beam="1">  1        1 0.36076826E-01 0.55224859E+03</pdfrwt>
<pdfrwt beam="2">  1       -2 0.22222095E+00 0.55224859E+03</pdfrwt>
<totfact> 0.10580184E+01</totfact>
</mgrwt>
</event>
<event>
12    3  0.2269558E-007  0.8889949E+03  0.7818608E-02  0.9439444E-01
          1   -1    0    0  501    0  0.00000000000E+00  0.00000000000E+00  0.12012759322E+04  0.12012759322E+04  0.00000000000E+00 0. -1.
         -2   -1    0    0    0  501 -0.00000000000E+00 -0.00000000000E+00 -0.82318583060E+03  0.82318583060E+03  0.00000000000E+00 0.  1.
        -24    2    1    2    0    0  0.33610664600E+02 -0.79501684615E+03 -0.26037419415E+03  0.84102204594E+03  0.79636036644E+02 0.  0.
    5000000    2    1    2    0    0 -0.33610664600E+02  0.79501684615E+03  0.63846429574E+03  0.11834397169E+04  0.59975948850E+03 0.  0.
        -24    2    4    4    0    0 -0.24253040924E+03  0.71040365991E+03  0.44448266588E+03  0.87607526613E+03  0.80303625223E+02 0.  0.
         24    2    4    4    0    0  0.20891974464E+03  0.84613186239E+02  0.19398162986E+03  0.30736445073E+03  0.77699304120E+02 0.  0.
         13    1    5    5    0    0 -0.40166373442E+02  0.22476190258E+03  0.14937015357E+03  0.27284188312E+03  0.00000000000E+00 0. -1.
        -14    1    5    5    0    0 -0.20236403580E+03  0.48564175733E+03  0.29511251232E+03  0.60323338301E+03  0.00000000000E+00 0.  1.
         13    1    3    3    0    0 -0.62309508931E+01 -0.27209041107E+03 -0.12436819680E+03  0.29923145711E+03  0.00000000000E+00 0. -1.
        -14    1    3    3    0    0  0.39841615493E+02 -0.52292643508E+03 -0.13600599735E+03  0.54179058883E+03  0.00000000000E+00 0.  1.
          4    1    6    6  502    0  0.74695003561E+02  0.16787699700E+02  0.11318714103E+03  0.13664735385E+03  0.00000000000E+00 0. -1.
         -3    1    6    6    0  502  0.13422474108E+03  0.67825486538E+02  0.80794488828E+02  0.17071709688E+03  0.00000000000E+00 0.  1.
<mgrwt>
<rscale>  0 0.88899491E+03</rscale>
<asrwt>0</asrwt>
<pdfrwt beam="1">  1        1 0.18481168E+00 0.88899491E+03</pdfrwt>
<pdfrwt beam="2">  1       -2 0.12664397E+00 0.88899491E+03</pdfrwt>
<totfact> 0.43810517E+00</totfact>
</mgrwt>
</event>
<event>
12    3  0.2269558E-007  0.5424951E+03  0.7818608E-02  0.1003246E+00
         -2   -1    0    0    0  501 -0.00000000000E+00  0.00000000000E+00  0.42015899508E+03  0.42015899508E+03  0.00000000000E+00 0.  1.
          1   -1    0    0  501    0  0.00000000000E+00 -0.00000000000E+00 -0.11549322511E+04  0.11549322511E+04  0.00000000000E+00 0. -1.
        -24    2    1    2    0    0  0.19954292545E+02 -0.39818386465E+03  0.15069158760E+03  0.43360648197E+03  0.79737461511E+02 0.  0.
    5000000    2    1    2    0    0 -0.19954292545E+02  0.39818386465E+03 -0.88546484361E+03  0.11414847642E+04  0.59999242810E+03 0.  0.
        -24    2    4    4    0    0  0.21172441178E+03 -0.42070745581E+01 -0.43887582642E+03  0.49383979437E+03  0.80130053478E+02 0.  0.
         24    2    4    4    0    0 -0.23167870433E+03  0.40239093921E+03 -0.44658901719E+03  0.64764496983E+03  0.66398544173E+02 0.  0.
         11    1    3    3    0    0  0.38542786006E+02 -0.13766715229E+03  0.76258204157E+02  0.16202809903E+03  0.00000000000E+00 0. -1.
        -12    1    3    3    0    0 -0.18588493461E+02 -0.26051671236E+03  0.74433383445E+02  0.27157838294E+03  0.00000000000E+00 0.  1.
         11    1    5    5    0    0  0.50919534183E+02 -0.18335741590E+02 -0.53862390591E+02  0.76355454955E+02  0.00000000000E+00 0. -1.
        -12    1    5    5    0    0  0.16080487760E+03  0.14128667032E+02 -0.38501343583E+03  0.41748433942E+03  0.00000000000E+00 0.  1.
          2    1    6    6  502    0 -0.76253303527E+02  0.16194864941E+03 -0.13290028278E+03  0.22294487325E+03  0.00000000000E+00 0. -1.
         -3    1    6    6    0  502 -0.15542540080E+03  0.24044228980E+03 -0.31368873441E+03  0.42470009658E+03  0.00000000000E+00 0.  1.
<mgrwt>
<rscale>  0 0.54249514E+03</rscale>
<asrwt>0</asrwt>
<pdfrwt beam="1">  1        1 0.17768189E+00 0.54249514E+03</pdfrwt>
<pdfrwt beam="2">  1       -2 0.64639845E-01 0.54249514E+03</pdfrwt>
<totfact> 0.23526750E+01</totfact>
</mgrwt>
</event>
<event>
12    3  0.2269558E-007  0.9298550E+03  0.7818608E-02  0.9389012E-01
          1   -1    0    0  501    0  0.00000000000E+00  0.00000000000E+00  0.89086172826E+03  0.89086172826E+03  0.00000000000E+00 0. -1.
         -2   -1    0    0    0  501 -0.00000000000E+00 -0.00000000000E+00 -0.14883530633E+04  0.14883530633E+04  0.00000000000E+00 0.  1.
        -24    2    1    2    0    0 -0.89602934232E+03 -0.22514660522E+02  0.32795974570E+03  0.95799803755E+03  0.82626587171E+02 0.  0.
    5000000    2    1    2    0    0  0.89602934232E+03  0.22514660522E+02 -0.92545108078E+03  0.14212167540E+04  0.60001822206E+03 0.  0.
        -24    2    4    4    0    0  0.25775743216E+03 -0.14880097179E+03 -0.61294667220E+03  0.68586500076E+03  0.78272302086E+02 0.  0.
         24    2    4    4    0    0  0.63827191016E+03  0.17131563231E+03 -0.31250440858E+03  0.73535175327E+03  0.79643697120E+02 0.  0.
         11    1    3    3    0    0 -0.42864831903E+03 -0.37529202069E+02  0.12373656439E+03  0.44772598739E+03  0.00000000000E+00 0. -1.
        -12    1    3    3    0    0 -0.46738102329E+03  0.15014541547E+02  0.20422318131E+03  0.51027205016E+03  0.00000000000E+00 0.  1.
         13    1    5    5    0    0  0.23963291215E+03 -0.14969518614E+03 -0.52639430560E+03  0.59743078788E+03  0.00000000000E+00 0. -1.
        -14    1    5    5    0    0  0.18124520015E+02  0.89421434813E+00 -0.86552366591E+02  0.88434212879E+02  0.00000000000E+00 0.  1.
          4    1    6    6  502    0  0.58163465373E+03  0.15077254393E+03 -0.30729585363E+03  0.67487922777E+03  0.00000000000E+00 0. -1.
         -3    1    6    6    0  502  0.56637256430E+02  0.20543088378E+02 -0.52085549538E+01  0.60472525503E+02  0.00000000000E+00 0.  1.
<mgrwt>
<rscale>  0 0.92985495E+03</rscale>
<asrwt>0</asrwt>
<pdfrwt beam="1">  1        1 0.13705565E+00 0.92985495E+03</pdfrwt>
<pdfrwt beam="2">  1       -2 0.22897739E+00 0.92985495E+03</pdfrwt>
<totfact> 0.14195858E+00</totfact>
</mgrwt>
</event>
<event>
12    3  0.2269558E-007  0.9395967E+03  0.7818608E-02  0.9377394E-01
         -4   -1    0    0    0  501 -0.00000000000E+00  0.00000000000E+00  0.27820962751E+04  0.27820962751E+04  0.00000000000E+00 0.  1.
          3   -1    0    0  501    0  0.00000000000E+00 -0.00000000000E+00 -0.33868284238E+03  0.33868284238E+03  0.00000000000E+00 0. -1.
        -24    2    1    2    0    0  0.81393407436E+03  0.32407372696E+03  0.11072106470E+04  0.14140918541E+04  0.78917027209E+02 0.  0.
    5000000    2    1    2    0    0 -0.81393407436E+03 -0.32407372696E+03  0.13362027857E+04  0.17066872634E+04  0.59985921047E+03 0.  0.
        -24    2    4    4    0    0 -0.86870905637E+03 -0.25712218964E+03  0.12931099677E+04  0.15809029486E+04  0.79708841025E+02 0.  0.
         24    2    4    4    0    0  0.54774982012E+02 -0.66951537322E+02  0.43092818006E+02  0.12578431472E+03  0.80510222095E+02 0.  0.
         11    1    3    3    0    0  0.34464205979E+03  0.15365852316E+03  0.53495350787E+03  0.65464826181E+03  0.00000000000E+00 0. -1.
        -12    1    3    3    0    0  0.46929201456E+03  0.17041520380E+03  0.57225713910E+03  0.75944359229E+03  0.00000000000E+00 0.  1.
         13    1    5    5    0    0 -0.14365073969E+03 -0.68459204149E+02  0.19760026266E+03  0.25370861525E+03  0.00000000000E+00 0. -1.
        -14    1    5    5    0    0 -0.72505831667E+03 -0.18866298549E+03  0.10955097051E+04  0.13271943334E+04  0.00000000000E+00 0.  1.
          2    1    6    6  502    0  0.38065305447E+02 -0.67532562909E+02  0.62924222754E+02  0.99845241955E+02  0.00000000000E+00 0. -1.
         -1    1    6    6    0  502  0.16709676565E+02  0.58102558726E+00 -0.19831404748E+02  0.25939072765E+02  0.00000000000E+00 0.  1.
<mgrwt>
<rscale>  0 0.93959667E+03</rscale>
<asrwt>0</asrwt>
<pdfrwt beam="1">  1        3 0.52105055E-01 0.93959667E+03</pdfrwt>
<pdfrwt beam="2">  1       -4 0.42801479E+00 0.93959667E+03</pdfrwt>
<totfact> 0.36639209E-02</totfact>
</mgrwt>
</event>
<event>
12    3  0.2269558E-007  0.5431089E+03  0.7818608E-02  0.1003102E+00
         -2   -1    0    0    0  501 -0.00000000000E+00  0.00000000000E+00  0.47239051311E+03  0.47239051311E+03  0.00000000000E+00 0.  1.
          1   -1    0    0  501    0  0.00000000000E+00 -0.00000000000E+00 -0.75214064659E+03  0.75214064659E+03  0.00000000000E+00 0. -1.
        -24    2    1    2    0    0  0.85901897659E+02  0.38895392541E+03 -0.29791280694E+03  0.50407325418E+03  0.81691571937E+02 0.  0.
    5000000    2    1    2    0    0 -0.85901897659E+02 -0.38895392541E+03  0.18162673457E+02  0.72045790553E+03  0.60005451321E+03 0.  0.
        -24    2    4    4    0    0  0.18369804587E+03 -0.36000813095E+03 -0.83442321186E+02  0.42005617974E+03  0.78318240332E+02 0.  0.
         24    2    4    4    0    0 -0.26959994353E+03 -0.28945794458E+02  0.10160499464E+03  0.30040172579E+03  0.79972703809E+02 0.  0.
         11    1    5    5    0    0  0.13682397021E+03 -0.28412041477E+03 -0.96783148017E+02  0.32986692264E+03  0.00000000000E+00 0. -1.
        -12    1    5    5    0    0  0.46874075657E+02 -0.75887716184E+02  0.13340826831E+02  0.90189257103E+02  0.00000000000E+00 0.  1.
         13    1    3    3    0    0  0.52658388239E+01  0.11660385216E+03 -0.12739996859E+03  0.17278581942E+03  0.00000000000E+00 0. -1.
        -14    1    3    3    0    0  0.80636058835E+02  0.27235007325E+03 -0.17051283835E+03  0.33128743475E+03  0.00000000000E+00 0.  1.
          2    1    6    6  502    0 -0.17450140746E+03  0.16940975498E+02  0.46923616483E+02  0.18149259941E+03  0.00000000000E+00 0. -1.
         -1    1    6    6    0  502 -0.95098536063E+02 -0.45886769956E+02  0.54681378159E+02  0.11890912638E+03  0.00000000000E+00 0.  1.
<mgrwt>
<rscale>  0 0.54310892E+03</rscale>
<asrwt>0</asrwt>
<pdfrwt beam="1">  1        1 0.11571395E+00 0.54310892E+03</pdfrwt>
<pdfrwt beam="2">  1       -2 0.72675464E-01 0.54310892E+03</pdfrwt>
<totfact> 0.38057159E+01</totfact>
</mgrwt>
</event>
<event>
12    3  0.2269558E-007  0.1511838E+04  0.7818608E-02  0.8876619E-01
         -2   -1    0    0    0  501 -0.00000000000E+00  0.00000000000E+00  0.11418212567E+04  0.11418212567E+04  0.00000000000E+00 0.  1.
          1   -1    0    0  501    0  0.00000000000E+00 -0.00000000000E+00 -0.22372435462E+04  0.22372435462E+04  0.00000000000E+00 0. -1.
        -24    2    1    2    0    0  0.13293594859E+04  0.68405541977E+03 -0.92303098710E+03  0.17588525392E+04  0.80296895269E+02 0.  0.
    5000000    2    1    2    0    0 -0.13293594859E+04 -0.68405541977E+03 -0.17239130234E+03  0.16202122637E+04  0.60020043189E+03 0.  0.
        -24    2    4    4    0    0 -0.12572936208E+04 -0.58910498569E+03  0.62436865279E+01  0.13908833851E+04  0.81765973529E+02 0.  0.
         24    2    4    4    0    0 -0.72065865105E+02 -0.94950434079E+02 -0.17863498886E+03  0.22932887860E+03  0.80449993588E+02 0.  0.
         11    1    3    3    0    0  0.11039608431E+04  0.58069437049E+03 -0.80174855944E+03  0.14828136254E+04  0.00000000000E+00 0. -1.
        -12    1    3    3    0    0  0.22539864277E+03  0.10336104928E+03 -0.12128242767E+03  0.27603891380E+03  0.00000000000E+00 0.  1.
         13    1    5    5    0    0 -0.88182097114E+03 -0.41171252509E+03 -0.33054438028E+02  0.97375973645E+03  0.00000000000E+00 0. -1.
        -14    1    5    5    0    0 -0.37547264965E+03 -0.17739246061E+03  0.39298124555E+02  0.41712364870E+03  0.00000000000E+00 0.  1.
          4    1    6    6  502    0  0.24243327827E+01 -0.55545817612E+02 -0.45874453270E+02  0.72081070375E+02  0.00000000000E+00 0. -1.
         -3    1    6    6    0  502 -0.74490197887E+02 -0.39404616467E+02 -0.13276053559E+03  0.15724780822E+03  0.00000000000E+00 0.  1.
<mgrwt>
<rscale>  0 0.15118377E+04</rscale>
<asrwt>0</asrwt>
<pdfrwt beam="1">  1        1 0.34419131E+00 0.15118377E+04</pdfrwt>
<pdfrwt beam="2">  1       -2 0.17566481E+00 0.15118377E+04</pdfrwt>
<totfact> 0.33007660E-01</totfact>
</mgrwt>
</event>
<event>
12    3  0.2269558E-007  0.1067212E+04  0.7818608E-02  0.9237752E-01
         -2   -1    0    0    0  501 -0.00000000000E+00  0.00000000000E+00  0.67047596523E+03  0.67047596523E+03  0.00000000000E+00 0.  1.
          1   -1    0    0  501    0  0.00000000000E+00 -0.00000000000E+00 -0.28765174532E+04  0.28765174532E+04  0.00000000000E+00 0. -1.
        -24    2    1    2    0    0  0.10172045479E+04 -0.29209653176E+03 -0.39332375265E+02  0.10620975670E+04  0.80490558206E+02 0.  0.
    5000000    2    1    2    0    0 -0.10172045479E+04  0.29209653176E+03 -0.21667091127E+04  0.24848958515E+04  0.60004461278E+03 0.  0.
        -24    2    4    4    0    0 -0.66529378506E+03  0.15778903989E+03 -0.18879992582E+04  0.20095977714E+04  0.80179811769E+02 0.  0.
         24    2    4    4    0    0 -0.35191076282E+03  0.13430749188E+03 -0.27870985452E+03  0.47529808007E+03  0.79683088237E+02 0.  0.
         13    1    3    3    0    0  0.91876174805E+03 -0.23984611856E+03 -0.26623181848E+02  0.94992531500E+03  0.00000000000E+00 0. -1.
        -14    1    3    3    0    0  0.98442799833E+02 -0.52250413205E+02 -0.12709193417E+02  0.11217225199E+03  0.00000000000E+00 0.  1.
         13    1    5    5    0    0 -0.63431700091E+03  0.13150281386E+03 -0.17779707085E+04  0.18923083491E+04  0.00000000000E+00 0. -1.
        -14    1    5    5    0    0 -0.30976784156E+02  0.26286226028E+02 -0.11002854973E+03  0.11728942234E+03  0.00000000000E+00 0.  1.
          4    1    6    6  502    0 -0.31337686553E+03  0.89529891434E+02 -0.23443047721E+03  0.40147018564E+03  0.00000000000E+00 0. -1.
         -3    1    6    6    0  502 -0.38533897285E+02  0.44777600442E+02 -0.44279377309E+02  0.73827894432E+02  0.00000000000E+00 0.  1.
<mgrwt>
<rscale>  0 0.10672120E+04</rscale>
<asrwt>0</asrwt>
<pdfrwt beam="1">  1        1 0.44254115E+00 0.10672120E+04</pdfrwt>
<pdfrwt beam="2">  1       -2 0.10315015E+00 0.10672120E+04</pdfrwt>
<totfact> 0.49912646E-01</totfact>
</mgrwt>
</event>
<event>
12    3  0.2269558E-007  0.9165845E+03  0.7818608E-02  0.9405084E-01
         -2   -1    0    0    0  501 -0.00000000000E+00  0.00000000000E+00  0.40828183684E+03  0.40828183684E+03  0.00000000000E+00 0.  1.
          1   -1    0    0  501    0  0.00000000000E+00 -0.00000000000E+00 -0.24758661252E+04  0.24758661252E+04  0.00000000000E+00 0. -1.
        -24    2    1    2    0    0  0.57529194582E+03  0.69543452237E+03 -0.73636203632E+03  0.11675241792E+04  0.79332607187E+02 0.  0.
    5000000    2    1    2    0    0 -0.57529194582E+03 -0.69543452237E+03 -0.13312222521E+04  0.17166237829E+04  0.60004543977E+03 0.  0.
        -24    2    4    4    0    0 -0.37759627938E+03 -0.30676323199E+03 -0.26402724654E+03  0.56106663557E+03  0.91666525703E+02 0.  0.
         24    2    4    4    0    0 -0.19769566644E+03 -0.38867129039E+03 -0.10671950056E+04  0.11555571474E+04  0.79108737964E+02 0.  0.
         13    1    3    3    0    0  0.50627009710E+03  0.56743177236E+03 -0.61032923614E+03  0.97508461375E+03  0.00000000000E+00 0. -1.
        -14    1    3    3    0    0  0.69021848720E+02  0.12800275002E+03 -0.12603280018E+03  0.19243956541E+03  0.00000000000E+00 0.  1.
         13    1    5    5    0    0 -0.37667667338E+03 -0.30339163652E+03 -0.27016443339E+03  0.55400417187E+03  0.00000000000E+00 0. -1.
        -14    1    5    5    0    0 -0.91960599816E+00 -0.33715954623E+01  0.61371868451E+01  0.70624637008E+01  0.00000000000E+00 0.  1.
          2    1    6    6  502    0 -0.18517691328E+03 -0.31495449691E+03 -0.82999090611E+03  0.90684713627E+03  0.00000000000E+00 0. -1.
         -3    1    6    6    0  502 -0.12518753168E+02 -0.73716793476E+02 -0.23720409944E+03  0.24871001108E+03  0.00000000000E+00 0.  1.
<mgrwt>
<rscale>  0 0.91658454E+03</rscale>
<asrwt>0</asrwt>
<pdfrwt beam="1">  1        1 0.38090248E+00 0.91658454E+03</pdfrwt>
<pdfrwt beam="2">  1       -2 0.62812591E-01 0.91658454E+03</pdfrwt>
<totfact> 0.29842595E+00</totfact>
</mgrwt>
</event>
<event>
12    3  0.2269558E-007  0.4336673E+03  0.7818608E-02  0.1032708E+00
          1   -1    0    0  501    0  0.00000000000E+00  0.00000000000E+00  0.68887708601E+03  0.68887708601E+03  0.00000000000E+00 0. -1.
         -2   -1    0    0    0  501 -0.00000000000E+00 -0.00000000000E+00 -0.33652099686E+03  0.33652099686E+03  0.00000000000E+00 0.  1.
        -24    2    1    2    0    0  0.35920679810E+02 -0.23434619223E+03  0.28102860720E+03  0.37626972152E+03  0.79958690704E+02 0.  0.
    5000000    2    1    2    0    0 -0.35920679810E+02  0.23434619223E+03  0.71327481947E+02  0.64912836135E+03  0.60005965268E+03 0.  0.
        -24    2    4    4    0    0 -0.23122024514E+03  0.33232176134E+03  0.55764609092E+02  0.41609144132E+03  0.78242195081E+02 0.  0.
         24    2    4    4    0    0  0.19529956533E+03 -0.97975569107E+02  0.15562872855E+02  0.23303692003E+03  0.79516480838E+02 0.  0.
         11    1    3    3    0    0  0.19819949261E+02 -0.20468186901E+03  0.27262919587E+03  0.34148817891E+03  0.00000000000E+00 0. -1.
        -12    1    3    3    0    0  0.16100730549E+02 -0.29664323218E+02  0.83994113308E+01  0.34781542618E+02  0.00000000000E+00 0.  1.
         11    1    5    5    0    0 -0.18606302341E+01  0.10250465625E+02 -0.10944714484E+02  0.15110286745E+02  0.00000000000E+00 0. -1.
        -12    1    5    5    0    0 -0.22935961491E+03  0.32207129571E+03  0.66709323575E+02  0.40098115457E+03  0.00000000000E+00 0.  1.
          2    1    6    6  502    0  0.78749794333E+02 -0.61779273026E+02 -0.27199474173E+02  0.10372087581E+03  0.00000000000E+00 0. -1.
         -1    1    6    6    0  502  0.11654977100E+03 -0.36196296082E+02  0.42762347028E+02  0.12931604422E+03  0.00000000000E+00 0.  1.
<mgrwt>
<rscale>  0 0.43366728E+03</rscale>
<asrwt>0</asrwt>
<pdfrwt beam="1">  1        1 0.10598109E+00 0.43366728E+03</pdfrwt>
<pdfrwt beam="2">  1       -2 0.51772461E-01 0.43366728E+03</pdfrwt>
<totfact> 0.89963249E+01</totfact>
</mgrwt>
</event>
<event>
12    3  0.2269558E-007  0.8104599E+03  0.7818608E-02  0.9544999E-01
          1   -1    0    0  501    0  0.00000000000E+00  0.00000000000E+00  0.58384345633E+03  0.58384345633E+03  0.00000000000E+00 0. -1.
         -2   -1    0    0    0  501 -0.00000000000E+00 -0.00000000000E+00 -0.13761680138E+04  0.13761680138E+04  0.00000000000E+00 0.  1.
        -24    2    1    2    0    0  0.36299576796E+03  0.60404921478E+03  0.47068882508E+02  0.71055233510E+03  0.77638648725E+02 0.  0.
    5000000    2    1    2    0    0 -0.36299576796E+03 -0.60404921478E+03 -0.83939343999E+03  0.12494591350E+04  0.59993783143E+03 0.  0.
        -24    2    4    4    0    0 -0.78289836713E+02  0.10650559333E+03 -0.11347457885E+03  0.19150661439E+03  0.79533410373E+02 0.  0.
         24    2    4    4    0    0 -0.28470593125E+03 -0.71055480811E+03 -0.72591886114E+03  0.10579525206E+04  0.79747980328E+02 0.  0.
         11    1    5    5    0    0 -0.45366067063E+02  0.12754627037E+02 -0.66740250170E+02  0.81700805041E+02  0.00000000000E+00 0. -1.
        -12    1    5    5    0    0 -0.32923769651E+02  0.93750966293E+02 -0.46734328677E+02  0.10980580934E+03  0.00000000000E+00 0.  1.
         13    1    3    3    0    0  0.24987364674E+03  0.46401474350E+03  0.12013922893E+02  0.52715354107E+03  0.00000000000E+00 0. -1.
        -14    1    3    3    0    0  0.11312212122E+03  0.14003447128E+03  0.35054959615E+02  0.18339879403E+03  0.00000000000E+00 0.  1.
          4    1    6    6  502    0 -0.19079764998E+03 -0.53972466839E+03 -0.57545140861E+03  0.81169623911E+03  0.00000000000E+00 0. -1.
         -3    1    6    6    0  502 -0.93908281267E+02 -0.17083013972E+03 -0.15046745253E+03  0.24625628154E+03  0.00000000000E+00 0.  1.
<mgrwt>
<rscale>  0 0.81045991E+03</rscale>
<asrwt>0</asrwt>
<pdfrwt beam="1">  1        1 0.89822072E-01 0.81045991E+03</pdfrwt>
<pdfrwt beam="2">  1       -2 0.21171815E+00 0.81045991E+03</pdfrwt>
<totfact> 0.35517951E+00</totfact>
</mgrwt>
</event>
<event>
12    3  0.2269558E-007  0.1249110E+04  0.7818608E-02  0.9070925E-01
          1   -1    0    0  501    0  0.00000000000E+00  0.00000000000E+00  0.18455413596E+04  0.18455413596E+04  0.00000000000E+00 0. -1.
         -2   -1    0    0    0  501 -0.00000000000E+00 -0.00000000000E+00 -0.93796134880E+03  0.93796134880E+03  0.00000000000E+00 0.  1.
        -24    2    1    2    0    0  0.89095814743E+03  0.82900079142E+03  0.14848583507E+03  0.12287547841E+04  0.82106903825E+02 0.  0.
    5000000    2    1    2    0    0 -0.89095814743E+03 -0.82900079142E+03  0.75909417570E+03  0.15547479243E+04  0.59997367253E+03 0.  0.
        -24    2    4    4    0    0 -0.74120125682E+02 -0.26527624098E+03  0.40879584001E+03  0.49928442936E+03  0.79407968946E+02 0.  0.
         24    2    4    4    0    0 -0.81683802175E+03 -0.56372455044E+03  0.35029833570E+03  0.10554634949E+04  0.79275106525E+02 0.  0.
         13    1    5    5    0    0  0.12064548063E+02 -0.94614639997E+02  0.13037030665E+03  0.16153606494E+03  0.00000000000E+00 0. -1.
        -14    1    5    5    0    0 -0.86184673744E+02 -0.17066160098E+03  0.27842553336E+03  0.33774836441E+03  0.00000000000E+00 0.  1.
         13    1    3    3    0    0  0.19632155713E+03  0.18452000707E+03 -0.12886744268E+01  0.26942800056E+03  0.00000000000E+00 0. -1.
        -14    1    3    3    0    0  0.69463659030E+03  0.64448078435E+03  0.14977450950E+03  0.95932678357E+03  0.00000000000E+00 0.  1.
          4    1    6    6  502    0 -0.30734351369E+03 -0.25131651629E+03  0.11701294907E+03  0.41389860717E+03  0.00000000000E+00 0. -1.
         -3    1    6    6    0  502 -0.50949450806E+03 -0.31240803415E+03  0.23328538663E+03  0.64156488773E+03  0.00000000000E+00 0.  1.
<mgrwt>
<rscale>  0 0.12491098E+04</rscale>
<asrwt>0</asrwt>
<pdfrwt beam="1">  1        1 0.28392944E+00 0.12491098E+04</pdfrwt>
<pdfrwt beam="2">  1       -2 0.14430175E+00 0.12491098E+04</pdfrwt>
<totfact> 0.10732406E+00</totfact>
</mgrwt>
</event>
<event>
12    3  0.2269558E-007  0.4161165E+03  0.7818608E-02  0.1038338E+00
          1   -1    0    0  501    0  0.00000000000E+00  0.00000000000E+00  0.16433509007E+03  0.16433509007E+03  0.00000000000E+00 0. -1.
         -2   -1    0    0    0  501 -0.00000000000E+00 -0.00000000000E+00 -0.11458158948E+04  0.11458158948E+04  0.00000000000E+00 0.  1.
        -24    2    1    2    0    0  0.14237125784E+03  0.15977038022E+03 -0.30552919504E+03  0.38132323440E+03  0.79140195939E+02 0.  0.
    5000000    2    1    2    0    0 -0.14237125784E+03 -0.15977038022E+03 -0.67595160965E+03  0.92882775042E+03  0.60001188481E+03 0.  0.
        -24    2    4    4    0    0 -0.26931549978E+03  0.12993559870E+03 -0.30095232928E+03  0.43179492383E+03  0.80376946362E+02 0.  0.
         24    2    4    4    0    0  0.12694424194E+03 -0.28970597892E+03 -0.37499928036E+03  0.49703282659E+03  0.79829666533E+02 0.  0.
         11    1    5    5    0    0 -0.11240232331E+03  0.62587973551E+02 -0.76170478046E+02  0.14951079708E+03  0.00000000000E+00 0. -1.
        -12    1    5    5    0    0 -0.15691317647E+03  0.67347625146E+02 -0.22478185124E+03  0.28228412674E+03  0.00000000000E+00 0.  1.
         11    1    3    3    0    0  0.97720135746E+02  0.11497486348E+03 -0.14707324060E+03  0.21071066006E+03  0.00000000000E+00 0. -1.
        -12    1    3    3    0    0  0.44651122097E+02  0.44795516743E+02 -0.15845595444E+03  0.17061257434E+03  0.00000000000E+00 0.  1.
          4    1    6    6  502    0  0.86705157822E+02 -0.23707600756E+03 -0.24844259251E+03  0.35418432987E+03  0.00000000000E+00 0. -1.
         -3    1    6    6    0  502  0.40239084120E+02 -0.52629971357E+02 -0.12655668786E+03  0.14284849673E+03  0.00000000000E+00 0.  1.
<mgrwt>
<rscale>  0 0.41611646E+03</rscale>
<asrwt>0</asrwt>
<pdfrwt beam="1">  1        1 0.25282322E-01 0.41611646E+03</pdfrwt>
<pdfrwt beam="2">  1       -2 0.17627937E+00 0.41611646E+03</pdfrwt>
<totfact> 0.33718762E+01</totfact>
</mgrwt>
</event>
<event>
12    3  0.2269558E-007  0.4638964E+03  0.7818608E-02  0.1023657E+00
         -4   -1    0    0    0  501 -0.00000000000E+00  0.00000000000E+00  0.91416866726E+03  0.91416866726E+03  0.00000000000E+00 0.  1.
          1   -1    0    0  501    0  0.00000000000E+00 -0.00000000000E+00 -0.26431363636E+03  0.26431363636E+03  0.00000000000E+00 0. -1.
        -24    2    1    2    0    0  0.22808007627E+03 -0.17203034323E+03  0.32080829340E+03  0.43696839484E+03  0.80052837520E+02 0.  0.
    5000000    2    1    2    0    0 -0.22808007627E+03  0.17203034323E+03  0.32904673750E+03  0.74151390878E+03  0.59996346662E+03 0.  0.
        -24    2    4    4    0    0  0.16592806397E+03  0.15928051714E+03  0.41900837902E+02  0.24711533706E+03  0.80049385000E+02 0.  0.
         24    2    4    4    0    0 -0.39400814024E+03  0.12749826086E+02  0.28714589960E+03  0.49439857172E+03  0.81069152126E+02 0.  0.
         13    1    5    5    0    0  0.15281079984E+03  0.11560822761E+03  0.10799970145E+02  0.19191936378E+03  0.00000000000E+00 0. -1.
        -14    1    5    5    0    0  0.13117264136E+02  0.43672289531E+02  0.31100867757E+02  0.55195973282E+02  0.00000000000E+00 0.  1.
         13    1    3    3    0    0  0.93124310118E+02 -0.24829332173E+02  0.91560491815E+02  0.13293591137E+03  0.00000000000E+00 0. -1.
        -14    1    3    3    0    0  0.13495576615E+03 -0.14720101106E+03  0.22924780159E+03  0.30403248347E+03  0.00000000000E+00 0.  1.
          4    1    6    6  502    0 -0.37808227414E+03  0.15181809083E+02  0.24893352785E+03  0.45292890682E+03  0.00000000000E+00 0. -1.
         -3    1    6    6    0  502 -0.15925866095E+02 -0.24319829972E+01  0.38212371752E+02  0.41469664902E+02  0.00000000000E+00 0.  1.
<mgrwt>
<rscale>  0 0.46389635E+03</rscale>
<asrwt>0</asrwt>
<pdfrwt beam="1">  1        1 0.40663637E-01 0.46389635E+03</pdfrwt>
<pdfrwt beam="2">  1       -4 0.14064133E+00 0.46389635E+03</pdfrwt>
<totfact> 0.17591958E+01</totfact>
</mgrwt>
</event>
<event>
12    3  0.2269558E-007  0.4638794E+03  0.7818608E-02  0.1023662E+00
         -2   -1    0    0    0  501 -0.00000000000E+00  0.00000000000E+00  0.78493913449E+03  0.78493913449E+03  0.00000000000E+00 0.  1.
          1   -1    0    0  501    0  0.00000000000E+00 -0.00000000000E+00 -0.58437148801E+03  0.58437148801E+03  0.00000000000E+00 0. -1.
        -24    2    1    2    0    0  0.16525371949E+03 -0.29345908184E+03  0.50891174364E+03  0.61537989676E+03  0.79210037250E+02 0.  0.
    5000000    2    1    2    0    0 -0.16525371949E+03  0.29345908184E+03 -0.30834409717E+03  0.75393072574E+03  0.59992368884E+03 0.  0.
        -24    2    4    4    0    0 -0.21897312508E+03 -0.50791406011E+02  0.53610346119E+02  0.24515083859E+03  0.81828283755E+02 0.  0.
         24    2    4    4    0    0  0.53719405586E+02  0.34425048785E+03 -0.36195444329E+03  0.50877988714E+03  0.80322983137E+02 0.  0.
         11    1    3    3    0    0  0.66199983236E+02 -0.13789279892E+03  0.16402034972E+03  0.22427558248E+03  0.00000000000E+00 0. -1.
        -12    1    3    3    0    0  0.99053736255E+02 -0.15556628292E+03  0.34489139393E+03  0.39110431428E+03  0.00000000000E+00 0.  1.
         11    1    5    5    0    0 -0.63447037796E+02  0.19597303478E+02  0.29802128976E+02  0.72785629077E+02  0.00000000000E+00 0. -1.
        -12    1    5    5    0    0 -0.15552608728E+03 -0.70388709489E+02  0.23808217144E+02  0.17236520952E+03  0.00000000000E+00 0.  1.
          4    1    6    6  502    0  0.43829340234E+02  0.10473061462E+03 -0.81072066553E+02  0.13950696283E+03  0.00000000000E+00 0. -1.
         -3    1    6    6    0  502  0.98900653515E+01  0.23951987324E+03 -0.28088237674E+03  0.36927292431E+03  0.00000000000E+00 0.  1.
<mgrwt>
<rscale>  0 0.46387940E+03</rscale>
<asrwt>0</asrwt>
<pdfrwt beam="1">  1        1 0.89903305E-01 0.46387940E+03</pdfrwt>
<pdfrwt beam="2">  1       -2 0.12075987E+00 0.46387940E+03</pdfrwt>
<totfact> 0.17156901E+01</totfact>
</mgrwt>
</event>
<event>
12    3  0.2269558E-007  0.7650574E+03  0.7818608E-02  0.9612019E-01
          1   -1    0    0  501    0  0.00000000000E+00  0.00000000000E+00  0.44273207049E+04  0.44273207049E+04  0.00000000000E+00 0. -1.
         -2   -1    0    0    0  501 -0.00000000000E+00 -0.00000000000E+00 -0.13580813775E+03  0.13580813775E+03  0.00000000000E+00 0.  1.
        -24    2    1    2    0    0  0.14316936888E+03 -0.63983369458E+03  0.17418860648E+04  0.18630432134E+04  0.82935681533E+02 0.  0.
    5000000    2    1    2    0    0 -0.14316936888E+03  0.63983369458E+03  0.25496265024E+04  0.27000856293E+04  0.59998539899E+03 0.  0.
        -24    2    4    4    0    0 -0.33140556747E+03  0.56805032612E+03  0.20836760649E+04  0.21864627505E+04  0.80016201506E+02 0.  0.
         24    2    4    4    0    0  0.18823619859E+03  0.71783368460E+02  0.46595043746E+03  0.51362287883E+03  0.78185248258E+02 0.  0.
         11    1    5    5    0    0 -0.87145909103E+02  0.11588525908E+03  0.55918359523E+03  0.57767646301E+03  0.00000000000E+00 0. -1.
        -12    1    5    5    0    0 -0.24425965837E+03  0.45216506704E+03  0.15244924697E+04  0.16087862875E+04  0.00000000000E+00 0.  1.
         11    1    3    3    0    0  0.74787824932E+02 -0.46481566639E+03  0.11741325880E+04  0.12650036193E+04  0.00000000000E+00 0. -1.
        -12    1    3    3    0    0  0.68381543953E+02 -0.17501802818E+03  0.56775347675E+03  0.59803959410E+03  0.00000000000E+00 0.  1.
          4    1    6    6  502    0  0.23616944593E+02 -0.13393464355E+02  0.33467717965E+02  0.43095627447E+02  0.00000000000E+00 0. -1.
         -3    1    6    6    0  502  0.16461925399E+03  0.85176832815E+02  0.43248271949E+03  0.47052725138E+03  0.00000000000E+00 0.  1.
<mgrwt>
<rscale>  0 0.76505736E+03</rscale>
<asrwt>0</asrwt>
<pdfrwt beam="1">  1        1 0.68112615E+00 0.76505736E+03</pdfrwt>
<pdfrwt beam="2">  1       -2 0.20893563E-01 0.76505736E+03</pdfrwt>
<totfact> 0.74101528E-01</totfact>
</mgrwt>
</event>
<event>
12    3  0.2269558E-007  0.9578342E+03  0.7818608E-02  0.9356040E-01
         -2   -1    0    0    0  501 -0.00000000000E+00  0.00000000000E+00  0.15156277773E+04  0.15156277773E+04  0.00000000000E+00 0.  1.
          1   -1    0    0  501    0  0.00000000000E+00 -0.00000000000E+00 -0.68642344859E+03  0.68642344859E+03  0.00000000000E+00 0. -1.
        -24    2    1    2    0    0  0.75666343250E+03  0.44718049958E+03  0.51775054271E+02  0.88408090188E+03  0.80052704663E+02 0.  0.
    5000000    2    1    2    0    0 -0.75666343250E+03 -0.44718049958E+03  0.77742927440E+03  0.13179703240E+04  0.60011627948E+03 0.  0.
        -24    2    4    4    0    0 -0.81703112239E+03 -0.32703500041E+03  0.75253635118E+03  0.11595253712E+04  0.60797862354E+02 0.  0.
         24    2    4    4    0    0  0.60367689883E+02 -0.12014549917E+03  0.24892923221E+02  0.15844495282E+03  0.80037156962E+02 0.  0.
         11    1    3    3    0    0  0.55385749202E+03  0.35234790117E+03  0.11073938758E+02  0.65652859576E+03  0.00000000000E+00 0. -1.
        -12    1    3    3    0    0  0.20280594048E+03  0.94832598413E+02  0.40701115513E+02  0.22755230612E+03  0.00000000000E+00 0.  1.
         11    1    5    5    0    0 -0.59071611517E+03 -0.23329011541E+03  0.50666159380E+03  0.81245047683E+03  0.00000000000E+00 0. -1.
        -12    1    5    5    0    0 -0.22631500722E+03 -0.93744884998E+02  0.24587475738E+03  0.34707489433E+03  0.00000000000E+00 0.  1.
          2    1    6    6  502    0  0.21517589808E+02 -0.11391280555E+03  0.99401811616E+01  0.11635265851E+03  0.00000000000E+00 0. -1.
         -1    1    6    6    0  502  0.38850100075E+02 -0.62326936217E+01  0.14952742059E+02  0.42092294316E+02  0.00000000000E+00 0.  1.
<mgrwt>
<rscale>  0 0.95783425E+03</rscale>
<asrwt>0</asrwt>
<pdfrwt beam="1">  1        1 0.10560361E+00 0.95783425E+03</pdfrwt>
<pdfrwt beam="2">  1       -2 0.23317350E+00 0.95783425E+03</pdfrwt>
<totfact> 0.20184318E+00</totfact>
</mgrwt>
</event>
<event>
12    3  0.2269558E-007  0.2568474E+03  0.7818608E-02  0.1109052E+00
          1   -1    0    0  501    0  0.00000000000E+00  0.00000000000E+00  0.98822214878E+03  0.98822214878E+03  0.00000000000E+00 0. -1.
         -2   -1    0    0    0  501 -0.00000000000E+00 -0.00000000000E+00 -0.19095070554E+03  0.19095070554E+03  0.00000000000E+00 0.  1.
        -24    2    1    2    0    0  0.20857189629E+03  0.36622486527E+01  0.29142959900E+03  0.36714662408E+03  0.79685534536E+02 0.  0.
    5000000    2    1    2    0    0 -0.20857189629E+03 -0.36622486527E+01  0.50584184423E+03  0.81202623024E+03  0.59999581602E+03 0.  0.
        -24    2    4    4    0    0 -0.23833824237E+02  0.87295956508E+02  0.56947397424E+03  0.58183324804E+03  0.77721850200E+02 0.  0.
         24    2    4    4    0    0 -0.18473807205E+03 -0.90958205161E+02 -0.63632130006E+02  0.23019298219E+03  0.80859203136E+02 0.  0.
         11    1    5    5    0    0 -0.25339122807E+02  0.28296173410E+02  0.41056611586E+03  0.41231939084E+03  0.00000000000E+00 0. -1.
        -12    1    5    5    0    0  0.15052985697E+01  0.58999783098E+02  0.15890785838E+03  0.16951385720E+03  0.00000000000E+00 0.  1.
         13    1    3    3    0    0  0.13014741146E+03  0.92909714867E+01  0.24005698901E+03  0.27322523463E+03  0.00000000000E+00 0. -1.
        -14    1    3    3    0    0  0.78424484823E+02 -0.56287228340E+01  0.51372609991E+02  0.93921389458E+02  0.00000000000E+00 0.  1.
          2    1    6    6  502    0 -0.49927597458E+02 -0.38019041979E+02  0.16204684396E+02  0.64813612284E+02  0.00000000000E+00 0. -1.
         -1    1    6    6    0  502 -0.13481047459E+03 -0.52939163182E+02 -0.79836814403E+02  0.16537936991E+03  0.00000000000E+00 0.  1.
<mgrwt>
<rscale>  0 0.25684743E+03</rscale>
<asrwt>0</asrwt>
<pdfrwt beam="1">  1        1 0.15203417E+00 0.25684743E+03</pdfrwt>
<pdfrwt beam="2">  1       -2 0.29377032E-01 0.25684743E+03</pdfrwt>
<totfact> 0.15432869E+02</totfact>
</mgrwt>
</event>
<event>
12    3  0.2269558E-007  0.7954290E+03  0.7818608E-02  0.9566657E-01
         -2   -1    0    0    0  501 -0.00000000000E+00  0.00000000000E+00  0.10669670104E+04  0.10669670104E+04  0.00000000000E+00 0.  1.
          1   -1    0    0  501    0  0.00000000000E+00 -0.00000000000E+00 -0.72968017893E+03  0.72968017893E+03  0.00000000000E+00 0. -1.
        -24    2    1    2    0    0 -0.24038099383E+03 -0.66222128176E+03 -0.18681019892E+03  0.73317096824E+03  0.79508301720E+02 0.  0.
    5000000    2    1    2    0    0  0.24038099383E+03  0.66222128176E+03  0.52409703036E+03  0.10634762210E+04  0.59998660593E+03 0.  0.
        -24    2    4    4    0    0 -0.56945329722E+02 -0.55084991674E+02 -0.17330927090E+02  0.11359016692E+03  0.79531365528E+02 0.  0.
         24    2    4    4    0    0  0.29732632355E+03  0.71730627343E+03  0.54142795745E+03  0.94988605412E+03  0.78791180539E+02 0.  0.
         13    1    3    3    0    0 -0.36175801502E+02 -0.20283921885E+03 -0.62395867491E+02  0.21528047194E+03  0.00000000000E+00 0. -1.
        -14    1    3    3    0    0 -0.20420519233E+03 -0.45938206290E+03 -0.12441433143E+03  0.51789049630E+03  0.00000000000E+00 0.  1.
         13    1    5    5    0    0 -0.56833435488E+02 -0.78501843093E+01 -0.29920481419E+02  0.64706259291E+02  0.00000000000E+00 0. -1.
        -14    1    5    5    0    0 -0.11189423429E+00 -0.47234807365E+02  0.12589554329E+02  0.48883907632E+02  0.00000000000E+00 0.  1.
          2    1    6    6  502    0  0.14495486599E+03  0.29879544833E+03  0.19049221890E+03  0.38285495762E+03  0.00000000000E+00 0. -1.
         -1    1    6    6    0  502  0.15237145756E+03  0.41851082510E+03  0.35093573854E+03  0.56703109650E+03  0.00000000000E+00 0.  1.
<mgrwt>
<rscale>  0 0.79542903E+03</rscale>
<asrwt>0</asrwt>
<pdfrwt beam="1">  1        1 0.11225849E+00 0.79542903E+03</pdfrwt>
<pdfrwt beam="2">  1       -2 0.16414877E+00 0.79542903E+03</pdfrwt>
<totfact> 0.53521493E+00</totfact>
</mgrwt>
</event>
<event>
12    3  0.2269558E-007  0.5509175E+03  0.7818608E-02  0.1001282E+00
          1   -1    0    0  501    0  0.00000000000E+00  0.00000000000E+00  0.70762794338E+03  0.70762794338E+03  0.00000000000E+00 0. -1.
         -2   -1    0    0    0  501 -0.00000000000E+00 -0.00000000000E+00 -0.74533896061E+03  0.74533896061E+03  0.00000000000E+00 0.  1.
        -24    2    1    2    0    0  0.51699622759E+03  0.17916518451E+02 -0.31777555625E+03  0.61266723125E+03  0.82302679930E+02 0.  0.
    5000000    2    1    2    0    0 -0.51699622759E+03 -0.17916518451E+02  0.28006453901E+03  0.84029967275E+03  0.60005107536E+03 0.  0.
        -24    2    4    4    0    0 -0.28513546434E+03  0.11115907287E+03  0.42290105411E+03  0.52831226764E+03  0.81301771604E+02 0.  0.
         24    2    4    4    0    0 -0.23186076324E+03 -0.12907559132E+03 -0.14283651509E+03  0.31198740511E+03  0.80709039749E+02 0.  0.
         13    1    3    3    0    0  0.21127457993E+03 -0.13150288959E+02 -0.89332593090E+02  0.22976115950E+03  0.00000000000E+00 0. -1.
        -14    1    3    3    0    0  0.30572164765E+03  0.31066807410E+02 -0.22844296316E+03  0.38290607175E+03  0.00000000000E+00 0.  1.
         13    1    5    5    0    0 -0.12930938050E+03  0.38722102094E+02  0.25246549280E+03  0.28628507144E+03  0.00000000000E+00 0. -1.
        -14    1    5    5    0    0 -0.15582608384E+03  0.72436970773E+02  0.17043556131E+03  0.24202719620E+03  0.00000000000E+00 0.  1.
          4    1    6    6  502    0 -0.13052835963E+03 -0.11455074607E+03 -0.74906535660E+02  0.18913094717E+03  0.00000000000E+00 0. -1.
         -3    1    6    6    0  502 -0.10133240362E+03 -0.14524845248E+02 -0.67929979433E+02  0.12285645794E+03  0.00000000000E+00 0.  1.
<mgrwt>
<rscale>  0 0.55091747E+03</rscale>
<asrwt>0</asrwt>
<pdfrwt beam="1">  1        1 0.10886584E+00 0.55091747E+03</pdfrwt>
<pdfrwt beam="2">  1       -2 0.11466753E+00 0.55091747E+03</pdfrwt>
<totfact> 0.14559217E+01</totfact>
</mgrwt>
</event>
<event>
12    3  0.2269558E-007  0.1363305E+04  0.7818608E-02  0.8980817E-01
          1   -1    0    0  501    0  0.00000000000E+00  0.00000000000E+00  0.23916235648E+04  0.23916235648E+04  0.00000000000E+00 0. -1.
         -2   -1    0    0    0  501 -0.00000000000E+00 -0.00000000000E+00 -0.10804787540E+04  0.10804787540E+04  0.00000000000E+00 0.  1.
        -24    2    1    2    0    0  0.93988930504E+03  0.93230325088E+03  0.15047863145E+04  0.20058700554E+04  0.80941767150E+02 0.  0.
    5000000    2    1    2    0    0 -0.93988930504E+03 -0.93230325088E+03 -0.19364150367E+03  0.14662322633E+04  0.59979893355E+03 0.  0.
        -24    2    4    4    0    0 -0.24246976179E+03 -0.55370952869E+03  0.97168801921E+02  0.61747339851E+03  0.80285703949E+02 0.  0.
         24    2    4    4    0    0 -0.69741954324E+03 -0.37859372219E+03 -0.29081030559E+03  0.84875886479E+03  0.78062481038E+02 0.  0.
         13    1    5    5    0    0 -0.35392962604E+02 -0.38614753219E+02 -0.62818047130E+01  0.52756251180E+02  0.00000000000E+00 0. -1.
        -14    1    5    5    0    0 -0.20707679919E+03 -0.51509477547E+03  0.10345060663E+03  0.56471714733E+03  0.00000000000E+00 0.  1.
         13    1    3    3    0    0  0.45737514982E+03  0.44520986816E+03  0.66509935439E+03  0.92182482370E+03  0.00000000000E+00 0. -1.
        -14    1    3    3    0    0  0.48251415521E+03  0.48709338273E+03  0.83968696009E+03  0.10840452317E+04  0.00000000000E+00 0.  1.
          4    1    6    6  502    0 -0.49175277478E+01 -0.88723157857E+01  0.29709986135E+01  0.10570094574E+02  0.00000000000E+00 0. -1.
         -3    1    6    6    0  502 -0.69250201550E+03 -0.36972140641E+03 -0.29378130420E+03  0.83818877022E+03  0.00000000000E+00 0.  1.
<mgrwt>
<rscale>  0 0.13633045E+04</rscale>
<asrwt>0</asrwt>
<pdfrwt beam="1">  1        1 0.36794208E+00 0.13633045E+04</pdfrwt>
<pdfrwt beam="2">  1       -2 0.16622750E+00 0.13633045E+04</pdfrwt>
<totfact> 0.30730097E-01</totfact>
</mgrwt>
</event>
<event>
12    3  0.2269558E-007  0.1450519E+04  0.7818608E-02  0.8918040E-01
         -2   -1    0    0    0  501 -0.00000000000E+00  0.00000000000E+00  0.26530431625E+04  0.26530431625E+04  0.00000000000E+00 0.  1.
          1   -1    0    0  501    0  0.00000000000E+00 -0.00000000000E+00 -0.91813718211E+03  0.91813718211E+03  0.00000000000E+00 0. -1.
        -24    2    1    2    0    0 -0.40430736478E+03 -0.13552075116E+04  0.14146171734E+04  0.20018783082E+04  0.79518356314E+02 0.  0.
    5000000    2    1    2    0    0  0.40430736478E+03  0.13552075116E+04  0.32028880693E+03  0.15693020363E+04  0.60006009433E+03 0.  0.
        -24    2    4    4    0    0  0.95807086899E+02  0.21122956837E+02 -0.61988749919E+02  0.14540464455E+03  0.87605526845E+02 0.  0.
         24    2    4    4    0    0  0.30850027788E+03  0.13340845547E+04  0.38227755685E+03  0.14238973918E+04  0.79960185592E+02 0.  0.
         11    1    3    3    0    0 -0.31907044676E+03 -0.95817441098E+03  0.10323683900E+04  0.14441913462E+04  0.00000000000E+00 0. -1.
        -12    1    3    3    0    0 -0.85236918020E+02 -0.39703310058E+03  0.38224878340E+03  0.55768696198E+03  0.00000000000E+00 0.  1.
         13    1    5    5    0    0  0.24219525998E+02 -0.19547681412E+02  0.13291345678E+02  0.33843125714E+02  0.00000000000E+00 0. -1.
        -14    1    5    5    0    0  0.71587560901E+02  0.40670638250E+02 -0.75280095597E+02  0.11156151883E+03  0.00000000000E+00 0.  1.
          4    1    6    6  502    0  0.29354343322E+02  0.26690261243E+03  0.78171115625E+02  0.27965944524E+03  0.00000000000E+00 0. -1.
         -3    1    6    6    0  502  0.27914593456E+03  0.10671819423E+04  0.30410644122E+03  0.11442379466E+04  0.00000000000E+00 0.  1.
<mgrwt>
<rscale>  0 0.14505195E+04</rscale>
<asrwt>0</asrwt>
<pdfrwt beam="1">  1        1 0.14125188E+00 0.14505195E+04</pdfrwt>
<pdfrwt beam="2">  1       -2 0.40816048E+00 0.14505195E+04</pdfrwt>
<totfact> 0.96878512E-02</totfact>
</mgrwt>
</event>
<event>
12    3  0.2269558E-007  0.1262037E+04  0.7818608E-02  0.9060224E-01
         -2   -1    0    0    0  501 -0.00000000000E+00  0.00000000000E+00  0.31047339094E+04  0.31047339094E+04  0.00000000000E+00 0.  1.
          1   -1    0    0  501    0  0.00000000000E+00 -0.00000000000E+00 -0.69293660644E+03  0.69293660644E+03  0.00000000000E+00 0. -1.
        -24    2    1    2    0    0 -0.12268023758E+04 -0.27949931904E+03  0.19629025944E+04  0.23331871710E+04  0.87245865085E+02 0.  0.
    5000000    2    1    2    0    0  0.12268023758E+04  0.27949931904E+03  0.44889470856E+03  0.14644833449E+04  0.60003422370E+03 0.  0.
        -24    2    4    4    0    0  0.35317184703E+03  0.49068929144E+02 -0.12902061455E+03  0.38737926898E+03  0.79235507954E+02 0.  0.
         24    2    4    4    0    0  0.87363052874E+03  0.23043038989E+03  0.57791532311E+03  0.10771040759E+04  0.99189739130E+02 0.  0.
         11    1    3    3    0    0 -0.46171005547E+03 -0.82780238087E+02  0.79893031890E+03  0.92645474665E+03  0.00000000000E+00 0. -1.
        -12    1    3    3    0    0 -0.76509232030E+03 -0.19671908095E+03  0.11639722755E+04  0.14067324243E+04  0.00000000000E+00 0.  1.
         13    1    5    5    0    0  0.51096820612E+02 -0.18139792631E+00 -0.49527170460E+02  0.71160793951E+02  0.00000000000E+00 0. -1.
        -14    1    5    5    0    0  0.30207502641E+03  0.49250327070E+02 -0.79493444092E+02  0.31621847503E+03  0.00000000000E+00 0.  1.
          2    1    6    6  502    0  0.12473972841E+02 -0.73547725053E+01  0.16551304121E+02  0.21991779036E+02  0.00000000000E+00 0. -1.
         -1    1    6    6    0  502  0.86115655590E+03  0.23778516240E+03  0.56136401899E+03  0.10551122969E+04  0.00000000000E+00 0.  1.
<mgrwt>
<rscale>  0 0.12620369E+04</rscale>
<asrwt>0</asrwt>
<pdfrwt beam="1">  1        1 0.10660563E+00 0.12620369E+04</pdfrwt>
<pdfrwt beam="2">  1       -2 0.47765136E+00 0.12620369E+04</pdfrwt>
<totfact> 0.54320130E-02</totfact>
</mgrwt>
</event>
<event>
12    3  0.2269558E-007  0.4875881E+03  0.7818608E-02  0.1017070E+00
         -2   -1    0    0    0  501 -0.00000000000E+00  0.00000000000E+00  0.30426435345E+03  0.30426435345E+03  0.00000000000E+00 0.  1.
          1   -1    0    0  501    0  0.00000000000E+00 -0.00000000000E+00 -0.17474823234E+04  0.17474823234E+04  0.00000000000E+00 0. -1.
        -24    2    1    2    0    0  0.41420126695E+03 -0.23860569437E+03 -0.11173751352E+04  0.12182419780E+04  0.84207821249E+02 0.  0.
    5000000    2    1    2    0    0 -0.41420126695E+03  0.23860569437E+03 -0.32584283473E+03  0.83350469889E+03  0.60005096716E+03 0.  0.
        -24    2    4    4    0    0 -0.26303549144E+03  0.19762797181E+03  0.11577592164E+03  0.35831415348E+03  0.82100447944E+02 0.  0.
         24    2    4    4    0    0 -0.15116577551E+03  0.40977722552E+02 -0.44161875637E+03  0.47519054541E+03  0.79048485318E+02 0.  0.
         11    1    5    5    0    0 -0.18752086079E+03  0.11397905288E+03  0.41464981836E+02  0.22332631382E+03  0.00000000000E+00 0. -1.
        -12    1    5    5    0    0 -0.75514630652E+02  0.83648918939E+02  0.74310939806E+02  0.13498783966E+03  0.00000000000E+00 0.  1.
         13    1    3    3    0    0  0.33040237203E+03 -0.14878388264E+03 -0.82012026350E+03  0.89660449351E+03  0.00000000000E+00 0. -1.
        -14    1    3    3    0    0  0.83798894924E+02 -0.89821811722E+02 -0.29725487172E+03  0.32163748446E+03  0.00000000000E+00 0.  1.
          2    1    6    6  502    0 -0.43871197549E+02  0.21256996037E+02 -0.24986776036E+03  0.25457894556E+03  0.00000000000E+00 0. -1.
         -1    1    6    6    0  502 -0.10729457796E+03  0.19720726515E+02 -0.19175099601E+03  0.22061159984E+03  0.00000000000E+00 0.  1.
<mgrwt>
<rscale>  0 0.48758811E+03</rscale>
<asrwt>0</asrwt>
<pdfrwt beam="1">  1        1 0.26884344E+00 0.48758811E+03</pdfrwt>
<pdfrwt beam="2">  1       -2 0.46809900E-01 0.48758811E+03</pdfrwt>
<totfact> 0.18137791E+01</totfact>
</mgrwt>
</event>
<event>
12    3  0.2269558E-007  0.6383038E+03  0.7818608E-02  0.9828977E-01
         -2   -1    0    0    0  501 -0.00000000000E+00  0.00000000000E+00  0.66381573224E+03  0.66381573224E+03  0.00000000000E+00 0.  1.
          1   -1    0    0  501    0  0.00000000000E+00 -0.00000000000E+00 -0.97426105550E+03  0.97426105550E+03  0.00000000000E+00 0. -1.
        -24    2    1    2    0    0 -0.46171094758E+03  0.41455159264E+03 -0.44018737016E+03  0.76524634008E+03  0.82504654938E+02 0.  0.
    5000000    2    1    2    0    0  0.46171094758E+03 -0.41455159264E+03  0.12974204691E+03  0.87283044766E+03  0.59997497411E+03 0.  0.
        -24    2    4    4    0    0  0.38120719150E+03 -0.26621448868E+03  0.34894755373E+03  0.58543977190E+03  0.69182761118E+02 0.  0.
         24    2    4    4    0    0  0.80503756073E+02 -0.14833710396E+03 -0.21920550682E+03  0.28739067576E+03  0.77830554032E+02 0.  0.
         11    1    3    3    0    0 -0.25444965698E+03  0.28202365238E+03 -0.26000062514E+03  0.46030673850E+03  0.00000000000E+00 0. -1.
        -12    1    3    3    0    0 -0.20726129060E+03  0.13252794026E+03 -0.18018674503E+03  0.30493960158E+03  0.00000000000E+00 0.  1.
         11    1    5    5    0    0  0.33419212461E+03 -0.24643939702E+03  0.28493466757E+03  0.50359161762E+03  0.00000000000E+00 0. -1.
        -12    1    5    5    0    0  0.47015066896E+02 -0.19775091659E+02  0.64012886155E+02  0.81848154281E+02  0.00000000000E+00 0.  1.
          2    1    6    6  502    0  0.53170854483E+02 -0.26043459996E+02 -0.86988511096E+02  0.10522548474E+03  0.00000000000E+00 0. -1.
         -1    1    6    6    0  502  0.27332901589E+02 -0.12229364396E+03 -0.13221699572E+03  0.18216519103E+03  0.00000000000E+00 0.  1.
<mgrwt>
<rscale>  0 0.63830377E+03</rscale>
<asrwt>0</asrwt>
<pdfrwt beam="1">  1        1 0.14988632E+00 0.63830377E+03</pdfrwt>
<pdfrwt beam="2">  1       -2 0.10212550E+00 0.63830377E+03</pdfrwt>
<totfact> 0.11335112E+01</totfact>
</mgrwt>
</event>
<event>
12    3  0.2269558E-007  0.7633490E+03  0.7818608E-02  0.9614637E-01
         -2   -1    0    0    0  501 -0.00000000000E+00  0.00000000000E+00  0.37420407863E+03  0.37420407863E+03  0.00000000000E+00 0.  1.
          1   -1    0    0  501    0  0.00000000000E+00 -0.00000000000E+00 -0.18274265027E+04  0.18274265027E+04  0.00000000000E+00 0. -1.
        -24    2    1    2    0    0 -0.54878185022E+03  0.44303023439E+03 -0.79494980782E+03  0.10655734853E+04  0.77873923047E+02 0.  0.
    5000000    2    1    2    0    0  0.54878185022E+03 -0.44303023439E+03 -0.65827261623E+03  0.11360570960E+04  0.59988797321E+03 0.  0.
        -24    2    4    4    0    0  0.38813221610E+03 -0.48680485250E+02 -0.72829394128E+02  0.40583242279E+03  0.79871321002E+02 0.  0.
         24    2    4    4    0    0  0.16064963411E+03 -0.39434974914E+03 -0.58544322210E+03  0.73022467322E+03  0.95730232843E+02 0.  0.
         11    1    3    3    0    0 -0.18779185336E+03  0.16658717827E+03 -0.33722346480E+03  0.42040068193E+03  0.00000000000E+00 0. -1.
        -12    1    3    3    0    0 -0.36098999685E+03  0.27644305613E+03 -0.45772634302E+03  0.64517280337E+03  0.00000000000E+00 0.  1.
         11    1    5    5    0    0  0.39383634855E+02  0.27065901028E+01  0.15516371840E+02  0.42416436901E+02  0.00000000000E+00 0. -1.
        -12    1    5    5    0    0  0.34874858125E+03 -0.51387075353E+02 -0.88345765968E+02  0.36341598589E+03  0.00000000000E+00 0.  1.
          4    1    6    6  502    0  0.12605293364E+02 -0.86318271984E+02 -0.70357065803E+02  0.11207075536E+03  0.00000000000E+00 0. -1.
         -3    1    6    6    0  502  0.14804434075E+03 -0.30803147716E+03 -0.51508615630E+03  0.61815391785E+03  0.00000000000E+00 0.  1.
<mgrwt>
<rscale>  0 0.76334904E+03</rscale>
<asrwt>0</asrwt>
<pdfrwt beam="1">  1        1 0.28114254E+00 0.76334904E+03</pdfrwt>
<pdfrwt beam="2">  1       -2 0.57569857E-01 0.76334904E+03</pdfrwt>
<totfact> 0.10033080E+01</totfact>
</mgrwt>
</event>
<event>
12    3  0.2269558E-007  0.1265396E+04  0.7818608E-02  0.9057466E-01
         -2   -1    0    0    0  501 -0.00000000000E+00  0.00000000000E+00  0.20058870422E+04  0.20058870422E+04  0.00000000000E+00 0.  1.
          1   -1    0    0  501    0  0.00000000000E+00 -0.00000000000E+00 -0.11754233933E+04  0.11754233933E+04  0.00000000000E+00 0. -1.
        -24    2    1    2    0    0  0.12034664338E+04  0.35251627901E+03 -0.40653388048E+03  0.13204806826E+04  0.76159391187E+02 0.  0.
    5000000    2    1    2    0    0 -0.12034664338E+04 -0.35251627901E+03  0.12369975295E+04  0.18608297529E+04  0.59993774431E+03 0.  0.
        -24    2    4    4    0    0 -0.63902790863E+03 -0.29746181331E+03  0.31680713256E+03  0.77702211669E+03  0.80971675284E+02 0.  0.
         24    2    4    4    0    0 -0.56443852520E+03 -0.55054465698E+02  0.92019039690E+03  0.10838076362E+04  0.79163014281E+02 0.  0.
         13    1    5    5    0    0 -0.24522856173E+03 -0.81580098490E+02  0.14383348920E+03  0.29577091232E+03  0.00000000000E+00 0. -1.
        -14    1    5    5    0    0 -0.39379934689E+03 -0.21588171482E+03  0.17297364336E+03  0.48125120437E+03  0.00000000000E+00 0.  1.
         13    1    3    3    0    0  0.71668132407E+03  0.17263129714E+03 -0.22681584101E+03  0.77128406619E+03  0.00000000000E+00 0. -1.
        -14    1    3    3    0    0  0.48678510976E+03  0.17988498187E+03 -0.17971803947E+03  0.54919661642E+03  0.00000000000E+00 0.  1.
          4    1    6    6  502    0 -0.29951588091E+03 -0.30077542190E+02  0.41312787836E+03  0.51116442105E+03  0.00000000000E+00 0. -1.
         -3    1    6    6    0  502 -0.26492264428E+03 -0.24976923508E+02  0.50706251853E+03  0.57264321515E+03  0.00000000000E+00 0.  1.
<mgrwt>
<rscale>  0 0.12653958E+04</rscale>
<asrwt>0</asrwt>
<pdfrwt beam="1">  1        1 0.18083437E+00 0.12653958E+04</pdfrwt>
<pdfrwt beam="2">  1       -2 0.30859801E+00 0.12653958E+04</pdfrwt>
<totfact> 0.26735837E-01</totfact>
</mgrwt>
</event>
<event>
12    3  0.2269558E-007  0.7649271E+03  0.7818608E-02  0.9612219E-01
          1   -1    0    0  501    0  0.00000000000E+00  0.00000000000E+00  0.10139639769E+04  0.10139639769E+04  0.00000000000E+00 0. -1.
         -2   -1    0    0    0  501 -0.00000000000E+00 -0.00000000000E+00 -0.58435250891E+03  0.58435250891E+03  0.00000000000E+00 0.  1.
        -24    2    1    2    0    0 -0.37944193510E+03  0.52499804503E+03  0.12547142281E+03  0.66446256788E+03  0.78538505008E+02 0.  0.
    5000000    2    1    2    0    0  0.37944193510E+03 -0.52499804503E+03  0.30414004516E+03  0.93385391790E+03  0.59998570275E+03 0.  0.
        -24    2    4    4    0    0  0.13713644892E+03  0.11311401021E+03  0.73075870174E+02  0.20860072013E+03  0.81073995264E+02 0.  0.
         24    2    4    4    0    0  0.24230548619E+03 -0.63811205525E+03  0.23106417498E+03  0.72525319777E+03  0.81869434017E+02 0.  0.
         11    1    3    3    0    0 -0.14918027814E+03  0.16130012628E+03  0.15954361970E+02  0.22028851034E+03  0.00000000000E+00 0. -1.
        -12    1    3    3    0    0 -0.23026165696E+03  0.36369791876E+03  0.10951706084E+03  0.44417405754E+03  0.00000000000E+00 0.  1.
         13    1    5    5    0    0  0.90569482592E+02  0.22859404204E+02  0.28247756497E+02  0.97587495534E+02  0.00000000000E+00 0. -1.
        -14    1    5    5    0    0  0.46566966323E+02  0.90254606011E+02  0.44828113677E+02  0.11101322459E+03  0.00000000000E+00 0.  1.
          2    1    6    6  502    0  0.12409203436E+03 -0.25176119175E+03  0.63028544864E+02  0.28767191057E+03  0.00000000000E+00 0. -1.
         -1    1    6    6    0  502  0.11821345183E+03 -0.38635086350E+03  0.16803563012E+03  0.43758128720E+03  0.00000000000E+00 0.  1.
<mgrwt>
<rscale>  0 0.76492706E+03</rscale>
<asrwt>0</asrwt>
<pdfrwt beam="1">  1        1 0.15599446E+00 0.76492706E+03</pdfrwt>
<pdfrwt beam="2">  1       -2 0.89900386E-01 0.76492706E+03</pdfrwt>
<totfact> 0.14012596E+01</totfact>
</mgrwt>
</event>
<event>
12    3  0.2269558E-007  0.7368463E+03  0.7818608E-02  0.9656215E-01
         -2   -1    0    0    0  501 -0.00000000000E+00  0.00000000000E+00  0.83241640666E+03  0.83241640666E+03  0.00000000000E+00 0.  1.
          1   -1    0    0  501    0  0.00000000000E+00 -0.00000000000E+00 -0.76129175460E+03  0.76129175460E+03  0.00000000000E+00 0. -1.
        -24    2    1    2    0    0 -0.25045086305E+03 -0.63169707886E+03  0.16324603994E+02  0.68508121090E+03  0.85457232561E+02 0.  0.
    5000000    2    1    2    0    0  0.25045086305E+03  0.63169707886E+03  0.54800048064E+02  0.90862695036E+03  0.60069381170E+03 0.  0.
        -24    2    4    4    0    0  0.13277296723E+03  0.64445823596E+03 -0.13345132148E+03  0.67618954612E+03  0.80423680325E+02 0.  0.
         24    2    4    4    0    0  0.11767789582E+03 -0.12761157097E+02  0.18825136954E+03  0.23243740424E+03  0.67658218003E+02 0.  0.
         11    1    5    5    0    0  0.87523355374E+02  0.23905118013E+03 -0.62659819718E+02  0.26216799474E+03  0.00000000000E+00 0. -1.
        -12    1    5    5    0    0  0.45249611856E+02  0.40540705582E+03 -0.70791501758E+02  0.41402155138E+03  0.00000000000E+00 0.  1.
         13    1    3    3    0    0 -0.70052321884E+02 -0.13361364036E+03  0.35514665186E+02  0.15498781931E+03  0.00000000000E+00 0. -1.
        -14    1    3    3    0    0 -0.18039854116E+03 -0.49808343850E+03 -0.19190061193E+02  0.53009339159E+03  0.00000000000E+00 0.  1.
          2    1    6    6  502    0  0.12122212903E+03 -0.19684992977E+02  0.15226168801E+03  0.19561678136E+03  0.00000000000E+00 0. -1.
         -1    1    6    6    0  502 -0.35442332184E+01  0.69238358805E+01  0.35989681533E+02  0.36820622880E+02  0.00000000000E+00 0.  1.
<mgrwt>
<rscale>  0 0.73684625E+03</rscale>
<asrwt>0</asrwt>
<pdfrwt beam="1">  1        1 0.11712181E+00 0.73684625E+03</pdfrwt>
<pdfrwt beam="2">  1       -2 0.12806406E+00 0.73684625E+03</pdfrwt>
<totfact> 0.96721700E+00</totfact>
</mgrwt>
</event>
<event>
12    3  0.2269558E-007  0.4067502E+03  0.7818608E-02  0.1041467E+00
          3   -1    0    0  501    0  0.00000000000E+00  0.00000000000E+00  0.25690040244E+03  0.25690040244E+03  0.00000000000E+00 0. -1.
         -4   -1    0    0    0  501 -0.00000000000E+00 -0.00000000000E+00 -0.10527240919E+04  0.10527240919E+04  0.00000000000E+00 0.  1.
        -24    2    1    2    0    0 -0.19603488117E+03 -0.23153560194E+03 -0.46293105416E+03  0.55937668773E+03  0.80985852295E+02 0.  0.
    5000000    2    1    2    0    0  0.19603488117E+03  0.23153560194E+03 -0.33289263533E+03  0.75024780663E+03  0.60001321243E+03 0.  0.
        -24    2    4    4    0    0  0.38897667148E+02  0.30303868665E+03 -0.43183440169E+03  0.53588765043E+03  0.85727179395E+02 0.  0.
         24    2    4    4    0    0  0.15713721403E+03 -0.71503084708E+02  0.98941766356E+02  0.21436015620E+03  0.79724577656E+02 0.  0.
         11    1    5    5    0    0 -0.15674874154E+02  0.18381712609E+03 -0.27951027992E+03  0.33490361913E+03  0.00000000000E+00 0. -1.
        -12    1    5    5    0    0  0.54572541303E+02  0.11922156056E+03 -0.15232412177E+03  0.20098403130E+03  0.00000000000E+00 0.  1.
         13    1    3    3    0    0 -0.45066534356E+02 -0.11298149674E+03 -0.16578656112E+03  0.20562343002E+03  0.00000000000E+00 0. -1.
        -14    1    3    3    0    0 -0.15096834682E+03 -0.11855410520E+03 -0.29714449303E+03  0.35375325771E+03  0.00000000000E+00 0.  1.
          2    1    6    6  502    0  0.19870241242E+02 -0.38196432355E+02  0.47310944252E+02  0.63969675454E+02  0.00000000000E+00 0. -1.
         -1    1    6    6    0  502  0.13726697278E+03 -0.33306652353E+02  0.51630822104E+02  0.15039048075E+03  0.00000000000E+00 0.  1.
<mgrwt>
<rscale>  0 0.40675024E+03</rscale>
<asrwt>0</asrwt>
<pdfrwt beam="1">  1        3 0.39523138E-01 0.40675024E+03</pdfrwt>
<pdfrwt beam="2">  1       -4 0.16195756E+00 0.40675024E+03</pdfrwt>
<totfact> 0.34937785E+00</totfact>
</mgrwt>
</event>
<event>
12    3  0.2269558E-007  0.8575356E+03  0.7818608E-02  0.9480278E-01
          1   -1    0    0  501    0  0.00000000000E+00  0.00000000000E+00  0.10281737655E+04  0.10281737655E+04  0.00000000000E+00 0. -1.
         -2   -1    0    0    0  501 -0.00000000000E+00 -0.00000000000E+00 -0.91716682002E+03  0.91716682002E+03  0.00000000000E+00 0.  1.
        -24    2    1    2    0    0 -0.19434136066E+03 -0.73869045293E+03  0.48162733921E+03  0.90613866632E+03  0.75433672952E+02 0.  0.
    5000000    2    1    2    0    0  0.19434136066E+03  0.73869045293E+03 -0.37062039377E+03  0.10392019192E+04  0.59929041608E+03 0.  0.
        -24    2    4    4    0    0  0.33711344633E+03  0.19991526981E+03 -0.21831841521E+03  0.45579790388E+03  0.80481103147E+02 0.  0.
         24    2    4    4    0    0 -0.14277208567E+03  0.53877518312E+03 -0.15230197855E+03  0.58340401528E+03  0.80633652909E+02 0.  0.
         13    1    3    3    0    0 -0.50267275349E+02 -0.28088298574E+03  0.21350824865E+03  0.35638156923E+03  0.00000000000E+00 0. -1.
        -14    1    3    3    0    0 -0.14407408531E+03 -0.45780746719E+03  0.26811909056E+03  0.54975709709E+03  0.00000000000E+00 0.  1.
         13    1    5    5    0    0  0.17825814428E+03  0.94841959234E+02 -0.15679216665E+03  0.25564574465E+03  0.00000000000E+00 0. -1.
        -14    1    5    5    0    0  0.15885530205E+03  0.10507331058E+03 -0.61526248564E+02  0.20015215923E+03  0.00000000000E+00 0.  1.
          2    1    6    6  502    0 -0.48417224433E+02  0.17172399457E+03 -0.88226196129E+02  0.19904074864E+03  0.00000000000E+00 0. -1.
         -1    1    6    6    0  502 -0.94354861237E+02  0.36705118855E+03 -0.64075782425E+02  0.38436326665E+03  0.00000000000E+00 0.  1.
<mgrwt>
<rscale>  0 0.85753562E+03</rscale>
<asrwt>0</asrwt>
<pdfrwt beam="1">  1        1 0.15818058E+00 0.85753562E+03</pdfrwt>
<pdfrwt beam="2">  1       -2 0.14110259E+00 0.85753562E+03</pdfrwt>
<totfact> 0.44911534E+00</totfact>
</mgrwt>
</event>
<event>
12    3  0.2269558E-007  0.1053884E+04  0.7818608E-02  0.9251344E-01
          1   -1    0    0  501    0  0.00000000000E+00  0.00000000000E+00  0.16296556078E+04  0.16296556078E+04  0.00000000000E+00 0. -1.
         -2   -1    0    0    0  501 -0.00000000000E+00 -0.00000000000E+00 -0.99941267211E+03  0.99941267211E+03  0.00000000000E+00 0.  1.
        -24    2    1    2    0    0 -0.67064897119E+03 -0.73421449305E+03  0.99818821294E+03  0.14110160752E+04  0.75800341092E+02 0.  0.
    5000000    2    1    2    0    0  0.67064897119E+03  0.73421449305E+03 -0.36794527720E+03  0.12180522047E+04  0.59952187789E+03 0.  0.
        -24    2    4    4    0    0  0.68283360450E+03  0.76536072124E+03 -0.22944050229E+03  0.10540454886E+04  0.79562446782E+02 0.  0.
         24    2    4    4    0    0 -0.12184633307E+02 -0.31146228189E+02 -0.13850477491E+03  0.16400671611E+03  0.81216238755E+02 0.  0.
         11    1    5    5    0    0  0.15988328493E+03  0.20868803522E+03 -0.88344674743E+02  0.27734120213E+03  0.00000000000E+00 0. -1.
        -12    1    5    5    0    0  0.52295031957E+03  0.55667268602E+03 -0.14109582755E+03  0.77670428649E+03  0.00000000000E+00 0.  1.
         11    1    3    3    0    0 -0.20439186468E+03 -0.25903159331E+03  0.29369596221E+03  0.44173602853E+03  0.00000000000E+00 0. -1.
        -12    1    3    3    0    0 -0.46625710652E+03 -0.47518289974E+03  0.70449225073E+03  0.96928004669E+03  0.00000000000E+00 0.  1.
          4    1    6    6  502    0 -0.33489589318E+02  0.13363980323E+02 -0.77996098289E+02  0.85927527086E+02  0.00000000000E+00 0. -1.
         -3    1    6    6    0  502  0.21304956011E+02 -0.44510208512E+02 -0.60508676624E+02  0.78079189028E+02  0.00000000000E+00 0.  1.
<mgrwt>
<rscale>  0 0.10538837E+04</rscale>
<asrwt>0</asrwt>
<pdfrwt beam="1">  1        1 0.25071625E+00 0.10538837E+04</pdfrwt>
<pdfrwt beam="2">  1       -2 0.15375580E+00 0.10538837E+04</pdfrwt>
<totfact> 0.13002854E+00</totfact>
</mgrwt>
</event>
<event>
12    3  0.2269558E-007  0.1039902E+04  0.7818608E-02  0.9265832E-01
         -2   -1    0    0    0  501 -0.00000000000E+00  0.00000000000E+00  0.43763482597E+03  0.43763482597E+03  0.00000000000E+00 0.  1.
          1   -1    0    0  501    0  0.00000000000E+00 -0.00000000000E+00 -0.34054640848E+04  0.34054640848E+04  0.00000000000E+00 0. -1.
        -24    2    1    2    0    0  0.95252634364E+03 -0.17397682911E+03 -0.23595069923E+04  0.25516931396E+04  0.79311157864E+02 0.  0.
    5000000    2    1    2    0    0 -0.95252634364E+03  0.17397682911E+03 -0.60832226661E+03  0.12914057712E+04  0.60008208895E+03 0.  0.
        -24    2    4    4    0    0 -0.86887949688E+03  0.31741165120E+03 -0.39325032004E+03  0.10083189364E+04  0.79746641433E+02 0.  0.
         24    2    4    4    0    0 -0.83646846757E+02 -0.14343482209E+03 -0.21507194656E+03  0.28308683483E+03  0.79447282502E+02 0.  0.
         11    1    5    5    0    0 -0.15872865860E+02  0.18883103372E+02 -0.12438264683E+02  0.27626615643E+02  0.00000000000E+00 0. -1.
        -12    1    5    5    0    0 -0.85300663102E+03  0.29852854783E+03 -0.38081205536E+03  0.98069232073E+03  0.00000000000E+00 0.  1.
         13    1    3    3    0    0  0.34727120689E+03 -0.37347322973E+02 -0.77712662207E+03  0.85200815748E+03  0.00000000000E+00 0. -1.
        -14    1    3    3    0    0  0.60525513674E+03 -0.13662950614E+03 -0.15823803702E+04  0.16996849821E+04  0.00000000000E+00 0.  1.
          2    1    6    6  502    0 -0.92040515725E+02 -0.94217433750E+02 -0.17522104412E+03  0.21920491705E+03  0.00000000000E+00 0. -1.
         -1    1    6    6    0  502  0.83936689685E+01 -0.49217388342E+02 -0.39850902444E+02  0.63881917783E+02  0.00000000000E+00 0.  1.
<mgrwt>
<rscale>  0 0.10399022E+04</rscale>
<asrwt>0</asrwt>
<pdfrwt beam="1">  1        1 0.52391756E+00 0.10399022E+04</pdfrwt>
<pdfrwt beam="2">  1       -2 0.67328434E-01 0.10399022E+04</pdfrwt>
<totfact> 0.54081936E-01</totfact>
</mgrwt>
</event>
<event>
12    3  0.2269558E-007  0.1470220E+04  0.7818608E-02  0.8904501E-01
         -2   -1    0    0    0  501 -0.00000000000E+00  0.00000000000E+00  0.13244385455E+04  0.13244385455E+04  0.00000000000E+00 0.  1.
          3   -1    0    0  501    0  0.00000000000E+00 -0.00000000000E+00 -0.26112557948E+04  0.26112557948E+04  0.00000000000E+00 0. -1.
        -24    2    1    2    0    0  0.64373803850E+03 -0.13191264220E+04  0.49441541755E+03  0.15509022674E+04  0.79737433411E+02 0.  0.
    5000000    2    1    2    0    0 -0.64373803850E+03  0.13191264220E+04 -0.17812326668E+04  0.23847920730E+04  0.59995853074E+03 0.  0.
        -24    2    4    4    0    0 -0.18980863995E+03  0.37652800629E+03 -0.96315157212E+03  0.10542648845E+04  0.77542481131E+02 0.  0.
         24    2    4    4    0    0 -0.45392939855E+03  0.94259841574E+03 -0.81808109468E+03  0.13305271885E+04  0.80636528651E+02 0.  0.
         11    1    5    5    0    0 -0.11427463423E+03  0.18175946429E+03 -0.40667834532E+03  0.45987223382E+03  0.00000000000E+00 0. -1.
        -12    1    5    5    0    0 -0.75534005724E+02  0.19476854200E+03 -0.55647322680E+03  0.59439265063E+03  0.00000000000E+00 0.  1.
         13    1    3    3    0    0  0.32739550065E+03 -0.58949389394E+03  0.24528265462E+03  0.71753358493E+03  0.00000000000E+00 0. -1.
        -14    1    3    3    0    0  0.31634253785E+03 -0.72963252809E+03  0.24913276293E+03  0.83336868244E+03  0.00000000000E+00 0.  1.
          4    1    6    6  502    0 -0.67700890092E+02  0.18301495757E+03 -0.18570331817E+03  0.26937633080E+03  0.00000000000E+00 0. -1.
         -3    1    6    6    0  502 -0.38622850845E+03  0.75958345818E+03 -0.63237777651E+03  0.10611508577E+04  0.00000000000E+00 0.  1.
<mgrwt>
<rscale>  0 0.14702201E+04</rscale>
<asrwt>0</asrwt>
<pdfrwt beam="1">  1        3 0.40173165E+00 0.14702201E+04</pdfrwt>
<pdfrwt beam="2">  1       -2 0.20375978E+00 0.14702201E+04</pdfrwt>
<totfact> 0.52562452E-03</totfact>
</mgrwt>
</event>
<event>
12    3  0.2269558E-007  0.7310694E+03  0.7818608E-02  0.9665527E-01
         -2   -1    0    0    0  501 -0.00000000000E+00  0.00000000000E+00  0.98388035498E+03  0.98388035498E+03  0.00000000000E+00 0.  1.
          1   -1    0    0  501    0  0.00000000000E+00 -0.00000000000E+00 -0.59969077684E+03  0.59969077684E+03  0.00000000000E+00 0. -1.
        -24    2    1    2    0    0 -0.31345726839E+03 -0.55255377976E+03  0.28888391288E+02  0.64020519596E+03  0.73871612689E+02 0.  0.
    5000000    2    1    2    0    0  0.31345726839E+03  0.55255377976E+03  0.35530118685E+03  0.94336593585E+03  0.60010767111E+03 0.  0.
        -24    2    4    4    0    0  0.46015666558E+03  0.37422162807E+03  0.36070612625E+03  0.69877968999E+03  0.79988510683E+02 0.  0.
         24    2    4    4    0    0 -0.14669939719E+03  0.17833215169E+03 -0.54049393980E+01  0.24458624586E+03  0.80437235367E+02 0.  0.
         11    1    3    3    0    0 -0.17196974402E+03 -0.31650899562E+03  0.52397396667E+02  0.36400140706E+03  0.00000000000E+00 0. -1.
        -12    1    3    3    0    0 -0.14148752437E+03 -0.23604478414E+03 -0.23509005378E+02  0.27620378890E+03  0.00000000000E+00 0.  1.
         13    1    5    5    0    0  0.34060056894E+03  0.30697113297E+03  0.24829574278E+03  0.52143149111E+03  0.00000000000E+00 0. -1.
        -14    1    5    5    0    0  0.11955609664E+03  0.67250495095E+02  0.11241038347E+03  0.17734819888E+03  0.00000000000E+00 0.  1.
          2    1    6    6  502    0 -0.89237718816E+02  0.11408224151E+03  0.35575899310E+02  0.14914346415E+03  0.00000000000E+00 0. -1.
         -1    1    6    6    0  502 -0.57461678374E+02  0.64249910173E+02 -0.40980838708E+02  0.95442781707E+02  0.00000000000E+00 0.  1.
<mgrwt>
<rscale>  0 0.73106944E+03</rscale>
<asrwt>0</asrwt>
<pdfrwt beam="1">  1        1 0.92260120E-01 0.73106944E+03</pdfrwt>
<pdfrwt beam="2">  1       -2 0.15136621E+00 0.73106944E+03</pdfrwt>
<totfact> 0.89771216E+00</totfact>
</mgrwt>
</event>
<event>
12    3  0.2269558E-007  0.4647490E+03  0.7818608E-02  0.1023413E+00
          1   -1    0    0  501    0  0.00000000000E+00  0.00000000000E+00  0.89141323984E+03  0.89141323984E+03  0.00000000000E+00 0. -1.
         -2   -1    0    0    0  501 -0.00000000000E+00 -0.00000000000E+00 -0.40016533981E+03  0.40016533981E+03  0.00000000000E+00 0.  1.
        -24    2    1    2    0    0 -0.17085538875E+03  0.40719986409E+03  0.16437243137E+03  0.47798852836E+03  0.80320880641E+02 0.  0.
    5000000    2    1    2    0    0  0.17085538875E+03 -0.40719986409E+03  0.32687546865E+03  0.81359005129E+03  0.60006491847E+03 0.  0.
        -24    2    4    4    0    0  0.16411894669E+03 -0.19624988636E+03 -0.13328042451E+03  0.30111035621E+03  0.86340769642E+02 0.  0.
         24    2    4    4    0    0  0.67364420566E+01 -0.21094997774E+03  0.46015589316E+03  0.51247969508E+03  0.79666298392E+02 0.  0.
         11    1    5    5    0    0  0.30706750937E+02 -0.10224293517E+03 -0.55449042691E+02  0.12029596286E+03  0.00000000000E+00 0. -1.
        -12    1    5    5    0    0  0.13341219575E+03 -0.94006951187E+02 -0.77831381820E+02  0.18081439335E+03  0.00000000000E+00 0.  1.
         13    1    3    3    0    0 -0.20791681279E+02  0.86976582807E+01  0.13265487376E+02  0.26151795833E+02  0.00000000000E+00 0. -1.
        -14    1    3    3    0    0 -0.15006370747E+03  0.39850220581E+03  0.15110694400E+03  0.45183673252E+03  0.00000000000E+00 0.  1.
          2    1    6    6  502    0  0.65103754916E+01 -0.92283485844E+02  0.29462161898E+03  0.30880499529E+03  0.00000000000E+00 0. -1.
         -1    1    6    6    0  502  0.22606656501E+00 -0.11866649189E+03  0.16553427419E+03  0.20367469979E+03  0.00000000000E+00 0.  1.
<mgrwt>
<rscale>  0 0.46474897E+03</rscale>
<asrwt>0</asrwt>
<pdfrwt beam="1">  1        1 0.13714050E+00 0.46474897E+03</pdfrwt>
<pdfrwt beam="2">  1       -2 0.61563899E-01 0.46474897E+03</pdfrwt>
<totfact> 0.41881303E+01</totfact>
</mgrwt>
</event>
<event>
12    3  0.2269558E-007  0.5931389E+03  0.7818608E-02  0.9919744E-01
         -4   -1    0    0    0  501 -0.00000000000E+00  0.00000000000E+00  0.29217416239E+03  0.29217416239E+03  0.00000000000E+00 0.  1.
          3   -1    0    0  501    0  0.00000000000E+00 -0.00000000000E+00 -0.14824948272E+04  0.14824948272E+04  0.00000000000E+00 0. -1.
        -24    2    1    2    0    0 -0.48847649344E+03 -0.11438676407E+03 -0.64557894960E+03  0.82148895786E+03  0.79864330414E+02 0.  0.
    5000000    2    1    2    0    0  0.48847649344E+03  0.11438676407E+03 -0.54474171522E+03  0.95318003174E+03  0.60009584249E+03 0.  0.
        -24    2    4    4    0    0 -0.16244523410E+01 -0.12526274861E+03 -0.32913916909E+03  0.36117407930E+03  0.80129444584E+02 0.  0.
         24    2    4    4    0    0  0.49010094579E+03  0.23964951269E+03 -0.21560254613E+03  0.59200595245E+03  0.79723044647E+02 0.  0.
         11    1    5    5    0    0  0.13790363825E+02 -0.12207338335E+03 -0.22962118847E+03  0.26041884580E+03  0.00000000000E+00 0. -1.
        -12    1    5    5    0    0 -0.15414816166E+02 -0.31893652614E+01 -0.99517980626E+02  0.10075523349E+03  0.00000000000E+00 0.  1.
         13    1    3    3    0    0 -0.45025283410E+03 -0.10191278221E+03 -0.55172264888E+03  0.71938286821E+03  0.00000000000E+00 0. -1.
        -14    1    3    3    0    0 -0.38223659343E+02 -0.12473981861E+02 -0.93856300725E+02  0.10210608965E+03  0.00000000000E+00 0.  1.
          2    1    6    6  502    0  0.61925497375E+02  0.36874922068E+02 -0.14451484144E+01  0.72087554797E+02  0.00000000000E+00 0. -1.
         -1    1    6    6    0  502  0.42817544841E+03  0.20277459062E+03 -0.21415739771E+03  0.51991839765E+03  0.00000000000E+00 0.  1.
<mgrwt>
<rscale>  0 0.59313885E+03</rscale>
<asrwt>0</asrwt>
<pdfrwt beam="1">  1        3 0.22807613E+00 0.59313885E+03</pdfrwt>
<pdfrwt beam="2">  1       -4 0.44949870E-01 0.59313885E+03</pdfrwt>
<totfact> 0.10974150E+00</totfact>
</mgrwt>
</event>
<event>
12    3  0.2269558E-007  0.4572116E+03  0.7818608E-02  0.1025593E+00
          1   -1    0    0  501    0  0.00000000000E+00  0.00000000000E+00  0.90501395077E+03  0.90501395077E+03  0.00000000000E+00 0. -1.
         -2   -1    0    0    0  501 -0.00000000000E+00 -0.00000000000E+00 -0.53429068973E+03  0.53429068973E+03  0.00000000000E+00 0.  1.
        -24    2    1    2    0    0  0.17644315591E+03  0.27967329683E+03 -0.31998402282E+03  0.46658212167E+03  0.77199489470E+02 0.  0.
    5000000    2    1    2    0    0 -0.17644315591E+03 -0.27967329683E+03  0.69070728387E+03  0.97272251883E+03  0.59980263956E+03 0.  0.
        -24    2    4    4    0    0 -0.31074312962E+03 -0.66173179645E+02  0.61747886289E+03  0.69894914659E+03  0.79432871608E+02 0.  0.
         24    2    4    4    0    0  0.13429997372E+03 -0.21350011719E+03  0.73228420974E+02  0.27377337224E+03  0.77270141233E+02 0.  0.
         13    1    3    3    0    0  0.12001703679E+02  0.72252719679E+02 -0.89091803929E+02  0.11533362875E+03  0.00000000000E+00 0. -1.
        -14    1    3    3    0    0  0.16444145223E+03  0.20742057716E+03 -0.23089221889E+03  0.35124849292E+03  0.00000000000E+00 0.  1.
         13    1    5    5    0    0 -0.30303807404E+03 -0.51797602898E+02  0.60419626829E+03  0.67791459388E+03  0.00000000000E+00 0. -1.
        -14    1    5    5    0    0 -0.77050555879E+01 -0.14375576747E+02  0.13282594602E+02  0.21034552712E+02  0.00000000000E+00 0.  1.
          4    1    6    6  502    0  0.73776221612E+02 -0.10217217702E+03 -0.26944989833E+01  0.12605294506E+03  0.00000000000E+00 0. -1.
         -3    1    6    6    0  502  0.60523752107E+02 -0.11132794016E+03  0.75922919957E+02  0.14772042718E+03  0.00000000000E+00 0.  1.
<mgrwt>
<rscale>  0 0.45721156E+03</rscale>
<asrwt>0</asrwt>
<pdfrwt beam="1">  1        1 0.13923291E+00 0.45721156E+03</pdfrwt>
<pdfrwt beam="2">  1       -2 0.82198568E-01 0.45721156E+03</pdfrwt>
<totfact> 0.21800575E+01</totfact>
</mgrwt>
</event>
<event>
12    3  0.2269558E-007  0.5260912E+03  0.7818608E-02  0.1007185E+00
         -2   -1    0    0    0  501 -0.00000000000E+00  0.00000000000E+00  0.21363499195E+03  0.21363499195E+03  0.00000000000E+00 0.  1.
          1   -1    0    0  501    0  0.00000000000E+00 -0.00000000000E+00 -0.18398252614E+04  0.18398252614E+04  0.00000000000E+00 0. -1.
        -24    2    1    2    0    0  0.20767912410E+03 -0.42904307238E+03 -0.71243073443E+03  0.86093789575E+03  0.80299018883E+02 0.  0.
    5000000    2    1    2    0    0 -0.20767912410E+03  0.42904307238E+03 -0.91375953503E+03  0.11925223576E+04  0.59995375570E+03 0.  0.
        -24    2    4    4    0    0  0.22919513443E+02  0.30060307420E+03 -0.85544255254E+03  0.91050196998E+03  0.79651518032E+02 0.  0.
         24    2    4    4    0    0 -0.23059863754E+03  0.12843999818E+03 -0.58316982492E+02  0.28202038763E+03  0.80386963007E+02 0.  0.
         11    1    3    3    0    0  0.13781906937E+03 -0.21995357117E+03 -0.43537232986E+03  0.50687546297E+03  0.00000000000E+00 0. -1.
        -12    1    3    3    0    0  0.69860054721E+02 -0.20908950121E+03 -0.27705840457E+03  0.35406243278E+03  0.00000000000E+00 0.  1.
         13    1    5    5    0    0  0.30865359993E+02  0.12153293062E+03 -0.25985934553E+03  0.28853041977E+03  0.00000000000E+00 0. -1.
        -14    1    5    5    0    0 -0.79458465495E+01  0.17907014358E+03 -0.59558320701E+03  0.62197155021E+03  0.00000000000E+00 0.  1.
          4    1    6    6  502    0 -0.14718881617E+03  0.57464010712E+02 -0.14341986042E+00  0.15800848300E+03  0.00000000000E+00 0. -1.
         -3    1    6    6    0  502 -0.83409821373E+02  0.70975987472E+02 -0.58173562632E+02  0.12401190462E+03  0.00000000000E+00 0.  1.
<mgrwt>
<rscale>  0 0.52609121E+03</rscale>
<asrwt>0</asrwt>
<pdfrwt beam="1">  1        1 0.28305005E+00 0.52609121E+03</pdfrwt>
<pdfrwt beam="2">  1       -2 0.32866921E-01 0.52609121E+03</pdfrwt>
<totfact> 0.30971852E+01</totfact>
</mgrwt>
</event>
<event>
12    3  0.2269558E-007  0.6465563E+03  0.7818608E-02  0.9813263E-01
         -2   -1    0    0    0  501 -0.00000000000E+00  0.00000000000E+00  0.65257267495E+03  0.65257267495E+03  0.00000000000E+00 0.  1.
          1   -1    0    0  501    0  0.00000000000E+00 -0.00000000000E+00 -0.78842869982E+03  0.78842869982E+03  0.00000000000E+00 0. -1.
        -24    2    1    2    0    0 -0.48032965931E+03 -0.16501629909E+03 -0.35550710837E+03  0.62484187828E+03  0.78071173797E+02 0.  0.
    5000000    2    1    2    0    0  0.48032965931E+03  0.16501629909E+03  0.21965108350E+03  0.81615949648E+03  0.59993563374E+03 0.  0.
        -24    2    4    4    0    0 -0.83116292508E+02 -0.10452472412E+03  0.38274642567E+02  0.16028209742E+03  0.79947898390E+02 0.  0.
         24    2    4    4    0    0  0.56344595182E+03  0.26954102321E+03  0.18137644094E+03  0.65587739906E+03  0.84581590549E+02 0.  0.
         11    1    5    5    0    0  0.14549053601E+01 -0.59500674633E+02  0.19657137004E+02  0.62680539776E+02  0.00000000000E+00 0. -1.
        -12    1    5    5    0    0 -0.84571197868E+02 -0.45024049485E+02  0.18617505562E+02  0.97601557642E+02  0.00000000000E+00 0.  1.
         13    1    3    3    0    0 -0.17136395335E+03 -0.56739179066E+02 -0.82112934766E+02  0.19831155540E+03  0.00000000000E+00 0. -1.
        -14    1    3    3    0    0 -0.30896570596E+03 -0.10827712003E+03 -0.27339417361E+03  0.42653032289E+03  0.00000000000E+00 0.  1.
          4    1    6    6  502    0  0.18540743321E+03  0.47255107398E+02  0.44167598610E+02  0.19636633681E+03  0.00000000000E+00 0. -1.
         -3    1    6    6    0  502  0.37803851860E+03  0.22228591581E+03  0.13720884233E+03  0.45951106225E+03  0.00000000000E+00 0.  1.
<mgrwt>
<rscale>  0 0.64655632E+03</rscale>
<asrwt>0</asrwt>
<pdfrwt beam="1">  1        1 0.12129672E+00 0.64655632E+03</pdfrwt>
<pdfrwt beam="2">  1       -2 0.10039580E+00 0.64655632E+03</pdfrwt>
<totfact> 0.16754956E+01</totfact>
</mgrwt>
</event>
<event>
12    3  0.2269558E-007  0.7488055E+03  0.7818608E-02  0.9637226E-01
         -2   -1    0    0    0  501 -0.00000000000E+00  0.00000000000E+00  0.57760369613E+03  0.57760369613E+03  0.00000000000E+00 0.  1.
          1   -1    0    0  501    0  0.00000000000E+00 -0.00000000000E+00 -0.10551568952E+04  0.10551568952E+04  0.00000000000E+00 0. -1.
        -24    2    1    2    0    0  0.62726721509E+03 -0.99413024392E+02 -0.40129359651E+03  0.75558994191E+03  0.80823889800E+02 0.  0.
    5000000    2    1    2    0    0 -0.62726721509E+03  0.99413024392E+02 -0.76259602576E+02  0.87717064943E+03  0.60022138640E+03 0.  0.
        -24    2    4    4    0    0  0.36349206074E+02  0.16877812752E+03 -0.76387777349E+02  0.20562345344E+03  0.81477548847E+02 0.  0.
         24    2    4    4    0    0 -0.66361642117E+03 -0.69365103128E+02  0.12817477302E+00  0.67154719599E+03  0.76008868140E+02 0.  0.
         11    1    5    5    0    0  0.29940729112E+01  0.15465767597E+03 -0.62095190584E+02  0.16668465407E+03  0.00000000000E+00 0. -1.
        -12    1    5    5    0    0  0.33355133163E+02  0.14120451554E+02 -0.14292586765E+02  0.38938799376E+02  0.00000000000E+00 0.  1.
         11    1    3    3    0    0  0.24845503370E+03 -0.51234778201E+02 -0.20540370059E+03  0.32641321432E+03  0.00000000000E+00 0. -1.
        -12    1    3    3    0    0  0.37881218140E+03 -0.48178246191E+02 -0.19588989593E+03  0.42917672759E+03  0.00000000000E+00 0.  1.
          2    1    6    6  502    0 -0.33071182955E+03  0.18662995705E+01  0.11505302011E+02  0.33091716374E+03  0.00000000000E+00 0. -1.
         -1    1    6    6    0  502 -0.33290459162E+03 -0.71231402698E+02 -0.11377127238E+02  0.34063003225E+03  0.00000000000E+00 0.  1.
<mgrwt>
<rscale>  0 0.74880545E+03</rscale>
<asrwt>0</asrwt>
<pdfrwt beam="1">  1        1 0.16233183E+00 0.74880545E+03</pdfrwt>
<pdfrwt beam="2">  1       -2 0.88862108E-01 0.74880545E+03</pdfrwt>
<totfact> 0.13410002E+01</totfact>
</mgrwt>
</event>
<event>
12    3  0.2269558E-007  0.4676723E+03  0.7818608E-02  0.1022579E+00
          1   -1    0    0  501    0  0.00000000000E+00  0.00000000000E+00  0.29448541737E+03  0.29448541737E+03  0.00000000000E+00 0. -1.
         -2   -1    0    0    0  501 -0.00000000000E+00 -0.00000000000E+00 -0.96044083611E+03  0.96044083611E+03  0.00000000000E+00 0.  1.
        -24    2    1    2    0    0 -0.16067685590E+03 -0.24410916569E+03  0.12862411522E+02  0.30307206211E+03  0.79252106637E+02 0.  0.
    5000000    2    1    2    0    0  0.16067685590E+03  0.24410916569E+03 -0.67881783026E+03  0.95185419137E+03  0.59985533103E+03 0.  0.
        -24    2    4    4    0    0  0.83835703862E+02 -0.18246538405E+03 -0.30132885334E+03  0.37144855700E+03  0.82782311062E+02 0.  0.
         24    2    4    4    0    0  0.76841152033E+02  0.42657454974E+03 -0.37748897692E+03  0.58040563437E+03  0.80637234452E+02 0.  0.
         11    1    3    3    0    0 -0.69353823607E+02 -0.12105571364E+03 -0.32519316932E+02  0.14325482410E+03  0.00000000000E+00 0. -1.
        -12    1    3    3    0    0 -0.91323032288E+02 -0.12305345205E+03  0.45381728454E+02  0.15981723801E+03  0.00000000000E+00 0.  1.
         13    1    5    5    0    0  0.40822130288E+02 -0.29903141671E+02 -0.12216666765E+03  0.13223214015E+03  0.00000000000E+00 0. -1.
        -14    1    5    5    0    0  0.43013573574E+02 -0.15256224238E+03 -0.17916218569E+03  0.23921641685E+03  0.00000000000E+00 0.  1.
          2    1    6    6  502    0  0.42439281937E+02  0.21938480915E+03 -0.24731457938E+03  0.33330959829E+03  0.00000000000E+00 0. -1.
         -1    1    6    6    0  502  0.34401870097E+02  0.20718974059E+03 -0.13017439754E+03  0.24709603608E+03  0.00000000000E+00 0.  1.
<mgrwt>
<rscale>  0 0.46767233E+03</rscale>
<asrwt>0</asrwt>
<pdfrwt beam="1">  1        1 0.45305448E-01 0.46767233E+03</pdfrwt>
<pdfrwt beam="2">  1       -2 0.14776013E+00 0.46767233E+03</pdfrwt>
<totfact> 0.25511434E+01</totfact>
</mgrwt>
</event>
<event>
12    3  0.2269558E-007  0.1188194E+04  0.7818608E-02  0.9123253E-01
          1   -1    0    0  501    0  0.00000000000E+00  0.00000000000E+00  0.68848678489E+03  0.68848678489E+03  0.00000000000E+00 0. -1.
         -2   -1    0    0    0  501 -0.00000000000E+00 -0.00000000000E+00 -0.26622744190E+04  0.26622744190E+04  0.00000000000E+00 0.  1.
        -24    2    1    2    0    0  0.10916089876E+04 -0.42742714002E+03 -0.28474381959E+03  0.12090370764E+04  0.79921632726E+02 0.  0.
    5000000    2    1    2    0    0 -0.10916089876E+04  0.42742714002E+03 -0.16890438145E+04  0.21417241275E+04  0.59984088649E+03 0.  0.
        -24    2    4    4    0    0 -0.10014484687E+04  0.34978056938E+03 -0.10783468757E+04  0.15147257367E+04  0.79476983023E+02 0.  0.
         24    2    4    4    0    0 -0.90160518875E+02  0.77646570644E+02 -0.61069693883E+03  0.62699839081E+03  0.77577844069E+02 0.  0.
         11    1    3    3    0    0  0.75733086665E+03 -0.32707578490E+03 -0.22357386611E+03  0.85470104964E+03  0.00000000000E+00 0. -1.
        -12    1    3    3    0    0  0.33427812098E+03 -0.10035135513E+03 -0.61169953476E+02  0.35433602674E+03  0.00000000000E+00 0.  1.
         13    1    5    5    0    0 -0.71046262718E+03  0.27687419695E+03 -0.74011749223E+03  0.10626336941E+04  0.00000000000E+00 0. -1.
        -14    1    5    5    0    0 -0.29098584157E+03  0.72906372429E+02 -0.33822938346E+03  0.45209204259E+03  0.00000000000E+00 0.  1.
          4    1    6    6  502    0 -0.16753546419E+02  0.62870534426E+02 -0.23099108102E+03  0.23997971774E+03  0.00000000000E+00 0. -1.
         -3    1    6    6    0  502 -0.73406972455E+02  0.14776036218E+02 -0.37970585781E+03  0.38701867307E+03  0.00000000000E+00 0.  1.
<mgrwt>
<rscale>  0 0.11881942E+04</rscale>
<asrwt>0</asrwt>
<pdfrwt beam="1">  1        1 0.10592104E+00 0.11881942E+04</pdfrwt>
<pdfrwt beam="2">  1       -2 0.40958068E+00 0.11881942E+04</pdfrwt>
<totfact> 0.15631113E-01</totfact>
</mgrwt>
</event>
<event>
12    3  0.2412229E-007  0.1219396E+04  0.7818608E-02  0.9096047E-01
         -2   -1    0    0    0  501 -0.00000000000E+00  0.00000000000E+00  0.11816236790E+04  0.11816236790E+04  0.00000000000E+00 0.  1.
          1   -1    0    0  501    0  0.00000000000E+00 -0.00000000000E+00 -0.13831438892E+04  0.13831438892E+04  0.00000000000E+00 0. -1.
        -24    2    1    2    0    0 -0.21980831298E+03 -0.11863504131E+04 -0.10986152307E+03  0.12141372820E+04  0.79478223802E+02 0.  0.
    5000000    2    1    2    0    0  0.21980831298E+03  0.11863504131E+04 -0.91658687117E+02  0.13506302862E+04  0.60004821299E+03 0.  0.
        -24    2    4    4    0    0  0.19527393506E+02  0.12391744379E+03 -0.21323998834E+03  0.25974258992E+03  0.79107954207E+02 0.  0.
         24    2    4    4    0    0  0.20028091947E+03  0.10624329693E+04  0.12158130122E+03  0.10908876963E+04  0.79860453738E+02 0.  0.
         11    1    3    3    0    0 -0.48665833037E+02 -0.44822324490E+03 -0.22638408778E+02  0.45142545135E+03  0.00000000000E+00 0. -1.
        -12    1    3    3    0    0 -0.17114247994E+03 -0.73812716821E+03 -0.87223114287E+02  0.76271183061E+03  0.00000000000E+00 0.  1.
         13    1    5    5    0    0 -0.17121625745E+02 -0.18545757439E+01 -0.22093325794E+02  0.28012578674E+02  0.00000000000E+00 0. -1.
        -14    1    5    5    0    0  0.36649019251E+02  0.12577201953E+03 -0.19114666254E+03  0.23173001124E+03  0.00000000000E+00 0.  1.
          4    1    6    6  502    0  0.14527317807E+03  0.65804678450E+03  0.10848065920E+03  0.68256715441E+03  0.00000000000E+00 0. -1.
         -3    1    6    6    0  502  0.55007741405E+02  0.40438618482E+03  0.13100642023E+02  0.40832054187E+03  0.00000000000E+00 0.  1.
<mgrwt>
<rscale>  0 0.12193960E+04</rscale>
<asrwt>0</asrwt>
<pdfrwt beam="1">  1        1 0.21279137E+00 0.12193960E+04</pdfrwt>
<pdfrwt beam="2">  1       -2 0.18178826E+00 0.12193960E+04</pdfrwt>
<totfact> 0.11865122E+00</totfact>
</mgrwt>
</event>
<event>
12    3  0.2269558E-007  0.7079520E+03  0.7818608E-02  0.9703729E-01
         -2   -1    0    0    0  501 -0.00000000000E+00  0.00000000000E+00  0.55460352587E+03  0.55460352587E+03  0.00000000000E+00 0.  1.
          1   -1    0    0  501    0  0.00000000000E+00 -0.00000000000E+00 -0.95574521081E+03  0.95574521081E+03  0.00000000000E+00 0. -1.
        -24    2    1    2    0    0 -0.36147202915E+03 -0.48018297946E+03 -0.14734021358E+03  0.62397348609E+03  0.79975316078E+02 0.  0.
    5000000    2    1    2    0    0  0.36147202915E+03  0.48018297946E+03 -0.25380147136E+03  0.88637525059E+03  0.60000681360E+03 0.  0.
        -24    2    4    4    0    0  0.49289597197E+03  0.46258493825E+03 -0.26782649631E+03  0.73125442323E+03  0.77914922043E+02 0.  0.
         24    2    4    4    0    0 -0.13142394282E+03  0.17598041210E+02  0.14025024952E+02  0.15512082736E+03  0.79270586947E+02 0.  0.
         11    1    5    5    0    0  0.23817890032E+03  0.23789700690E+03 -0.17364730940E+03  0.37878432189E+03  0.00000000000E+00 0. -1.
        -12    1    5    5    0    0  0.25471707166E+03  0.22468793135E+03 -0.94179186910E+02  0.35247010134E+03  0.00000000000E+00 0.  1.
         13    1    3    3    0    0 -0.20731949046E+03 -0.20895060542E+03 -0.71001054609E+02  0.30279180370E+03  0.00000000000E+00 0. -1.
        -14    1    3    3    0    0 -0.15415253869E+03 -0.27123237404E+03 -0.76339158970E+02  0.32118168239E+03  0.00000000000E+00 0.  1.
          2    1    6    6  502    0 -0.18762057096E+02  0.73788452842E+01 -0.27947833795E+02  0.34460753881E+02  0.00000000000E+00 0. -1.
         -1    1    6    6    0  502 -0.11266188573E+03  0.10219195925E+02  0.41972858747E+02  0.12066007348E+03  0.00000000000E+00 0.  1.
<mgrwt>
<rscale>  0 0.70795201E+03</rscale>
<asrwt>0</asrwt>
<pdfrwt beam="1">  1        1 0.14703772E+00 0.70795201E+03</pdfrwt>
<pdfrwt beam="2">  1       -2 0.85323620E-01 0.70795201E+03</pdfrwt>
<totfact> 0.17648583E+01</totfact>
</mgrwt>
</event>
<event>
12    3  0.2269558E-007  0.5823566E+03  0.7818608E-02  0.9942702E-01
          1   -1    0    0  501    0  0.00000000000E+00  0.00000000000E+00  0.27958771741E+04  0.27958771741E+04  0.00000000000E+00 0. -1.
         -2   -1    0    0    0  501 -0.00000000000E+00 -0.00000000000E+00 -0.14101819664E+03  0.14101819664E+03  0.00000000000E+00 0.  1.
        -24    2    1    2    0    0 -0.24183240793E+03  0.37739593644E+03  0.62543499792E+03  0.77373207386E+03  0.81128164878E+02 0.  0.
    5000000    2    1    2    0    0  0.24183240793E+03 -0.37739593644E+03  0.20294239795E+04  0.21631632968E+04  0.59983593910E+03 0.  0.
        -24    2    4    4    0    0 -0.93248332024E+02  0.78538331819E+02  0.71894281810E+03  0.73353958049E+03  0.79611679184E+02 0.  0.
         24    2    4    4    0    0  0.33508073995E+03 -0.45593426826E+03  0.13104811614E+04  0.14296237163E+04  0.79422519975E+02 0.  0.
         11    1    3    3    0    0 -0.19342815332E+02  0.65967405179E+02  0.61866430493E+02  0.92484043343E+02  0.00000000000E+00 0. -1.
        -12    1    3    3    0    0 -0.22248959260E+03  0.31142853126E+03  0.56356856743E+03  0.68124803052E+03  0.00000000000E+00 0.  1.
         13    1    5    5    0    0 -0.78639873096E+02  0.16344497282E+02  0.34922836745E+03  0.35834595695E+03  0.00000000000E+00 0. -1.
        -14    1    5    5    0    0 -0.14608458928E+02  0.62193834538E+02  0.36971445065E+03  0.37519362354E+03  0.00000000000E+00 0.  1.
          4    1    6    6  502    0  0.28485887088E+03 -0.34610994307E+03  0.97622916374E+03  0.10742253251E+04  0.00000000000E+00 0. -1.
         -3    1    6    6    0  502  0.50221869074E+02 -0.10982432518E+03  0.33425199767E+03  0.35539839122E+03  0.00000000000E+00 0.  1.
<mgrwt>
<rscale>  0 0.58235659E+03</rscale>
<asrwt>0</asrwt>
<pdfrwt beam="1">  1        1 0.43013491E+00 0.58235659E+03</pdfrwt>
<pdfrwt beam="2">  1       -2 0.21695109E-01 0.58235659E+03</pdfrwt>
<totfact> 0.14795629E+01</totfact>
</mgrwt>
</event>
<event>
12    3  0.2269558E-007  0.1426558E+04  0.7818608E-02  0.8934815E-01
         -2   -1    0    0    0  501 -0.00000000000E+00  0.00000000000E+00  0.64866417996E+03  0.64866417996E+03  0.00000000000E+00 0.  1.
          1   -1    0    0  501    0  0.00000000000E+00 -0.00000000000E+00 -0.32325677886E+04  0.32325677886E+04  0.00000000000E+00 0. -1.
        -24    2    1    2    0    0  0.25616241753E+03 -0.13586641467E+04 -0.13417715794E+04  0.19282805056E+04  0.79544259538E+02 0.  0.
    5000000    2    1    2    0    0 -0.25616241753E+03  0.13586641467E+04 -0.12421320293E+04  0.19529514630E+04  0.59961653651E+03 0.  0.
        -24    2    4    4    0    0 -0.28548807139E+03  0.34194169113E+03 -0.58583221557E+03  0.73983567647E+03  0.75695999482E+02 0.  0.
         24    2    4    4    0    0  0.29325653856E+02  0.10167224556E+04 -0.65629981372E+03  0.12131157865E+04  0.79598494554E+02 0.  0.
         11    1    3    3    0    0  0.73262833498E+02 -0.24430866240E+03 -0.22619823596E+03  0.34091026275E+03  0.00000000000E+00 0. -1.
        -12    1    3    3    0    0  0.18289958404E+03 -0.11143554843E+04 -0.11155733434E+04  0.15873702428E+04  0.00000000000E+00 0.  1.
         11    1    5    5    0    0 -0.73835021323E+02  0.45905689698E+02 -0.13299327161E+03  0.15889038050E+03  0.00000000000E+00 0. -1.
        -12    1    5    5    0    0 -0.21165305007E+03  0.29603600144E+03 -0.45283894396E+03  0.58094529597E+03  0.00000000000E+00 0.  1.
          4    1    6    6  502    0 -0.10044886966E+02  0.25453963320E+03 -0.12955194226E+03  0.28578843638E+03  0.00000000000E+00 0. -1.
         -3    1    6    6    0  502  0.39370540822E+02  0.76218282240E+03 -0.52674787146E+03  0.92732735015E+03  0.00000000000E+00 0.  1.
<mgrwt>
<rscale>  0 0.14265584E+04</rscale>
<asrwt>0</asrwt>
<pdfrwt beam="1">  1        1 0.49731812E+00 0.14265584E+04</pdfrwt>
<pdfrwt beam="2">  1       -2 0.99794490E-01 0.14265584E+04</pdfrwt>
<totfact> 0.28305851E-01</totfact>
</mgrwt>
</event>
<event>
12    3  0.2269558E-007  0.9311515E+03  0.7818608E-02  0.9387457E-01
          1   -1    0    0  501    0  0.00000000000E+00  0.00000000000E+00  0.26808994991E+04  0.26808994991E+04  0.00000000000E+00 0. -1.
         -2   -1    0    0    0  501 -0.00000000000E+00 -0.00000000000E+00 -0.53208718049E+03  0.53208718049E+03  0.00000000000E+00 0.  1.
        -24    2    1    2    0    0 -0.61434029188E+03  0.58722918341E+03  0.19838711869E+04  0.21596726596E+04  0.78670211099E+02 0.  0.
    5000000    2    1    2    0    0  0.61434029188E+03 -0.58722918341E+03  0.16494113164E+03  0.10533140200E+04  0.60001061632E+03 0.  0.
        -24    2    4    4    0    0  0.50179905413E+03 -0.10834744549E+03 -0.26068270528E+02  0.51963053330E+03  0.76124087786E+02 0.  0.
         24    2    4    4    0    0  0.11254123775E+03 -0.47888173792E+03  0.19100940217E+03  0.53368348668E+03  0.79625518089E+02 0.  0.
         11    1    3    3    0    0 -0.12842935657E+03  0.16333367089E+03  0.52677050450E+03  0.56626773887E+03  0.00000000000E+00 0. -1.
        -12    1    3    3    0    0 -0.48591093531E+03  0.42389551252E+03  0.14571006824E+04  0.15934049207E+04  0.00000000000E+00 0.  1.
         11    1    5    5    0    0  0.20919745824E+03 -0.19479410616E+02  0.17109849173E+02  0.21079793859E+03  0.00000000000E+00 0. -1.
        -12    1    5    5    0    0  0.29260159589E+03 -0.88868034878E+02 -0.43178119701E+02  0.30883259472E+03  0.00000000000E+00 0.  1.
          2    1    6    6  502    0  0.41068933077E+02 -0.97797442971E+02  0.71634278288E+02  0.12799401135E+03  0.00000000000E+00 0. -1.
         -1    1    6    6    0  502  0.71472304677E+02 -0.38108429494E+03  0.11937512388E+03  0.40568947533E+03  0.00000000000E+00 0.  1.
<mgrwt>
<rscale>  0 0.93115147E+03</rscale>
<asrwt>0</asrwt>
<pdfrwt beam="1">  1        1 0.41244607E+00 0.93115147E+03</pdfrwt>
<pdfrwt beam="2">  1       -2 0.81859568E-01 0.93115147E+03</pdfrwt>
<totfact> 0.11998249E+00</totfact>
</mgrwt>
</event>
<event>
12    3  0.2269558E-007  0.4577822E+03  0.7818608E-02  0.1025426E+00
          1   -1    0    0  501    0  0.00000000000E+00  0.00000000000E+00  0.76428038666E+03  0.76428038666E+03  0.00000000000E+00 0. -1.
         -2   -1    0    0    0  501 -0.00000000000E+00 -0.00000000000E+00 -0.55319645181E+03  0.55319645181E+03  0.00000000000E+00 0.  1.
        -24    2    1    2    0    0  0.16628627259E+03 -0.32313827878E+03  0.44295267238E+03  0.57861903789E+03  0.80767873359E+02 0.  0.
    5000000    2    1    2    0    0 -0.16628627259E+03  0.32313827878E+03 -0.23186873753E+03  0.73885780058E+03  0.60006521843E+03 0.  0.
        -24    2    4    4    0    0 -0.28073678295E+03  0.12128114930E+03  0.96624342153E+02  0.32993172080E+03  0.77436544453E+02 0.  0.
         24    2    4    4    0    0  0.11445051036E+03  0.20185712948E+03 -0.32849307968E+03  0.40892607978E+03  0.73943324797E+02 0.  0.
         11    1    5    5    0    0 -0.16410475867E+03  0.78458659294E+02  0.96022583110E+02  0.20568536531E+03  0.00000000000E+00 0. -1.
        -12    1    5    5    0    0 -0.11663202428E+03  0.42822490008E+02  0.60175904261E+00  0.12424635549E+03  0.00000000000E+00 0.  1.
         13    1    3    3    0    0  0.55962163836E+02 -0.69068916934E+02  0.65413034602E+02  0.11036822080E+03  0.00000000000E+00 0. -1.
        -14    1    3    3    0    0  0.11032410876E+03 -0.25406936185E+03  0.37753963778E+03  0.46825081708E+03  0.00000000000E+00 0.  1.
          4    1    6    6  502    0  0.54226871776E+02  0.31185024082E+02 -0.83646791185E+02  0.10445020357E+03  0.00000000000E+00 0. -1.
         -3    1    6    6    0  502  0.60223638583E+02  0.17067210540E+03 -0.24484628850E+03  0.30447587621E+03  0.00000000000E+00 0.  1.
<mgrwt>
<rscale>  0 0.45778219E+03</rscale>
<asrwt>0</asrwt>
<pdfrwt beam="1">  1        1 0.11758160E+00 0.45778219E+03</pdfrwt>
<pdfrwt beam="2">  1       -2 0.85107146E-01 0.45778219E+03</pdfrwt>
<totfact> 0.26419591E+01</totfact>
</mgrwt>
</event>
<event>
12    3  0.2269558E-007  0.5742091E+03  0.7818608E-02  0.9960408E-01
          1   -1    0    0  501    0  0.00000000000E+00  0.00000000000E+00  0.77184878541E+03  0.77184878541E+03  0.00000000000E+00 0. -1.
         -2   -1    0    0    0  501 -0.00000000000E+00 -0.00000000000E+00 -0.51994384635E+03  0.51994384635E+03  0.00000000000E+00 0.  1.
        -24    2    1    2    0    0 -0.28067958241E+03  0.33900088845E+03  0.31128669863E+03  0.54529844357E+03  0.82148362498E+02 0.  0.
    5000000    2    1    2    0    0  0.28067958241E+03 -0.33900088845E+03 -0.59381759572E+02  0.74649418819E+03  0.60002062404E+03 0.  0.
        -24    2    4    4    0    0  0.14337267139E+03 -0.48220107592E+03  0.39290296776E+02  0.51118472798E+03  0.81807690232E+02 0.  0.
         24    2    4    4    0    0  0.13730691102E+03  0.14320018747E+03 -0.98672056348E+02  0.23530946021E+03  0.79214177105E+02 0.  0.
         13    1    5    5    0    0  0.43206572118E+02 -0.17948106607E+03  0.52883396319E+02  0.19203362872E+03  0.00000000000E+00 0. -1.
        -14    1    5    5    0    0  0.10016609927E+03 -0.30272000985E+03 -0.13593099543E+02  0.31915109926E+03  0.00000000000E+00 0.  1.
         13    1    3    3    0    0 -0.12986343195E+03  0.10538227928E+03  0.89978705532E+02  0.18991077693E+03  0.00000000000E+00 0. -1.
        -14    1    3    3    0    0 -0.15081615046E+03  0.23361860917E+03  0.22130799310E+03  0.35538766664E+03  0.00000000000E+00 0.  1.
          2    1    6    6  502    0  0.19951218560E+02  0.10709748481E+02  0.12924733352E+02  0.26072947029E+02  0.00000000000E+00 0. -1.
         -1    1    6    6    0  502  0.11735569246E+03  0.13249043899E+03 -0.11159678970E+03  0.20923651318E+03  0.00000000000E+00 0.  1.
<mgrwt>
<rscale>  0 0.57420909E+03</rscale>
<asrwt>0</asrwt>
<pdfrwt beam="1">  1        1 0.11874597E+00 0.57420909E+03</pdfrwt>
<pdfrwt beam="2">  1       -2 0.79991361E-01 0.57420909E+03</pdfrwt>
<totfact> 0.29457464E+01</totfact>
</mgrwt>
</event>
<event>
12    3  0.2269558E-007  0.1151003E+04  0.7818608E-02  0.9156858E-01
         -2   -1    0    0    0  501 -0.00000000000E+00  0.00000000000E+00  0.48725185450E+03  0.48725185450E+03  0.00000000000E+00 0.  1.
          1   -1    0    0  501    0  0.00000000000E+00 -0.00000000000E+00 -0.30322054592E+04  0.30322054592E+04  0.00000000000E+00 0. -1.
        -24    2    1    2    0    0  0.31900946713E+03  0.10762072351E+04 -0.14842286546E+04  0.18626384842E+04  0.80612471246E+02 0.  0.
    5000000    2    1    2    0    0 -0.31900946713E+03 -0.10762072351E+04 -0.10607249501E+04  0.16568188296E+04  0.59993513098E+03 0.  0.
        -24    2    4    4    0    0 -0.27198215490E+03 -0.35027368746E+03 -0.12344126844E+03  0.46790614581E+03  0.83859798631E+02 0.  0.
         24    2    4    4    0    0 -0.47027312229E+02 -0.72593354759E+03 -0.93728368163E+03  0.11889126837E+04  0.76299319141E+02 0.  0.
         11    1    3    3    0    0  0.19596428000E+03  0.59093214913E+03 -0.76485337845E+03  0.98620661853E+03  0.00000000000E+00 0. -1.
        -12    1    3    3    0    0  0.12304518713E+03  0.48527508592E+03 -0.71937527619E+03  0.87643186563E+03  0.00000000000E+00 0.  1.
         13    1    5    5    0    0 -0.43019458093E+02 -0.15491465614E+02 -0.11316290785E+02  0.47103266539E+02  0.00000000000E+00 0. -1.
        -14    1    5    5    0    0 -0.22896269680E+03 -0.33478222184E+03 -0.11212497765E+03  0.42080287927E+03  0.00000000000E+00 0.  1.
          4    1    6    6  502    0 -0.32570895493E+01 -0.30197948579E+02 -0.69179486797E+02  0.75553465335E+02  0.00000000000E+00 0. -1.
         -3    1    6    6    0  502 -0.43770222680E+02 -0.69573559901E+03 -0.86810419484E+03  0.11133592184E+04  0.00000000000E+00 0.  1.
<mgrwt>
<rscale>  0 0.11510034E+04</rscale>
<asrwt>0</asrwt>
<pdfrwt beam="1">  1        1 0.46649314E+00 0.11510034E+04</pdfrwt>
<pdfrwt beam="2">  1       -2 0.74961826E-01 0.11510034E+04</pdfrwt>
<totfact> 0.79692678E-01</totfact>
</mgrwt>
</event>
<event>
12    3  0.2269558E-007  0.6926543E+03  0.7818608E-02  0.9729877E-01
         -2   -1    0    0    0  501 -0.00000000000E+00  0.00000000000E+00  0.36391641882E+03  0.36391641882E+03  0.00000000000E+00 0.  1.
          1   -1    0    0  501    0  0.00000000000E+00 -0.00000000000E+00 -0.16632850115E+04  0.16632850115E+04  0.00000000000E+00 0. -1.
        -24    2    1    2    0    0  0.24881444368E+03 -0.54795131107E+03 -0.20197559896E+03  0.63929164297E+03  0.75765397879E+02 0.  0.
    5000000    2    1    2    0    0 -0.24881444368E+03  0.54795131107E+03 -0.10973929937E+04  0.13879097873E+04  0.59988576281E+03 0.  0.
        -24    2    4    4    0    0  0.13111590063E+03  0.26198824440E+03 -0.69446328660E+03  0.75932969320E+03  0.92049480933E+02 0.  0.
         24    2    4    4    0    0 -0.37993034431E+03  0.28596306667E+03 -0.40292970708E+03  0.62858009410E+03  0.81477873214E+02 0.  0.
         11    1    5    5    0    0  0.84407762544E+02  0.23402177549E+03 -0.51769965491E+03  0.57437252239E+03  0.00000000000E+00 0. -1.
        -12    1    5    5    0    0  0.46708138087E+02  0.27966468908E+02 -0.17676363169E+03  0.18495717081E+03  0.00000000000E+00 0.  1.
         13    1    3    3    0    0  0.54420702944E+02 -0.20703102915E+03 -0.74571758164E+02  0.22668128960E+03  0.00000000000E+00 0. -1.
        -14    1    3    3    0    0  0.19439374074E+03 -0.34092028192E+03 -0.12740384079E+03  0.41261035337E+03  0.00000000000E+00 0.  1.
          2    1    6    6  502    0 -0.37991953682E+02  0.25941279462E+02 -0.11505033925E+02  0.47420505378E+02  0.00000000000E+00 0. -1.
         -1    1    6    6    0  502 -0.34193839063E+03  0.26002178721E+03 -0.39142467316E+03  0.58115958872E+03  0.00000000000E+00 0.  1.
<mgrwt>
<rscale>  0 0.69265428E+03</rscale>
<asrwt>0</asrwt>
<pdfrwt beam="1">  1        1 0.25589000E+00 0.69265428E+03</pdfrwt>
<pdfrwt beam="2">  1       -2 0.55987141E-01 0.69265428E+03</pdfrwt>
<totfact> 0.13843172E+01</totfact>
</mgrwt>
</event>
<event>
12    3  0.2269558E-007  0.9074878E+03  0.7818608E-02  0.9416269E-01
         -2   -1    0    0    0  501 -0.00000000000E+00  0.00000000000E+00  0.72117108201E+03  0.72117108201E+03  0.00000000000E+00 0.  1.
          1   -1    0    0  501    0  0.00000000000E+00 -0.00000000000E+00 -0.13350909305E+04  0.13350909305E+04  0.00000000000E+00 0. -1.
        -24    2    1    2    0    0 -0.68950244913E+03  0.55064483881E+03 -0.37981553614E+03  0.96386922027E+03  0.78489912864E+02 0.  0.
    5000000    2    1    2    0    0  0.68950244913E+03 -0.55064483881E+03 -0.23410431240E+03  0.10923927923E+04  0.59991150820E+03 0.  0.
        -24    2    4    4    0    0  0.48484369503E+03 -0.52068137746E+03 -0.39579979683E+03  0.81805641218E+03  0.79851793297E+02 0.  0.
         24    2    4    4    0    0  0.20465875410E+03 -0.29963461350E+02  0.16169548443E+03  0.27433638010E+03  0.79573897191E+02 0.  0.
         11    1    3    3    0    0 -0.16400029894E+03  0.12813358859E+03 -0.12659451413E+03  0.24359902624E+03  0.00000000000E+00 0. -1.
        -12    1    3    3    0    0 -0.52550215019E+03  0.42251125022E+03 -0.25322102201E+03  0.72027019402E+03  0.00000000000E+00 0.  1.
         11    1    5    5    0    0  0.14738169253E+03 -0.11076077244E+03 -0.11698333504E+03  0.21834471068E+03  0.00000000000E+00 0. -1.
        -12    1    5    5    0    0  0.33746200250E+03 -0.40992060502E+03 -0.27881646179E+03  0.59971170150E+03  0.00000000000E+00 0.  1.
          4    1    6    6  502    0  0.90202162793E+02 -0.46694545636E+02  0.48741235014E+02  0.11266107915E+03  0.00000000000E+00 0. -1.
         -3    1    6    6    0  502  0.11445659131E+03  0.16731084286E+02  0.11295424942E+03  0.16167530095E+03  0.00000000000E+00 0.  1.
<mgrwt>
<rscale>  0 0.90748780E+03</rscale>
<asrwt>0</asrwt>
<pdfrwt beam="1">  1        1 0.20539860E+00 0.90748780E+03</pdfrwt>
<pdfrwt beam="2">  1       -2 0.11094940E+00 0.90748780E+03</pdfrwt>
<totfact> 0.48647098E+00</totfact>
</mgrwt>
</event>
<event>
12    3  0.2269558E-007  0.1005174E+04  0.7818608E-02  0.9302888E-01
         -2   -1    0    0    0  501 -0.00000000000E+00  0.00000000000E+00  0.10045445949E+04  0.10045445949E+04  0.00000000000E+00 0.  1.
          1   -1    0    0  501    0  0.00000000000E+00 -0.00000000000E+00 -0.22191097035E+04  0.22191097035E+04  0.00000000000E+00 0. -1.
        -24    2    1    2    0    0 -0.32978292842E+02 -0.99781278034E+03 -0.16908819094E+04  0.19652527074E+04  0.80116541377E+02 0.  0.
    5000000    2    1    2    0    0  0.32978292842E+02  0.99781278034E+03  0.47631680075E+03  0.12584015910E+04  0.59998246397E+03 0.  0.
        -24    2    4    4    0    0 -0.78505721480E+00  0.28436556749E+03  0.45134616696E+03  0.53930351012E+03  0.79186623308E+02 0.  0.
         24    2    4    4    0    0  0.33763350057E+02  0.71344721284E+03  0.24970633792E+02  0.71909808085E+03  0.79571527621E+02 0.  0.
         11    1    5    5    0    0 -0.24845815606E+02  0.25462621272E+03  0.40709377775E+03  0.48080886705E+03  0.00000000000E+00 0. -1.
        -12    1    5    5    0    0  0.24060758392E+02  0.29739354778E+02  0.44252389210E+02  0.58494643069E+02  0.00000000000E+00 0.  1.
         13    1    3    3    0    0 -0.25112583709E+02 -0.19183965989E+03 -0.27939371413E+03  0.33984400019E+03  0.00000000000E+00 0. -1.
        -14    1    3    3    0    0 -0.78657091333E+01 -0.80597312044E+03 -0.14114881952E+04  0.16254087072E+04  0.00000000000E+00 0.  1.
          2    1    6    6  502    0  0.29848576834E+02  0.13291136820E+03 -0.15714432281E+02  0.13712517171E+03  0.00000000000E+00 0. -1.
         -1    1    6    6    0  502  0.39147732232E+01  0.58053584465E+03  0.40685066073E+02  0.58197290914E+03  0.00000000000E+00 0.  1.
<mgrwt>
<rscale>  0 0.10051740E+04</rscale>
<asrwt>0</asrwt>
<pdfrwt beam="1">  1        1 0.34140149E+00 0.10051740E+04</pdfrwt>
<pdfrwt beam="2">  1       -2 0.15454532E+00 0.10051740E+04</pdfrwt>
<totfact> 0.51613555E-01</totfact>
</mgrwt>
</event>
<event>
12    3  0.2269558E-007  0.9126376E+03  0.7818608E-02  0.9409920E-01
          1   -1    0    0  501    0  0.00000000000E+00  0.00000000000E+00  0.11407563507E+04  0.11407563507E+04  0.00000000000E+00 0. -1.
         -2   -1    0    0    0  501 -0.00000000000E+00 -0.00000000000E+00 -0.87749834906E+03  0.87749834906E+03  0.00000000000E+00 0.  1.
        -24    2    1    2    0    0  0.50615976130E+03  0.69805279332E+03  0.40916233081E+03  0.95773076629E+03  0.79743347858E+02 0.  0.
    5000000    2    1    2    0    0 -0.50615976130E+03 -0.69805279332E+03 -0.14590432917E+03  0.10605239335E+04  0.59995627671E+03 0.  0.
        -24    2    4    4    0    0 -0.44144831800E+03 -0.26843737933E+03 -0.28762933753E+03  0.59647402151E+03  0.78200885114E+02 0.  0.
         24    2    4    4    0    0 -0.64711443298E+02 -0.42961541399E+03  0.14172500836E+03  0.46404991196E+03  0.80618657699E+02 0.  0.
         11    1    3    3    0    0  0.98632824408E+02  0.90874755539E+02  0.51189278831E+02  0.14355137586E+03  0.00000000000E+00 0. -1.
        -12    1    3    3    0    0  0.40752693689E+03  0.60717803778E+03  0.35797305198E+03  0.81417939043E+03  0.00000000000E+00 0.  1.
         13    1    5    5    0    0 -0.15365756359E+03 -0.59548866172E+02 -0.11661626010E+03  0.20188131768E+03  0.00000000000E+00 0. -1.
        -14    1    5    5    0    0 -0.28779075441E+03 -0.20888851316E+03 -0.17101307743E+03  0.39459270382E+03  0.00000000000E+00 0.  1.
          2    1    6    6  502    0 -0.51829894244E+00 -0.22604215619E+03  0.96914524694E+02  0.24594257481E+03  0.00000000000E+00 0. -1.
         -1    1    6    6    0  502 -0.64193144356E+02 -0.20357325780E+03  0.44810483665E+02  0.21810733715E+03  0.00000000000E+00 0.  1.
<mgrwt>
<rscale>  0 0.91263764E+03</rscale>
<asrwt>0</asrwt>
<pdfrwt beam="1">  1        1 0.17550098E+00 0.91263764E+03</pdfrwt>
<pdfrwt beam="2">  1       -2 0.13499975E+00 0.91263764E+03</pdfrwt>
<totfact> 0.41143007E+00</totfact>
</mgrwt>
</event>
<event>
12    3  0.2269558E-007  0.4791045E+03  0.7818608E-02  0.1019382E+00
         -2   -1    0    0    0  501 -0.00000000000E+00  0.00000000000E+00  0.32924159970E+03  0.32924159970E+03  0.00000000000E+00 0.  1.
          1   -1    0    0  501    0  0.00000000000E+00 -0.00000000000E+00 -0.75337715201E+03  0.75337715201E+03  0.00000000000E+00 0. -1.
        -24    2    1    2    0    0  0.28513365682E+03 -0.11556247277E+03 -0.92997175608E+02  0.33126707545E+03  0.80209184265E+02 0.  0.
    5000000    2    1    2    0    0 -0.28513365682E+03  0.11556247277E+03 -0.33113837670E+03  0.75135167627E+03  0.60018399640E+03 0.  0.
        -24    2    4    4    0    0 -0.38167577385E+03 -0.11380891570E+03 -0.25302867037E+03  0.47846492011E+03  0.79223141239E+02 0.  0.
         24    2    4    4    0    0  0.96542117034E+02  0.22937138847E+03 -0.78109706334E+02  0.27288675616E+03  0.80214969002E+02 0.  0.
         13    1    5    5    0    0 -0.21501074084E+03 -0.68529457502E+02 -0.96697463722E+02  0.24551233108E+03  0.00000000000E+00 0. -1.
        -14    1    5    5    0    0 -0.16666503301E+03 -0.45279458198E+02 -0.15633120665E+03  0.23295258903E+03  0.00000000000E+00 0.  1.
         13    1    3    3    0    0  0.20153941205E+03 -0.59761635422E+02 -0.95131475271E+02  0.23073704788E+03  0.00000000000E+00 0. -1.
        -14    1    3    3    0    0  0.83594244766E+02 -0.55800837348E+02  0.21342996637E+01  0.10053002756E+03  0.00000000000E+00 0.  1.
          2    1    6    6  502    0  0.18269854067E+02  0.55696844518E+02  0.15500445841E+02  0.60631591420E+02  0.00000000000E+00 0. -1.
         -1    1    6    6    0  502  0.78272262968E+02  0.17367454395E+03 -0.93610152175E+02  0.21225516474E+03  0.00000000000E+00 0.  1.
<mgrwt>
<rscale>  0 0.47910453E+03</rscale>
<asrwt>0</asrwt>
<pdfrwt beam="1">  1        1 0.11590418E+00 0.47910453E+03</pdfrwt>
<pdfrwt beam="2">  1       -2 0.50652554E-01 0.47910453E+03</pdfrwt>
<totfact> 0.81785710E+01</totfact>
</mgrwt>
</event>
<event>
12    3  0.2269558E-007  0.4978048E+03  0.7818608E-02  0.1014353E+00
         -2   -1    0    0    0  501 -0.00000000000E+00  0.00000000000E+00  0.82534463712E+03  0.82534463712E+03  0.00000000000E+00 0.  1.
          1   -1    0    0  501    0  0.00000000000E+00 -0.00000000000E+00 -0.50093056644E+03  0.50093056644E+03  0.00000000000E+00 0. -1.
        -24    2    1    2    0    0 -0.13243930881E+03  0.28356613544E+03  0.52858353172E+03  0.61945120029E+03  0.79807993649E+02 0.  0.
    5000000    2    1    2    0    0  0.13243930881E+03 -0.28356613544E+03 -0.20416946105E+03  0.70682400327E+03  0.59997089854E+03 0.  0.
        -24    2    4    4    0    0  0.10978696530E+03 -0.46023216425E+03 -0.15683067461E+03  0.50554552777E+03  0.84342144856E+02 0.  0.
         24    2    4    4    0    0  0.22652343504E+02  0.17666602881E+03 -0.47338786444E+02  0.20127847550E+03  0.80920019741E+02 0.  0.
         13    1    5    5    0    0  0.69675808420E+02 -0.39987069802E+03 -0.11502680308E+03  0.42187967341E+03  0.00000000000E+00 0. -1.
        -14    1    5    5    0    0  0.40111156882E+02 -0.60361466230E+02 -0.41803871525E+02  0.83665854364E+02  0.00000000000E+00 0.  1.
         13    1    3    3    0    0 -0.31570480198E+02  0.15639609362E+03  0.28777621867E+03  0.32904647901E+03  0.00000000000E+00 0. -1.
        -14    1    3    3    0    0 -0.10086882861E+03  0.12717004182E+03  0.24080731306E+03  0.29040472128E+03  0.00000000000E+00 0.  1.
          2    1    6    6  502    0  0.20200414768E+02  0.15717567461E+01 -0.17919506734E+01  0.20340557104E+02  0.00000000000E+00 0. -1.
         -1    1    6    6    0  502  0.24519287364E+01  0.17509427206E+03 -0.45546835771E+02  0.18093791839E+03  0.00000000000E+00 0.  1.
<mgrwt>
<rscale>  0 0.49780481E+03</rscale>
<asrwt>0</asrwt>
<pdfrwt beam="1">  1        1 0.77066241E-01 0.49780481E+03</pdfrwt>
<pdfrwt beam="2">  1       -2 0.12697610E+00 0.49780481E+03</pdfrwt>
<totfact> 0.18652945E+01</totfact>
</mgrwt>
</event>
<event>
12    3  0.2269558E-007  0.5134244E+03  0.7818608E-02  0.1010333E+00
          1   -1    0    0  501    0  0.00000000000E+00  0.00000000000E+00  0.20388119532E+04  0.20388119532E+04  0.00000000000E+00 0. -1.
         -2   -1    0    0    0  501 -0.00000000000E+00 -0.00000000000E+00 -0.17260377833E+03  0.17260377833E+03  0.00000000000E+00 0.  1.
        -24    2    1    2    0    0  0.28588457739E+03 -0.27968057097E+03  0.36981875343E+03  0.55049747519E+03  0.79563474225E+02 0.  0.
    5000000    2    1    2    0    0 -0.28588457739E+03  0.27968057097E+03  0.14963894214E+04  0.16609182563E+04  0.59959731512E+03 0.  0.
        -24    2    4    4    0    0  0.12522952275E+03  0.81316484334E+02  0.11839475850E+03  0.20715939475E+03  0.81258181147E+02 0.  0.
         24    2    4    4    0    0 -0.41111410014E+03  0.19836408664E+03  0.13779946629E+04  0.14537588616E+04  0.78628381327E+02 0.  0.
         13    1    3    3    0    0  0.13816938772E+03 -0.14955403682E+03  0.13604376462E+03  0.24487771545E+03  0.00000000000E+00 0. -1.
        -14    1    3    3    0    0  0.14771518967E+03 -0.13012653416E+03  0.23377498881E+03  0.30561975974E+03  0.00000000000E+00 0.  1.
         13    1    5    5    0    0  0.12914687131E+03  0.91967246963E+02  0.11219245737E+03  0.19422676534E+03  0.00000000000E+00 0. -1.
        -14    1    5    5    0    0 -0.39173485613E+01 -0.10650762629E+02  0.62023011227E+01  0.12932629414E+02  0.00000000000E+00 0.  1.
          4    1    6    6  502    0 -0.15660350452E+03  0.73335355040E+02  0.64645705568E+03  0.66918566689E+03  0.00000000000E+00 0. -1.
         -3    1    6    6    0  502 -0.25451059562E+03  0.12502873160E+03  0.73153760725E+03  0.78457319469E+03  0.00000000000E+00 0.  1.
<mgrwt>
<rscale>  0 0.51342436E+03</rscale>
<asrwt>0</asrwt>
<pdfrwt beam="1">  1        1 0.31366336E+00 0.51342436E+03</pdfrwt>
<pdfrwt beam="2">  1       -2 0.26554429E-01 0.51342436E+03</pdfrwt>
<totfact> 0.33937645E+01</totfact>
</mgrwt>
</event>
<event>
12    3  0.2269558E-007  0.5812240E+03  0.7818608E-02  0.9945144E-01
          1   -1    0    0  501    0  0.00000000000E+00  0.00000000000E+00  0.18123206690E+04  0.18123206690E+04  0.00000000000E+00 0. -1.
         -2   -1    0    0    0  501 -0.00000000000E+00 -0.00000000000E+00 -0.25863425957E+03  0.25863425957E+03  0.00000000000E+00 0.  1.
        -24    2    1    2    0    0 -0.35528931561E+03  0.39768183641E+03  0.42858484747E+03  0.68892107674E+03  0.80906969433E+02 0.  0.
    5000000    2    1    2    0    0  0.35528931561E+03 -0.39768183641E+03  0.11251015619E+04  0.13820338518E+04  0.59981889107E+03 0.  0.
        -24    2    4    4    0    0 -0.42517053442E+02 -0.34292360803E+02  0.65644120866E+03  0.66347769171E+03  0.79397236233E+02 0.  0.
         24    2    4    4    0    0  0.39780636905E+03 -0.36338947561E+03  0.46866035328E+03  0.71855616011E+03  0.79866202178E+02 0.  0.
         11    1    5    5    0    0 -0.75243456969E+01 -0.46201029907E+02  0.52050377999E+03  0.52260437802E+03  0.00000000000E+00 0. -1.
        -12    1    5    5    0    0 -0.34992707745E+02  0.11908669104E+02  0.13593742867E+03  0.14087331368E+03  0.00000000000E+00 0.  1.
         13    1    3    3    0    0 -0.24833516062E+03  0.23761400964E+03  0.30976397807E+03  0.46269265359E+03  0.00000000000E+00 0. -1.
        -14    1    3    3    0    0 -0.10695415499E+03  0.16006782677E+03  0.11882086940E+03  0.22622842315E+03  0.00000000000E+00 0.  1.
          2    1    6    6  502    0  0.15436772735E+03 -0.18334689831E+03  0.23949783957E+03  0.33882841605E+03  0.00000000000E+00 0. -1.
         -1    1    6    6    0  502  0.24343864170E+03 -0.18004257730E+03  0.22916251371E+03  0.37972774406E+03  0.00000000000E+00 0.  1.
<mgrwt>
<rscale>  0 0.58122404E+03</rscale>
<asrwt>0</asrwt>
<pdfrwt beam="1">  1        1 0.27881856E+00 0.58122404E+03</pdfrwt>
<pdfrwt beam="2">  1       -2 0.39789887E-01 0.58122404E+03</pdfrwt>
<totfact> 0.22228356E+01</totfact>
</mgrwt>
</event>
<event>
12    3  0.2269558E-007  0.5296064E+03  0.7818608E-02  0.1006328E+00
         -2   -1    0    0    0  501 -0.00000000000E+00  0.00000000000E+00  0.15508737711E+04  0.15508737711E+04  0.00000000000E+00 0.  1.
          1   -1    0    0  501    0  0.00000000000E+00 -0.00000000000E+00 -0.30247126940E+03  0.30247126940E+03  0.00000000000E+00 0. -1.
        -24    2    1    2    0    0  0.38439941343E+03  0.30189220019E+03  0.84827559429E+03  0.98218374932E+03  0.78813856489E+02 0.  0.
    5000000    2    1    2    0    0 -0.38439941343E+03 -0.30189220019E+03  0.40012690740E+03  0.87116129116E+03  0.59993219918E+03 0.  0.
        -24    2    4    4    0    0  0.16165434945E+02 -0.31555972504E+02  0.37045299812E+03  0.38050715561E+03  0.79329508822E+02 0.  0.
         24    2    4    4    0    0 -0.40056484838E+03 -0.27033622769E+03  0.29673909279E+02  0.49065413555E+03  0.79542856898E+02 0.  0.
         11    1    3    3    0    0  0.33414333425E+03  0.28030998880E+03  0.70720753778E+03  0.83088384215E+03  0.00000000000E+00 0. -1.
        -12    1    3    3    0    0  0.50256079185E+02  0.21582211389E+02  0.14106805651E+03  0.15129990717E+03  0.00000000000E+00 0.  1.
         11    1    5    5    0    0  0.39668367988E+02 -0.40425670025E+02  0.18840106439E+03  0.19673020937E+03  0.00000000000E+00 0. -1.
        -12    1    5    5    0    0 -0.23502933043E+02  0.88696975217E+01  0.18205193373E+03  0.18377694624E+03  0.00000000000E+00 0.  1.
          2    1    6    6  502    0 -0.25788772115E+03 -0.20616967681E+03 -0.58835440608E+01  0.33022208958E+03  0.00000000000E+00 0. -1.
         -1    1    6    6    0  502 -0.14267712723E+03 -0.64166550871E+02  0.35557453339E+02  0.16043204597E+03  0.00000000000E+00 0.  1.
<mgrwt>
<rscale>  0 0.52960645E+03</rscale>
<asrwt>0</asrwt>
<pdfrwt beam="1">  1        1 0.46534042E-01 0.52960645E+03</pdfrwt>
<pdfrwt beam="2">  1       -2 0.23859596E+00 0.52960645E+03</pdfrwt>
<totfact> 0.60770498E+00</totfact>
</mgrwt>
</event>
<event>
12    3  0.2269558E-007  0.7406718E+03  0.7818608E-02  0.9650100E-01
         -4   -1    0    0    0  501 -0.00000000000E+00  0.00000000000E+00  0.83155156519E+03  0.83155156519E+03  0.00000000000E+00 0.  1.
          3   -1    0    0  501    0  0.00000000000E+00 -0.00000000000E+00 -0.10628971275E+04  0.10628971275E+04  0.00000000000E+00 0. -1.
        -24    2    1    2    0    0 -0.26631966212E+03 -0.67719177058E+03 -0.53205169715E+03  0.90470737352E+03  0.76821654974E+02 0.  0.
    5000000    2    1    2    0    0  0.26631966212E+03  0.67719177058E+03  0.30070613488E+03  0.98974131914E+03  0.59970729752E+03 0.  0.
        -24    2    4    4    0    0  0.33889200302E+02  0.16371647725E+03 -0.17037694248E+03  0.25150684307E+03  0.79220115888E+02 0.  0.
         24    2    4    4    0    0  0.23243046182E+03  0.51347529333E+03  0.47108307735E+03  0.73823447607E+03  0.73417160512E+02 0.  0.
         11    1    3    3    0    0 -0.16755660231E+03 -0.49741313311E+03 -0.35408381394E+03  0.63314325967E+03  0.00000000000E+00 0. -1.
        -12    1    3    3    0    0 -0.98763059809E+02 -0.17977863747E+03 -0.17796788321E+03  0.27156411384E+03  0.00000000000E+00 0.  1.
         11    1    5    5    0    0  0.52680985483E+02  0.68459731764E+02 -0.64181167951E+02  0.10761618570E+03  0.00000000000E+00 0. -1.
        -12    1    5    5    0    0 -0.18791785180E+02  0.95256745490E+02 -0.10619577453E+03  0.14389065737E+03  0.00000000000E+00 0.  1.
          4    1    6    6  502    0  0.89677123665E+02  0.12377439523E+03  0.11296017741E+03  0.19005812033E+03  0.00000000000E+00 0. -1.
         -3    1    6    6    0  502  0.14275333815E+03  0.38970089810E+03  0.35812289994E+03  0.54817635574E+03  0.00000000000E+00 0.  1.
<mgrwt>
<rscale>  0 0.74067180E+03</rscale>
<asrwt>0</asrwt>
<pdfrwt beam="1">  1        3 0.16352263E+00 0.74067180E+03</pdfrwt>
<pdfrwt beam="2">  1       -4 0.12793101E+00 0.74067180E+03</pdfrwt>
<totfact> 0.26109472E-01</totfact>
</mgrwt>
</event>
<event>
12    3  0.2269558E-007  0.9017694E+03  0.7818608E-02  0.9423372E-01
          1   -1    0    0  501    0  0.00000000000E+00  0.00000000000E+00  0.80970846964E+03  0.80970846964E+03  0.00000000000E+00 0. -1.
         -2   -1    0    0    0  501 -0.00000000000E+00 -0.00000000000E+00 -0.13751804876E+04  0.13751804876E+04  0.00000000000E+00 0.  1.
        -24    2    1    2    0    0  0.40057966034E+03 -0.72014032319E+03 -0.78644216640E+03  0.11417903638E+04  0.78280293325E+02 0.  0.
    5000000    2    1    2    0    0 -0.40057966034E+03  0.72014032319E+03  0.22097014844E+03  0.10430985935E+04  0.60013391826E+03 0.  0.
        -24    2    4    4    0    0 -0.41377244456E+02  0.58929752822E+03  0.39918827521E+01  0.59636069377E+03  0.81526000852E+02 0.  0.
         24    2    4    4    0    0 -0.35920241588E+03  0.13084279497E+03  0.21697826568E+03  0.44673789971E+03  0.79680428499E+02 0.  0.
         13    1    5    5    0    0  0.24364925900E+02  0.13054270012E+03  0.56299176888E+01  0.13291629751E+03  0.00000000000E+00 0. -1.
        -14    1    5    5    0    0 -0.65742170356E+02  0.45875482810E+03 -0.16380349367E+01  0.46344439626E+03  0.00000000000E+00 0.  1.
         13    1    3    3    0    0  0.12266494554E+03 -0.23721718615E+03 -0.20667971284E+03  0.33769096222E+03  0.00000000000E+00 0. -1.
        -14    1    3    3    0    0  0.27791471480E+03 -0.48292313704E+03 -0.57976245356E+03  0.80409940154E+03  0.00000000000E+00 0.  1.
          2    1    6    6  502    0 -0.13665231761E+03  0.62408470050E+02  0.43555838580E+02  0.15641542161E+03  0.00000000000E+00 0. -1.
         -1    1    6    6    0  502 -0.22255009827E+03  0.68434324923E+02  0.17342242710E+03  0.29032247810E+03  0.00000000000E+00 0.  1.
<mgrwt>
<rscale>  0 0.90176936E+03</rscale>
<asrwt>0</asrwt>
<pdfrwt beam="1">  1        1 0.12457053E+00 0.90176936E+03</pdfrwt>
<pdfrwt beam="2">  1       -2 0.21156623E+00 0.90176936E+03</pdfrwt>
<totfact> 0.21460934E+00</totfact>
</mgrwt>
</event>
<event>
12    3  0.2269558E-007  0.9011879E+03  0.7818608E-02  0.9424098E-01
          1   -1    0    0  501    0  0.00000000000E+00  0.00000000000E+00  0.24481236768E+04  0.24481236768E+04  0.00000000000E+00 0. -1.
         -2   -1    0    0    0  501 -0.00000000000E+00 -0.00000000000E+00 -0.48315365391E+03  0.48315365391E+03  0.00000000000E+00 0.  1.
        -24    2    1    2    0    0  0.10906007730E+03 -0.86914932057E+03  0.25030651839E+03  0.91454667846E+03  0.80172514145E+02 0.  0.
    5000000    2    1    2    0    0 -0.10906007730E+03  0.86914932057E+03  0.17146635045E+04  0.20167306522E+04  0.59984743737E+03 0.  0.
        -24    2    4    4    0    0 -0.20147604243E+03  0.45794487916E+03  0.43721307515E+03  0.66930294076E+03  0.80653861711E+02 0.  0.
         24    2    4    4    0    0  0.92415965125E+02  0.41120444140E+03  0.12774504293E+04  0.13474277114E+04  0.77794826153E+02 0.  0.
         11    1    3    3    0    0  0.47167832970E+02 -0.37823072078E+03  0.15037849418E+03  0.40975233266E+03  0.00000000000E+00 0. -1.
        -12    1    3    3    0    0  0.61892244334E+02 -0.49091859978E+03  0.99928024211E+02  0.50479434579E+03  0.00000000000E+00 0.  1.
         11    1    5    5    0    0 -0.74338998303E+02  0.16482674300E+03  0.21072149058E+03  0.27766470512E+03  0.00000000000E+00 0. -1.
        -12    1    5    5    0    0 -0.12713704413E+03  0.29311813617E+03  0.22649158457E+03  0.39163823564E+03  0.00000000000E+00 0.  1.
          2    1    6    6  502    0  0.83985980445E+02  0.40878336358E+03  0.12221591762E+04  0.12914451345E+04  0.00000000000E+00 0. -1.
         -1    1    6    6    0  502  0.84299846801E+01  0.24210778229E+01  0.55291253060E+02  0.55982576973E+02  0.00000000000E+00 0.  1.
<mgrwt>
<rscale>  0 0.90118790E+03</rscale>
<asrwt>0</asrwt>
<pdfrwt beam="1">  1        1 0.37663441E+00 0.90118790E+03</pdfrwt>
<pdfrwt beam="2">  1       -2 0.74331332E-01 0.90118790E+03</pdfrwt>
<totfact> 0.21654681E+00</totfact>
</mgrwt>
</event>
<event>
12    3  0.2269558E-007  0.7735964E+03  0.7818608E-02  0.9599042E-01
         -2   -1    0    0    0  501 -0.00000000000E+00  0.00000000000E+00  0.10152029561E+04  0.10152029561E+04  0.00000000000E+00 0.  1.
          1   -1    0    0  501    0  0.00000000000E+00 -0.00000000000E+00 -0.85691635741E+03  0.85691635741E+03  0.00000000000E+00 0. -1.
        -24    2    1    2    0    0  0.36162788264E+03  0.65023780885E+03 -0.30771414709E+03  0.80882679048E+03  0.76999007279E+02 0.  0.
    5000000    2    1    2    0    0 -0.36162788264E+03 -0.65023780885E+03  0.46600074579E+03  0.10632925230E+04  0.59987528781E+03 0.  0.
        -24    2    4    4    0    0 -0.36471158762E+03 -0.62454790045E+03  0.57429539380E+03  0.92697613245E+03  0.79968297977E+02 0.  0.
         24    2    4    4    0    0  0.30837049821E+01 -0.25689908394E+02 -0.10829464801E+03  0.13631639060E+03  0.78644433549E+02 0.  0.
         11    1    5    5    0    0 -0.20247142568E+03 -0.28601616480E+03  0.24459575312E+03  0.42734881208E+03  0.00000000000E+00 0. -1.
        -12    1    5    5    0    0 -0.16224016195E+03 -0.33853173565E+03  0.32969964068E+03  0.49962732037E+03  0.00000000000E+00 0.  1.
         11    1    3    3    0    0  0.18629745114E+03  0.32512271654E+03 -0.11364367668E+03  0.39156915911E+03  0.00000000000E+00 0. -1.
        -12    1    3    3    0    0  0.17533043150E+03  0.32511509230E+03 -0.19407047042E+03  0.41725763138E+03  0.00000000000E+00 0.  1.
          2    1    6    6  502    0 -0.30865197913E+02 -0.30007586943E+02 -0.83868464592E+02  0.94271072282E+02  0.00000000000E+00 0. -1.
         -1    1    6    6    0  502  0.33948902895E+02  0.43176785486E+01 -0.24426183416E+02  0.42045318314E+02  0.00000000000E+00 0.  1.
<mgrwt>
<rscale>  0 0.77359645E+03</rscale>
<asrwt>0</asrwt>
<pdfrwt beam="1">  1        1 0.13183329E+00 0.77359645E+03</pdfrwt>
<pdfrwt beam="2">  1       -2 0.15618507E+00 0.77359645E+03</pdfrwt>
<totfact> 0.47564789E+00</totfact>
</mgrwt>
</event>
<event>
12    3  0.2269558E-007  0.5226328E+03  0.7818608E-02  0.1008035E+00
          1   -1    0    0  501    0  0.00000000000E+00  0.00000000000E+00  0.95675597894E+03  0.95675597894E+03  0.00000000000E+00 0. -1.
         -2   -1    0    0    0  501 -0.00000000000E+00 -0.00000000000E+00 -0.60831110366E+03  0.60831110366E+03  0.00000000000E+00 0.  1.
        -24    2    1    2    0    0 -0.40547447154E+03  0.29345994599E+03  0.56006515060E+03  0.75564376858E+03  0.82439341961E+02 0.  0.
    5000000    2    1    2    0    0  0.40547447154E+03 -0.29345994599E+03 -0.21162027532E+03  0.80942331403E+03  0.59987888227E+03 0.  0.
        -24    2    4    4    0    0  0.31176332480E+03 -0.26882968828E+03  0.13435255900E+03  0.44029790578E+03  0.79660929769E+02 0.  0.
         24    2    4    4    0    0  0.93711146745E+02 -0.24630257713E+02 -0.34597283432E+03  0.36912540825E+03  0.84663665810E+02 0.  0.
         11    1    5    5    0    0  0.71114853176E+02 -0.10508308946E+03  0.57131838249E+02  0.13915396140E+03  0.00000000000E+00 0. -1.
        -12    1    5    5    0    0  0.24064847162E+03 -0.16374659882E+03  0.77220720753E+02  0.30114394437E+03  0.00000000000E+00 0.  1.
         13    1    3    3    0    0 -0.17245954594E+03  0.13946174176E+03  0.30705886804E+03  0.37878360689E+03  0.00000000000E+00 0. -1.
        -14    1    3    3    0    0 -0.23301492560E+03  0.15399820423E+03  0.25300628255E+03  0.37686016169E+03  0.00000000000E+00 0.  1.
          2    1    6    6  502    0  0.77388813363E+02 -0.52776370026E+02 -0.28522898973E+03  0.30021650563E+03  0.00000000000E+00 0. -1.
         -1    1    6    6    0  502  0.16322333382E+02  0.28146112313E+02 -0.60743844588E+02  0.68908902623E+02  0.00000000000E+00 0.  1.
<mgrwt>
<rscale>  0 0.52263280E+03</rscale>
<asrwt>0</asrwt>
<pdfrwt beam="1">  1        1 0.14719323E+00 0.52263280E+03</pdfrwt>
<pdfrwt beam="2">  1       -2 0.93586324E-01 0.52263280E+03</pdfrwt>
<totfact> 0.14604213E+01</totfact>
</mgrwt>
</event>
<event>
12    3  0.2269558E-007  0.2121408E+03  0.7818608E-02  0.1139882E+00
          1   -1    0    0  501    0  0.00000000000E+00  0.00000000000E+00  0.14333023036E+03  0.14333023036E+03  0.00000000000E+00 0. -1.
         -2   -1    0    0    0  501 -0.00000000000E+00 -0.00000000000E+00 -0.14987265429E+04  0.14987265429E+04  0.00000000000E+00 0.  1.
        -24    2    1    2    0    0  0.71935950144E+02 -0.63588095140E+02  0.31215612950E+02  0.12815869897E+03  0.78943086225E+02 0.  0.
    5000000    2    1    2    0    0 -0.71935950144E+02  0.63588095140E+02 -0.13866119255E+04  0.15138980743E+04  0.59998043356E+03 0.  0.
        -24    2    4    4    0    0 -0.62861468206E+02  0.18165401643E+03 -0.12131266680E+03  0.24114692270E+03  0.80531542457E+02 0.  0.
         24    2    4    4    0    0 -0.90744819379E+01 -0.11806592129E+03 -0.12652992587E+04  0.12727511516E+04  0.69938342958E+02 0.  0.
         11    1    3    3    0    0  0.65262534515E+02 -0.58775449959E+02  0.54567959270E+02  0.10339929452E+03  0.00000000000E+00 0. -1.
        -12    1    3    3    0    0  0.66734156294E+01 -0.48126451815E+01 -0.23352346320E+02  0.24759404445E+02  0.00000000000E+00 0.  1.
         13    1    5    5    0    0 -0.80606103061E+02  0.14928001194E+03 -0.11127304249E+03  0.20288803760E+03  0.00000000000E+00 0. -1.
        -14    1    5    5    0    0  0.17744634855E+02  0.32374004492E+02 -0.10039624313E+02  0.38258885103E+02  0.00000000000E+00 0.  1.
          4    1    6    6  502    0 -0.16967083693E+02 -0.43801872591E+02 -0.81057541923E+03  0.81193533993E+03  0.00000000000E+00 0. -1.
         -3    1    6    6    0  502  0.78926017554E+01 -0.74264048704E+02 -0.45472383951E+03  0.46081581170E+03  0.00000000000E+00 0.  1.
<mgrwt>
<rscale>  0 0.21214078E+03</rscale>
<asrwt>0</asrwt>
<pdfrwt beam="1">  1        1 0.22050805E-01 0.21214078E+03</pdfrwt>
<pdfrwt beam="2">  1       -2 0.23057331E+00 0.21214078E+03</pdfrwt>
<totfact> 0.18831892E+01</totfact>
</mgrwt>
</event>
<event>
12    3  0.2269558E-007  0.1163189E+04  0.7818608E-02  0.9145701E-01
         -2   -1    0    0    0  501 -0.00000000000E+00  0.00000000000E+00  0.14898160987E+04  0.14898160987E+04  0.00000000000E+00 0.  1.
          1   -1    0    0  501    0  0.00000000000E+00 -0.00000000000E+00 -0.12219692720E+04  0.12219692720E+04  0.00000000000E+00 0. -1.
        -24    2    1    2    0    0 -0.10984647200E+04  0.55944906621E+02 -0.53309581890E+03  0.12247318922E+04  0.77604651712E+02 0.  0.
    5000000    2    1    2    0    0  0.10984647200E+04 -0.55944906621E+02  0.80094264559E+03  0.14870534786E+04  0.60005362503E+03 0.  0.
        -24    2    4    4    0    0  0.70502506696E+03 -0.29312836247E+03  0.35966766361E+03  0.84781216032E+03  0.80249915985E+02 0.  0.
         24    2    4    4    0    0  0.39343965304E+03  0.23718345585E+03  0.44127498199E+03  0.63924131824E+03  0.53433144304E+02 0.  0.
         11    1    5    5    0    0  0.16734539474E+03 -0.55138109443E+02  0.11818251807E+03  0.21215984500E+03  0.00000000000E+00 0. -1.
        -12    1    5    5    0    0  0.53767967222E+03 -0.23799025302E+03  0.24148514553E+03  0.63565231531E+03  0.00000000000E+00 0.  1.
         13    1    3    3    0    0 -0.53869837766E+03  0.54756123619E+02 -0.23149507313E+03  0.58888381201E+03  0.00000000000E+00 0. -1.
        -14    1    3    3    0    0 -0.55976634234E+03  0.11887830019E+01 -0.30160074576E+03  0.63584808018E+03  0.00000000000E+00 0.  1.
          4    1    6    6  502    0  0.28483923160E+03  0.15155820814E+03  0.33229372813E+03  0.46316562920E+03  0.00000000000E+00 0. -1.
         -3    1    6    6    0  502  0.10860042143E+03  0.85625247700E+02  0.10898125385E+03  0.17607568904E+03  0.00000000000E+00 0.  1.
<mgrwt>
<rscale>  0 0.11631893E+04</rscale>
<asrwt>0</asrwt>
<pdfrwt beam="1">  1        1 0.18799527E+00 0.11631893E+04</pdfrwt>
<pdfrwt beam="2">  1       -2 0.22920248E+00 0.11631893E+04</pdfrwt>
<totfact> 0.76470002E-01</totfact>
</mgrwt>
</event>
<event>
12    3  0.2269558E-007  0.8255763E+03  0.7818608E-02  0.9523717E-01
         -2   -1    0    0    0  501 -0.00000000000E+00  0.00000000000E+00  0.74571476250E+03  0.74571476250E+03  0.00000000000E+00 0.  1.
          1   -1    0    0  501    0  0.00000000000E+00 -0.00000000000E+00 -0.15842427013E+04  0.15842427013E+04  0.00000000000E+00 0. -1.
        -24    2    1    2    0    0 -0.73911982667E+03  0.14203854949E+03  0.32176855056E+03  0.82238923425E+03  0.79473170084E+02 0.  0.
    5000000    2    1    2    0    0  0.73911982667E+03 -0.14203854949E+03 -0.11602964893E+04  0.15075682295E+04  0.60000079649E+03 0.  0.
        -24    2    4    4    0    0  0.62448210649E+03 -0.29132428903E+03 -0.10916979754E+04  0.12934444525E+04  0.79663916517E+02 0.  0.
         24    2    4    4    0    0  0.11463772019E+03  0.14928573954E+03 -0.68598513966E+02  0.21412377702E+03  0.75598920940E+02 0.  0.
         11    1    3    3    0    0 -0.58922803413E+03  0.14338073668E+03  0.26988498655E+03  0.66376623734E+03  0.00000000000E+00 0. -1.
        -12    1    3    3    0    0 -0.14989179254E+03 -0.13421871876E+01  0.51883564009E+02  0.15862299692E+03  0.00000000000E+00 0.  1.
         13    1    5    5    0    0  0.46015234469E+03 -0.18225672881E+03 -0.74096129159E+03  0.89105630078E+03  0.00000000000E+00 0. -1.
        -14    1    5    5    0    0  0.16432976180E+03 -0.10906756022E+03 -0.35073668376E+03  0.40238815171E+03  0.00000000000E+00 0.  1.
          2    1    6    6  502    0  0.10337648868E+03  0.75454068637E+02 -0.47507587047E+02  0.13651734583E+03  0.00000000000E+00 0. -1.
         -1    1    6    6    0  502  0.11261231504E+02  0.73831670902E+02 -0.21090926919E+02  0.77606431186E+02  0.00000000000E+00 0.  1.
<mgrwt>
<rscale>  0 0.82557634E+03</rscale>
<asrwt>0</asrwt>
<pdfrwt beam="1">  1        1 0.24372965E+00 0.82557634E+03</pdfrwt>
<pdfrwt beam="2">  1       -2 0.11472535E+00 0.82557634E+03</pdfrwt>
<totfact> 0.30472494E+00</totfact>
</mgrwt>
</event>
<event>
12    3  0.2269558E-007  0.3176386E+03  0.7818608E-02  0.1076741E+00
          1   -1    0    0  501    0  0.00000000000E+00  0.00000000000E+00  0.42955216472E+03  0.42955216472E+03  0.00000000000E+00 0. -1.
         -2   -1    0    0    0  501 -0.00000000000E+00 -0.00000000000E+00 -0.44361912036E+03  0.44361912036E+03  0.00000000000E+00 0.  1.
        -24    2    1    2    0    0 -0.21690270951E+03 -0.91848002341E+01  0.32554332334E+02  0.23341938366E+03  0.79332705529E+02 0.  0.
    5000000    2    1    2    0    0  0.21690270951E+03  0.91848002341E+01 -0.46621287971E+02  0.63975190142E+03  0.59998150382E+03 0.  0.
        -24    2    4    4    0    0  0.27832228182E+03 -0.49631450153E+02 -0.26247160401E+03  0.39372847814E+03  0.78766732740E+02 0.  0.
         24    2    4    4    0    0 -0.61419572304E+02  0.58816250387E+02  0.21585031604E+03  0.24602342328E+03  0.81880710138E+02 0.  0.
         11    1    5    5    0    0  0.12333833586E+03 -0.58886168911E+02 -0.14310769004E+03  0.19788819300E+03  0.00000000000E+00 0. -1.
        -12    1    5    5    0    0  0.15498394596E+03  0.92547187578E+01 -0.11936391397E+03  0.19584028514E+03  0.00000000000E+00 0.  1.
         11    1    3    3    0    0 -0.32911894662E+02  0.27897505271E+02  0.14500805315E+01  0.43169043818E+02  0.00000000000E+00 0. -1.
        -12    1    3    3    0    0 -0.18399081485E+03 -0.37082305505E+02  0.31104251803E+02  0.19025033985E+03  0.00000000000E+00 0.  1.
          2    1    6    6  502    0 -0.70998291589E+02  0.21796637495E+02  0.10384077911E+03  0.12766659007E+03  0.00000000000E+00 0. -1.
         -1    1    6    6    0  502  0.95787192853E+01  0.37019612892E+02  0.11200953693E+03  0.11835683320E+03  0.00000000000E+00 0.  1.
<mgrwt>
<rscale>  0 0.31763863E+03</rscale>
<asrwt>0</asrwt>
<pdfrwt beam="1">  1        1 0.66084948E-01 0.31763863E+03</pdfrwt>
<pdfrwt beam="2">  1       -2 0.68249095E-01 0.31763863E+03</pdfrwt>
<totfact> 0.98245374E+01</totfact>
</mgrwt>
</event>
<event>
12    3  0.2269558E-007  0.4476147E+03  0.7818608E-02  0.1028436E+00
          1   -1    0    0  501    0  0.00000000000E+00  0.00000000000E+00  0.17913632857E+03  0.17913632857E+03  0.00000000000E+00 0. -1.
         -4   -1    0    0    0  501 -0.00000000000E+00 -0.00000000000E+00 -0.12973466036E+04  0.12973466036E+04  0.00000000000E+00 0.  1.
        -24    2    1    2    0    0  0.25764588830E+03  0.11483453322E+03 -0.43658088205E+03  0.52557426547E+03  0.77827168627E+02 0.  0.
    5000000    2    1    2    0    0 -0.25764588830E+03 -0.11483453322E+03 -0.68162939294E+03  0.95090866665E+03  0.60003357340E+03 0.  0.
        -24    2    4    4    0    0  0.94308300605E+02  0.13076990005E+03 -0.37899781441E+03  0.41990096243E+03  0.81747492888E+02 0.  0.
         24    2    4    4    0    0 -0.35195418891E+03 -0.24560443327E+03 -0.30263157853E+03  0.53100770422E+03  0.78676685825E+02 0.  0.
         13    1    3    3    0    0  0.44309122774E+02 -0.44954040849E+01 -0.40846157536E+02  0.60431081442E+02  0.00000000000E+00 0. -1.
        -14    1    3    3    0    0  0.21333676553E+03  0.11932993731E+03 -0.39573472451E+03  0.46514318403E+03  0.00000000000E+00 0.  1.
         13    1    5    5    0    0  0.67192289326E+02  0.47168021337E+02 -0.11239191167E+03  0.13918177966E+03  0.00000000000E+00 0. -1.
        -14    1    5    5    0    0  0.27116011279E+02  0.83601878711E+02 -0.26660590275E+03  0.28071918276E+03  0.00000000000E+00 0.  1.
          4    1    6    6  502    0 -0.70382694944E+02 -0.14187734889E+02 -0.53205942488E+02  0.89363795157E+02  0.00000000000E+00 0. -1.
         -3    1    6    6    0  502 -0.28157149396E+03 -0.23141669838E+03 -0.24942563604E+03  0.44164390907E+03  0.00000000000E+00 0.  1.
<mgrwt>
<rscale>  0 0.44761466E+03</rscale>
<asrwt>0</asrwt>
<pdfrwt beam="1">  1        1 0.27559435E-01 0.44761466E+03</pdfrwt>
<pdfrwt beam="2">  1       -4 0.19959178E+00 0.44761466E+03</pdfrwt>
<totfact> 0.11040878E+01</totfact>
</mgrwt>
</event>
<event>
12    3  0.2269558E-007  0.1376376E+04  0.7818608E-02  0.8971098E-01
         -2   -1    0    0    0  501 -0.00000000000E+00  0.00000000000E+00  0.16213797760E+04  0.16213797760E+04  0.00000000000E+00 0.  1.
          1   -1    0    0  501    0  0.00000000000E+00 -0.00000000000E+00 -0.12983753667E+04  0.12983753667E+04  0.00000000000E+00 0. -1.
        -24    2    1    2    0    0  0.13672917304E+04  0.20849411033E+02  0.39187355849E+03  0.14248098215E+04  0.81220487010E+02 0.  0.
    5000000    2    1    2    0    0 -0.13672917304E+04 -0.20849411033E+02 -0.68869149225E+02  0.14949453212E+04  0.60016429384E+03 0.  0.
        -24    2    4    4    0    0 -0.33328864764E+03 -0.85418092301E+02 -0.25972146136E+03  0.43845489872E+03  0.80061773535E+02 0.  0.
         24    2    4    4    0    0 -0.10340030828E+04  0.64568681268E+02  0.19085231213E+03  0.10564904225E+04  0.80099425202E+02 0.  0.
         11    1    3    3    0    0  0.10169541112E+04 -0.53395324814E+01  0.26116660039E+03  0.10499676986E+04  0.00000000000E+00 0. -1.
        -12    1    3    3    0    0  0.35033761922E+03  0.26188943514E+02  0.13070695810E+03  0.37484212290E+03  0.00000000000E+00 0.  1.
         13    1    5    5    0    0 -0.24260075166E+03 -0.41183348296E+02 -0.14476020225E+03  0.28549379860E+03  0.00000000000E+00 0. -1.
        -14    1    5    5    0    0 -0.90687895983E+02 -0.44234744005E+02 -0.11496125910E+03  0.15296110012E+03  0.00000000000E+00 0.  1.
          2    1    6    6  502    0 -0.60782792258E+03  0.65259043130E+02  0.83459661593E+02  0.61699192968E+03  0.00000000000E+00 0. -1.
         -1    1    6    6    0  502 -0.42617516022E+03 -0.69036186208E+00  0.10739265054E+03  0.43949849281E+03  0.00000000000E+00 0.  1.
<mgrwt>
<rscale>  0 0.13763763E+04</rscale>
<asrwt>0</asrwt>
<pdfrwt beam="1">  1        1 0.19975006E+00 0.13763763E+04</pdfrwt>
<pdfrwt beam="2">  1       -2 0.24944304E+00 0.13763763E+04</pdfrwt>
<totfact> 0.49258882E-01</totfact>
</mgrwt>
</event>
<event>
12    3  0.2269558E-007  0.1576229E+04  0.7818608E-02  0.8835286E-01
          1   -1    0    0  501    0  0.00000000000E+00  0.00000000000E+00  0.22978316848E+04  0.22978316848E+04  0.00000000000E+00 0. -1.
         -2   -1    0    0    0  501 -0.00000000000E+00 -0.00000000000E+00 -0.12709841194E+04  0.12709841194E+04  0.00000000000E+00 0.  1.
        -24    2    1    2    0    0 -0.94503930371E+03  0.11917586680E+04  0.11798621288E+04  0.19266063164E+04  0.79682161765E+02 0.  0.
    5000000    2    1    2    0    0  0.94503930371E+03 -0.11917586680E+04 -0.15301456347E+03  0.16422094879E+04  0.60004211270E+03 0.  0.
        -24    2    4    4    0    0  0.77611950482E+03 -0.51778470600E+03 -0.90810732903E+02  0.93979313372E+03  0.67097372869E+02 0.  0.
         24    2    4    4    0    0  0.16891979889E+03 -0.67397396201E+03 -0.62203830564E+02  0.70241635413E+03  0.82125623798E+02 0.  0.
         11    1    3    3    0    0 -0.31648334050E+03  0.37736040856E+03  0.42643770759E+03  0.65146887970E+03  0.00000000000E+00 0. -1.
        -12    1    3    3    0    0 -0.62855596321E+03  0.81439825946E+03  0.75342442124E+03  0.12751374367E+04  0.00000000000E+00 0.  1.
         13    1    5    5    0    0  0.36675783846E+03 -0.24327115793E+03 -0.76482063089E+02  0.44670087791E+03  0.00000000000E+00 0. -1.
        -14    1    5    5    0    0  0.40936166636E+03 -0.27451354807E+03 -0.14328669814E+02  0.49309225581E+03  0.00000000000E+00 0.  1.
          4    1    6    6  502    0  0.12295083110E+03 -0.34944105083E+03 -0.55505412053E+02  0.37457550059E+03  0.00000000000E+00 0. -1.
         -3    1    6    6    0  502  0.45968967786E+02 -0.32453291118E+03 -0.66984185111E+01  0.32784085354E+03  0.00000000000E+00 0.  1.
<mgrwt>
<rscale>  0 0.15762290E+04</rscale>
<asrwt>0</asrwt>
<pdfrwt beam="1">  1        1 0.35351257E+00 0.15762290E+04</pdfrwt>
<pdfrwt beam="2">  1       -2 0.19553602E+00 0.15762290E+04</pdfrwt>
<totfact> 0.21777646E-01</totfact>
</mgrwt>
</event>
<event>
12    3  0.2269558E-007  0.4838890E+03  0.7818608E-02  0.1018072E+00
          1   -1    0    0  501    0  0.00000000000E+00  0.00000000000E+00  0.10656231870E+04  0.10656231870E+04  0.00000000000E+00 0. -1.
         -2   -1    0    0    0  501 -0.00000000000E+00 -0.00000000000E+00 -0.37544755302E+03  0.37544755302E+03  0.00000000000E+00 0.  1.
        -24    2    1    2    0    0 -0.11789566069E+03  0.41433661519E+03  0.11793906745E+02  0.43822604621E+03  0.79553465303E+02 0.  0.
    5000000    2    1    2    0    0  0.11789566069E+03 -0.41433661519E+03  0.67838172720E+03  0.10028446938E+04  0.59993457521E+03 0.  0.
        -24    2    4    4    0    0  0.82217062617E+02  0.24427182855E+02  0.51238924466E+03  0.52543867916E+03  0.78655799925E+02 0.  0.
         24    2    4    4    0    0  0.35678598074E+02 -0.43876379804E+03  0.16599248253E+03  0.47740601461E+03  0.81094794514E+02 0.  0.
         13    1    3    3    0    0 -0.10986828948E+03  0.30139675699E+03  0.34826268633E+02  0.32268237501E+03  0.00000000000E+00 0. -1.
        -14    1    3    3    0    0 -0.80273712076E+01  0.11293985820E+03 -0.23032361888E+02  0.11554367119E+03  0.00000000000E+00 0.  1.
         13    1    5    5    0    0  0.52490947516E+01 -0.64411906761E+00  0.26680556368E+03  0.26685797102E+03  0.00000000000E+00 0. -1.
        -14    1    5    5    0    0  0.76967967865E+02  0.25071301922E+02  0.24558368098E+03  0.25858070814E+03  0.00000000000E+00 0.  1.
          2    1    6    6  502    0 -0.86074061761E+01 -0.32962152344E+03  0.12674038562E+03  0.35325282944E+03  0.00000000000E+00 0. -1.
         -1    1    6    6    0  502  0.44286004250E+02 -0.10914227460E+03  0.39252096915E+02  0.12415318518E+03  0.00000000000E+00 0.  1.
<mgrwt>
<rscale>  0 0.48388897E+03</rscale>
<asrwt>0</asrwt>
<pdfrwt beam="1">  1        1 0.16394203E+00 0.48388897E+03</pdfrwt>
<pdfrwt beam="2">  1       -2 0.57761162E-01 0.48388897E+03</pdfrwt>
<totfact> 0.35002209E+01</totfact>
</mgrwt>
</event>
<event>
12    3  0.2269558E-007  0.2012782E+04  0.7818608E-02  0.8600668E-01
          1   -1    0    0  501    0  0.00000000000E+00  0.00000000000E+00  0.21108677905E+04  0.21108677905E+04  0.00000000000E+00 0. -1.
         -2   -1    0    0    0  501 -0.00000000000E+00 -0.00000000000E+00 -0.19303496049E+04  0.19303496049E+04  0.00000000000E+00 0.  1.
        -24    2    1    2    0    0  0.19680198117E+04 -0.80318312842E+02 -0.29784973837E+02  0.19714678934E+04  0.79028471173E+02 0.  0.
    5000000    2    1    2    0    0 -0.19680198117E+04  0.80318312842E+02  0.21030315945E+03  0.20697495019E+04  0.60006880533E+03 0.  0.
        -24    2    4    4    0    0 -0.12032042363E+04 -0.22656802881E+03  0.19049076219E+03  0.12416053218E+04  0.79142522772E+02 0.  0.
         24    2    4    4    0    0 -0.76481557547E+03  0.30688634166E+03  0.19812397254E+02  0.82814418009E+03  0.79423930607E+02 0.  0.
         13    1    5    5    0    0 -0.29268768880E+03 -0.20833850834E+02  0.47330241741E+02  0.29722093516E+03  0.00000000000E+00 0. -1.
        -14    1    5    5    0    0 -0.91051654746E+03 -0.20573417798E+03  0.14316052045E+03  0.94438438668E+03  0.00000000000E+00 0.  1.
         13    1    3    3    0    0  0.41553840260E+03  0.14892232817E+02 -0.11375377694E+02  0.41596074556E+03  0.00000000000E+00 0. -1.
        -14    1    3    3    0    0  0.15524814091E+04 -0.95210545659E+02 -0.18409596143E+02  0.15555071478E+04  0.00000000000E+00 0.  1.
          4    1    6    6  502    0 -0.10520309028E+03  0.15434448138E+02 -0.65360878058E+01  0.10652996215E+03  0.00000000000E+00 0. -1.
         -3    1    6    6    0  502 -0.65961248519E+03  0.29145189352E+03  0.26348485060E+02  0.72161421793E+03  0.00000000000E+00 0.  1.
<mgrwt>
<rscale>  0 0.20127821E+04</rscale>
<asrwt>0</asrwt>
<pdfrwt beam="1">  1        1 0.32474889E+00 0.20127821E+04</pdfrwt>
<pdfrwt beam="2">  1       -2 0.29697686E+00 0.20127821E+04</pdfrwt>
<totfact> 0.64783325E-02</totfact>
</mgrwt>
</event>
<event>
12    3  0.2269558E-007  0.1312570E+04  0.7818608E-02  0.9019656E-01
          1   -1    0    0  501    0  0.00000000000E+00  0.00000000000E+00  0.20207048457E+04  0.20207048457E+04  0.00000000000E+00 0. -1.
         -2   -1    0    0    0  501 -0.00000000000E+00 -0.00000000000E+00 -0.95496107754E+03  0.95496107754E+03  0.00000000000E+00 0.  1.
        -24    2    1    2    0    0 -0.59066445350E+03 -0.11276643900E+04  0.11957545617E+03  0.12799513759E+04  0.58870721219E+02 0.  0.
    5000000    2    1    2    0    0  0.59066445350E+03  0.11276643900E+04  0.94616831199E+03  0.16957145473E+04  0.59975151375E+03 0.  0.
        -24    2    4    4    0    0  0.32793555515E+03  0.21465435792E+03  0.50106573276E+03  0.64213861404E+03  0.87503767840E+02 0.  0.
         24    2    4    4    0    0  0.26272889835E+03  0.91301003211E+03  0.44510257923E+03  0.10535759333E+04  0.96395790447E+02 0.  0.
         11    1    3    3    0    0 -0.10868453206E+03 -0.26001464669E+03  0.28036999722E+02  0.28320666898E+03  0.00000000000E+00 0. -1.
        -12    1    3    3    0    0 -0.48197992144E+03 -0.86764974334E+03  0.91538456444E+02  0.99674470693E+03  0.00000000000E+00 0.  1.
         13    1    5    5    0    0  0.91712215850E+02  0.91705854728E+02  0.11629307029E+03  0.17419865822E+03  0.00000000000E+00 0. -1.
        -14    1    5    5    0    0  0.23622333930E+03  0.12294850319E+03  0.38477266247E+03  0.46793995582E+03  0.00000000000E+00 0.  1.
          2    1    6    6  502    0  0.15168363069E+03  0.67948394980E+03  0.33269856118E+03  0.77161823103E+03  0.00000000000E+00 0. -1.
         -1    1    6    6    0  502  0.11104526766E+03  0.23352608231E+03  0.11240401806E+03  0.28195770226E+03  0.00000000000E+00 0.  1.
<mgrwt>
<rscale>  0 0.13125701E+04</rscale>
<asrwt>0</asrwt>
<pdfrwt beam="1">  1        1 0.31087767E+00 0.13125701E+04</pdfrwt>
<pdfrwt beam="2">  1       -2 0.14691709E+00 0.13125701E+04</pdfrwt>
<totfact> 0.77335636E-01</totfact>
</mgrwt>
</event>
<event>
12    3  0.2269558E-007  0.9338648E+03  0.7818608E-02  0.9384211E-01
         -2   -1    0    0    0  501 -0.00000000000E+00  0.00000000000E+00  0.82864711732E+03  0.82864711732E+03  0.00000000000E+00 0.  1.
          1   -1    0    0  501    0  0.00000000000E+00 -0.00000000000E+00 -0.14518208069E+04  0.14518208069E+04  0.00000000000E+00 0. -1.
        -24    2    1    2    0    0  0.37070186491E+01  0.84351137280E+03 -0.87237174437E+03  0.12157251308E+04  0.73688230613E+02 0.  0.
    5000000    2    1    2    0    0 -0.37070186491E+01 -0.84351137280E+03  0.24919805475E+03  0.10647427934E+04  0.60004363812E+03 0.  0.
        -24    2    4    4    0    0  0.17885298321E+03 -0.36022537101E+02  0.88882732807E+02  0.21774936499E+03  0.78921688892E+02 0.  0.
         24    2    4    4    0    0 -0.18256000186E+03 -0.80748883570E+03  0.16031532194E+03  0.84699342845E+03  0.79564384791E+02 0.  0.
         11    1    3    3    0    0 -0.28527331817E+01  0.44503388468E+03 -0.51242370741E+03  0.67870564497E+03  0.00000000000E+00 0. -1.
        -12    1    3    3    0    0  0.65597518309E+01  0.39847748812E+03 -0.35994803696E+03  0.53701948586E+03  0.00000000000E+00 0.  1.
         11    1    5    5    0    0  0.14908049005E+03  0.11528408958E+00  0.82806656449E+02  0.17053430200E+03  0.00000000000E+00 0. -1.
        -12    1    5    5    0    0  0.29772493160E+02 -0.36137821190E+02  0.60760763580E+01  0.47215062991E+02  0.00000000000E+00 0.  1.
          2    1    6    6  502    0 -0.23195016158E+02 -0.14639158460E+03 -0.43223750615E+00  0.14821839173E+03  0.00000000000E+00 0. -1.
         -1    1    6    6    0  502 -0.15936498570E+03 -0.66109725109E+03  0.16074755945E+03  0.69877503672E+03  0.00000000000E+00 0.  1.
<mgrwt>
<rscale>  0 0.93386483E+03</rscale>
<asrwt>0</asrwt>
<pdfrwt beam="1">  1        1 0.22335705E+00 0.93386483E+03</pdfrwt>
<pdfrwt beam="2">  1       -2 0.12748417E+00 0.93386483E+03</pdfrwt>
<totfact> 0.28477608E+00</totfact>
</mgrwt>
</event>
<event>
12    3  0.2269558E-007  0.1149846E+04  0.7818608E-02  0.9157926E-01
          1   -1    0    0  501    0  0.00000000000E+00  0.00000000000E+00  0.16941124005E+04  0.16941124005E+04  0.00000000000E+00 0. -1.
         -2   -1    0    0    0  501 -0.00000000000E+00 -0.00000000000E+00 -0.86399887847E+03  0.86399887847E+03  0.00000000000E+00 0.  1.
        -24    2    1    2    0    0  0.44376994622E+03 -0.10050490301E+04  0.93324486336E+02  0.11055193544E+04  0.80051639511E+02 0.  0.
    5000000    2    1    2    0    0 -0.44376994622E+03  0.10050490301E+04  0.73678903569E+03  0.14525919246E+04  0.60009157482E+03 0.  0.
        -24    2    4    4    0    0 -0.18279477699E+03  0.89222586816E+03  0.38428224914E+03  0.99190546115E+03  0.81991868829E+02 0.  0.
         24    2    4    4    0    0 -0.26097516923E+03  0.11282316197E+03  0.35250678655E+03  0.46068646345E+03  0.84462288671E+02 0.  0.
         11    1    5    5    0    0 -0.18176214040E+03  0.74133431984E+03  0.31208333739E+03  0.82462722423E+03  0.00000000000E+00 0. -1.
        -12    1    5    5    0    0 -0.10326365953E+01  0.15089154832E+03  0.72198911749E+02  0.16727823693E+03  0.00000000000E+00 0.  1.
         13    1    3    3    0    0  0.27847731234E+03 -0.53892947333E+03  0.66004224937E+02  0.61020582463E+03  0.00000000000E+00 0. -1.
        -14    1    3    3    0    0  0.16529263388E+03 -0.46611955681E+03  0.27320261399E+02  0.49531352973E+03  0.00000000000E+00 0.  1.
          4    1    6    6  502    0 -0.31772638271E+02  0.13416521446E+02  0.98688727416E+02  0.10454170703E+03  0.00000000000E+00 0. -1.
         -3    1    6    6    0  502 -0.22920253096E+03  0.99406640526E+02  0.25381805914E+03  0.35614475642E+03  0.00000000000E+00 0.  1.
<mgrwt>
<rscale>  0 0.11498459E+04</rscale>
<asrwt>0</asrwt>
<pdfrwt beam="1">  1        1 0.26063268E+00 0.11498459E+04</pdfrwt>
<pdfrwt beam="2">  1       -2 0.13292290E+00 0.11498459E+04</pdfrwt>
<totfact> 0.17024916E+00</totfact>
</mgrwt>
</event>
<event>
12    3  0.2269558E-007  0.3598375E+03  0.7818608E-02  0.1058648E+00
         -2   -1    0    0    0  501 -0.00000000000E+00  0.00000000000E+00  0.13648041002E+03  0.13648041002E+03  0.00000000000E+00 0.  1.
          1   -1    0    0  501    0  0.00000000000E+00 -0.00000000000E+00 -0.14299840352E+04  0.14299840352E+04  0.00000000000E+00 0. -1.
        -24    2    1    2    0    0  0.86513201518E+02  0.14795293585E+03 -0.87020734385E+02  0.20817601087E+03  0.79937713404E+02 0.  0.
    5000000    2    1    2    0    0 -0.86513201518E+02 -0.14795293585E+03 -0.12064828908E+04  0.13582884344E+04  0.59997658276E+03 0.  0.
        -24    2    4    4    0    0  0.18595014738E+03  0.43957993967E+02 -0.79983977037E+03  0.82644455437E+03  0.82202071999E+02 0.  0.
         24    2    4    4    0    0 -0.27246334890E+03 -0.19191092982E+03 -0.40664312045E+03  0.53184388001E+03  0.80207255350E+02 0.  0.
         11    1    5    5    0    0  0.12709624638E+03  0.29739570685E+01 -0.61864834374E+03  0.63157586518E+03  0.00000000000E+00 0. -1.
        -12    1    5    5    0    0  0.58853901000E+02  0.40984036899E+02 -0.18119142663E+03  0.19486868919E+03  0.00000000000E+00 0.  1.
         13    1    3    3    0    0  0.99528834960E+02  0.11518782082E+03 -0.59479689564E+02  0.16343823459E+03  0.00000000000E+00 0. -1.
        -14    1    3    3    0    0 -0.13015633442E+02  0.32765115031E+02 -0.27541044821E+02  0.44737776282E+02  0.00000000000E+00 0.  1.
          4    1    6    6  502    0 -0.12500477355E+03 -0.92326088503E+02 -0.25217532133E+03  0.29621393066E+03  0.00000000000E+00 0. -1.
         -3    1    6    6    0  502 -0.14745857535E+03 -0.99584841317E+02 -0.15446779913E+03  0.23562994935E+03  0.00000000000E+00 0.  1.
<mgrwt>
<rscale>  0 0.35983752E+03</rscale>
<asrwt>0</asrwt>
<pdfrwt beam="1">  1        1 0.21999754E+00 0.35983752E+03</pdfrwt>
<pdfrwt beam="2">  1       -2 0.20996987E-01 0.35983752E+03</pdfrwt>
<totfact> 0.13414130E+02</totfact>
</mgrwt>
</event>
<event>
12    3  0.2269558E-007  0.3628041E+03  0.7818608E-02  0.1057479E+00
          1   -1    0    0  501    0  0.00000000000E+00  0.00000000000E+00  0.11966749621E+04  0.11966749621E+04  0.00000000000E+00 0. -1.
         -2   -1    0    0    0  501 -0.00000000000E+00 -0.00000000000E+00 -0.36448013854E+03  0.36448013854E+03  0.00000000000E+00 0.  1.
        -24    2    1    2    0    0 -0.32653976261E+03 -0.24346409883E+02 -0.14599955446E+03  0.36776556879E+03  0.81943147638E+02 0.  0.
    5000000    2    1    2    0    0  0.32653976261E+03  0.24346409883E+02  0.97819437805E+03  0.11933895319E+04  0.60007780272E+03 0.  0.
        -24    2    4    4    0    0  0.18210977612E+03 -0.81780581957E+02  0.19952786257E+02  0.21509185915E+03  0.77552305244E+02 0.  0.
         24    2    4    4    0    0  0.14442998648E+03  0.10612699184E+03  0.95824159179E+03  0.97829767273E+03  0.81953821324E+02 0.  0.
         11    1    5    5    0    0  0.35768582752E+02 -0.13195041101E+02 -0.27089080563E+02  0.46768781334E+02  0.00000000000E+00 0. -1.
        -12    1    5    5    0    0  0.14634119337E+03 -0.68585540856E+02  0.47041866820E+02  0.16832307782E+03  0.00000000000E+00 0.  1.
         13    1    3    3    0    0 -0.13076803612E+03 -0.24385213200E+02 -0.10065179233E+03  0.16681037496E+03  0.00000000000E+00 0. -1.
        -14    1    3    3    0    0 -0.19577172648E+03  0.38803317077E-01 -0.45347762129E+02  0.20095519383E+03  0.00000000000E+00 0.  1.
          4    1    6    6  502    0  0.81784897509E+02  0.10668434196E+03  0.65084384287E+03  0.66458109068E+03  0.00000000000E+00 0. -1.
         -3    1    6    6    0  502  0.62645088975E+02 -0.55735012474E+00  0.30739774892E+03  0.31371658205E+03  0.00000000000E+00 0.  1.
<mgrwt>
<rscale>  0 0.36280410E+03</rscale>
<asrwt>0</asrwt>
<pdfrwt beam="1">  1        1 0.18410384E+00 0.36280410E+03</pdfrwt>
<pdfrwt beam="2">  1       -2 0.56073868E-01 0.36280410E+03</pdfrwt>
<totfact> 0.30561315E+01</totfact>
</mgrwt>
</event>
<event>
12    3  0.2269558E-007  0.5752779E+03  0.7818608E-02  0.9958067E-01
         -2   -1    0    0    0  501 -0.00000000000E+00  0.00000000000E+00  0.39743435504E+03  0.39743435504E+03  0.00000000000E+00 0.  1.
          1   -1    0    0  501    0  0.00000000000E+00 -0.00000000000E+00 -0.95338550830E+03  0.95338550830E+03  0.00000000000E+00 0. -1.
        -24    2    1    2    0    0 -0.73602386670E+02  0.41905376964E+03 -0.41910891505E+03  0.60253899610E+03  0.79859789442E+02 0.  0.
    5000000    2    1    2    0    0  0.73602386670E+02 -0.41905376964E+03 -0.13684223821E+03  0.74828086724E+03  0.60014588639E+03 0.  0.
        -24    2    4    4    0    0 -0.24699320846E+03 -0.10762727183E+03 -0.67894536883E+02  0.28919146806E+03  0.80204503571E+02 0.  0.
         24    2    4    4    0    0  0.32059559513E+03 -0.31142649781E+03 -0.68947701324E+02  0.45908939919E+03  0.79001846653E+02 0.  0.
         11    1    3    3    0    0 -0.30676589382E+00  0.22924065211E+03 -0.23080080159E+03  0.32530044682E+03  0.00000000000E+00 0. -1.
        -12    1    3    3    0    0 -0.73295620776E+02  0.18981311753E+03 -0.18830811346E+03  0.27723854928E+03  0.00000000000E+00 0.  1.
         13    1    5    5    0    0 -0.10904732155E+03 -0.35031586859E+02 -0.68211400813E+02  0.13330913553E+03  0.00000000000E+00 0. -1.
        -14    1    5    5    0    0 -0.13794588691E+03 -0.72595684974E+02  0.31686393019E+00  0.15588233253E+03  0.00000000000E+00 0.  1.
          4    1    6    6  502    0  0.16721219086E+03 -0.14814530901E+03 -0.73013456595E+02  0.23502747541E+03  0.00000000000E+00 0. -1.
         -3    1    6    6    0  502  0.15338340427E+03 -0.16328118880E+03  0.40657552708E+01  0.22406192377E+03  0.00000000000E+00 0.  1.
<mgrwt>
<rscale>  0 0.57527785E+03</rscale>
<asrwt>0</asrwt>
<pdfrwt beam="1">  1        1 0.14667469E+00 0.57527785E+03</pdfrwt>
<pdfrwt beam="2">  1       -2 0.61143748E-01 0.57527785E+03</pdfrwt>
<totfact> 0.37388824E+01</totfact>
</mgrwt>
</event>
<event>
12    3  0.2269558E-007  0.7585278E+03  0.7818608E-02  0.9622066E-01
          1   -1    0    0  501    0  0.00000000000E+00  0.00000000000E+00  0.16672571449E+04  0.16672571449E+04  0.00000000000E+00 0. -1.
         -2   -1    0    0    0  501 -0.00000000000E+00 -0.00000000000E+00 -0.35915754368E+03  0.35915754368E+03  0.00000000000E+00 0.  1.
        -24    2    1    2    0    0 -0.44665488880E+03  0.47146896621E+03  0.44903432843E+03  0.79375019961E+03  0.81387809151E+02 0.  0.
    5000000    2    1    2    0    0  0.44665488880E+03 -0.47146896621E+03  0.85906527277E+03  0.12326644890E+04  0.59973746228E+03 0.  0.
        -24    2    4    4    0    0  0.27271087752E+03 -0.58228306127E+03  0.72592268313E+03  0.97408270195E+03  0.91916169403E+02 0.  0.
         24    2    4    4    0    0  0.17394401128E+03  0.11081409506E+03  0.13314258964E+03  0.25858178700E+03  0.81248437941E+02 0.  0.
         11    1    3    3    0    0 -0.20119574488E+03  0.24100502093E+03  0.17360734054E+03  0.35875152482E+03  0.00000000000E+00 0. -1.
        -12    1    3    3    0    0 -0.24545914393E+03  0.23046394528E+03  0.27542698788E+03  0.43499867479E+03  0.00000000000E+00 0.  1.
         13    1    5    5    0    0  0.23183867836E+03 -0.43903769609E+03  0.60190998463E+03  0.78025566385E+03  0.00000000000E+00 0. -1.
        -14    1    5    5    0    0  0.40872199158E+02 -0.14324536518E+03  0.12401269850E+03  0.19382703810E+03  0.00000000000E+00 0.  1.
          4    1    6    6  502    0  0.13520895992E+03  0.41290621601E+02  0.95003852080E+02  0.17032941667E+03  0.00000000000E+00 0. -1.
         -3    1    6    6    0  502  0.38735051366E+02  0.69523473459E+02  0.38138737561E+02  0.88252370330E+02  0.00000000000E+00 0.  1.
<mgrwt>
<rscale>  0 0.75852775E+03</rscale>
<asrwt>0</asrwt>
<pdfrwt beam="1">  1        1 0.25650109E+00 0.75852775E+03</pdfrwt>
<pdfrwt beam="2">  1       -2 0.55255008E-01 0.75852775E+03</pdfrwt>
<totfact> 0.14012522E+01</totfact>
</mgrwt>
</event>
<event>
12    3  0.2269558E-007  0.4479851E+03  0.7818608E-02  0.1028325E+00
          1   -1    0    0  501    0  0.00000000000E+00  0.00000000000E+00  0.16587117512E+04  0.16587117512E+04  0.00000000000E+00 0. -1.
         -2   -1    0    0    0  501 -0.00000000000E+00 -0.00000000000E+00 -0.20771996277E+03  0.20771996277E+03  0.00000000000E+00 0.  1.
        -24    2    1    2    0    0  0.22594905064E+03  0.31219739661E+03  0.83914497481E+03  0.92679847054E+03  0.79189193149E+02 0.  0.
    5000000    2    1    2    0    0 -0.22594905064E+03 -0.31219739661E+03  0.61184681362E+03  0.93963324344E+03  0.60002826675E+03 0.  0.
        -24    2    4    4    0    0  0.27716038342E+02  0.37074524220E+02 -0.78486935285E+02  0.12152160779E+03  0.80402755066E+02 0.  0.
         24    2    4    4    0    0 -0.25366508898E+03 -0.34927192083E+03  0.69033374891E+03  0.81811163565E+03  0.80056926326E+02 0.  0.
         11    1    5    5    0    0 -0.11742711758E+02 -0.99905099395E+01  0.64443295726E+01  0.16710205023E+02  0.00000000000E+00 0. -1.
        -12    1    5    5    0    0  0.39458750100E+02  0.47065034159E+02 -0.84931264858E+02  0.10481140277E+03  0.00000000000E+00 0.  1.
         11    1    3    3    0    0  0.35016607393E+02  0.76526576413E+02  0.25619347593E+03  0.26966196766E+03  0.00000000000E+00 0. -1.
        -12    1    3    3    0    0  0.19093244325E+03  0.23567082020E+03  0.58295149888E+03  0.65713650288E+03  0.00000000000E+00 0.  1.
          4    1    6    6  502    0 -0.65547271989E+02 -0.89326913307E+02  0.11728156924E+03  0.16134035078E+03  0.00000000000E+00 0. -1.
         -3    1    6    6    0  502 -0.18811781700E+03 -0.25994500752E+03  0.57305217967E+03  0.65677128487E+03  0.00000000000E+00 0.  1.
<mgrwt>
<rscale>  0 0.44798509E+03</rscale>
<asrwt>0</asrwt>
<pdfrwt beam="1">  1        1 0.25518641E+00 0.44798509E+03</pdfrwt>
<pdfrwt beam="2">  1       -2 0.31956918E-01 0.44798509E+03</pdfrwt>
<totfact> 0.43654392E+01</totfact>
</mgrwt>
</event>
<event>
12    3  0.2269558E-007  0.4946642E+03  0.7818608E-02  0.1015181E+00
         -2   -1    0    0    0  501 -0.00000000000E+00  0.00000000000E+00  0.46419461418E+03  0.46419461418E+03  0.00000000000E+00 0.  1.
          1   -1    0    0  501    0  0.00000000000E+00 -0.00000000000E+00 -0.12058932307E+04  0.12058932307E+04  0.00000000000E+00 0. -1.
        -24    2    1    2    0    0 -0.17936972750E+03 -0.35113988313E+03  0.22850524061E+03  0.46315244944E+03  0.82600422365E+02 0.  0.
    5000000    2    1    2    0    0  0.17936972750E+03  0.35113988313E+03 -0.97020385718E+03  0.12069353955E+04  0.59993733650E+03 0.  0.
        -24    2    4    4    0    0 -0.12763396008E+03  0.18284878192E+03 -0.84529480839E+02  0.25119243991E+03  0.78919604177E+02 0.  0.
         24    2    4    4    0    0  0.30700368758E+03  0.16829110121E+03 -0.88567437634E+03  0.95574295558E+03  0.80326442082E+02 0.  0.
         11    1    5    5    0    0 -0.61111566224E+02  0.12953674291E+03 -0.20746241129E+02  0.14472317648E+03  0.00000000000E+00 0. -1.
        -12    1    5    5    0    0 -0.66522393853E+02  0.53312039008E+02 -0.63783239710E+02  0.10646926343E+03  0.00000000000E+00 0.  1.
         11    1    3    3    0    0 -0.12871216371E+03 -0.16136940920E+03  0.11988386203E+03  0.23870284391E+03  0.00000000000E+00 0. -1.
        -12    1    3    3    0    0 -0.50657563794E+02 -0.18977047392E+03  0.10862137857E+03  0.22444960554E+03  0.00000000000E+00 0.  1.
          2    1    6    6  502    0  0.31370761012E+02 -0.59538611373E+01 -0.59163916229E+02  0.67230514593E+02  0.00000000000E+00 0. -1.
         -1    1    6    6    0  502  0.27563292657E+03  0.17424496235E+03 -0.82651046011E+03  0.88851244098E+03  0.00000000000E+00 0.  1.
<mgrwt>
<rscale>  0 0.49466415E+03</rscale>
<asrwt>0</asrwt>
<pdfrwt beam="1">  1        1 0.18552204E+00 0.49466415E+03</pdfrwt>
<pdfrwt beam="2">  1       -2 0.71414556E-01 0.49466415E+03</pdfrwt>
<totfact> 0.17573999E+01</totfact>
</mgrwt>
</event>
<event>
12    3  0.2269558E-007  0.6903229E+03  0.7818608E-02  0.9733926E-01
         -2   -1    0    0    0  501 -0.00000000000E+00  0.00000000000E+00  0.14584769503E+04  0.14584769503E+04  0.00000000000E+00 0.  1.
          1   -1    0    0  501    0  0.00000000000E+00 -0.00000000000E+00 -0.35477618063E+03  0.35477618063E+03  0.00000000000E+00 0. -1.
        -24    2    1    2    0    0 -0.50068557320E+03 -0.30904599045E+03  0.37748643237E+03  0.70248635549E+03  0.69250311219E+02 0.  0.
    5000000    2    1    2    0    0  0.50068557320E+03  0.30904599045E+03  0.72621433731E+03  0.11107667755E+04  0.60018338722E+03 0.  0.
        -24    2    4    4    0    0  0.41832956390E+02 -0.12885066745E+03  0.17503362880E+02  0.15628094039E+03  0.75926766509E+02 0.  0.
         24    2    4    4    0    0  0.45885261681E+03  0.43789665790E+03  0.70871097443E+03  0.95448583506E+03  0.80453446756E+02 0.  0.
         11    1    5    5    0    0 -0.14627120548E+02 -0.64680801446E+02 -0.86997324933E+01  0.66882315127E+02  0.00000000000E+00 0. -1.
        -12    1    5    5    0    0  0.56460076938E+02 -0.64169866008E+02  0.26203095373E+02  0.89398625261E+02  0.00000000000E+00 0.  1.
         11    1    3    3    0    0 -0.33878792093E+03 -0.17063610218E+03  0.23512753190E+03  0.44629462353E+03  0.00000000000E+00 0. -1.
        -12    1    3    3    0    0 -0.16189765227E+03 -0.13840988827E+03  0.14235890047E+03  0.25619173196E+03  0.00000000000E+00 0.  1.
          2    1    6    6  502    0  0.15452180944E+03  0.18333033300E+03  0.22428418113E+03  0.32831447500E+03  0.00000000000E+00 0. -1.
         -1    1    6    6    0  502  0.30433080737E+03  0.25456632490E+03  0.48442679330E+03  0.62617136006E+03  0.00000000000E+00 0.  1.
<mgrwt>
<rscale>  0 0.69032293E+03</rscale>
<asrwt>0</asrwt>
<pdfrwt beam="1">  1        1 0.54580952E-01 0.69032293E+03</pdfrwt>
<pdfrwt beam="2">  1       -2 0.22438107E+00 0.69032293E+03</pdfrwt>
<totfact> 0.59014488E+00</totfact>
</mgrwt>
</event>
<event>
12    3  0.2269558E-007  0.2147420E+04  0.7818608E-02  0.8540638E-01
          1   -1    0    0  501    0  0.00000000000E+00  0.00000000000E+00  0.32523893150E+04  0.32523893150E+04  0.00000000000E+00 0. -1.
         -2   -1    0    0    0  501 -0.00000000000E+00 -0.00000000000E+00 -0.14427040001E+04  0.14427040001E+04  0.00000000000E+00 0.  1.
        -24    2    1    2    0    0 -0.11672965788E+04  0.17565196963E+04  0.11591582312E+04  0.24079097729E+04  0.80242901030E+02 0.  0.
    5000000    2    1    2    0    0  0.11672965788E+04 -0.17565196963E+04  0.65052708366E+03  0.22871835422E+04  0.60006693176E+03 0.  0.
        -24    2    4    4    0    0  0.88797332756E+03 -0.83471002930E+03  0.43566640701E+03  0.12968240305E+04  0.81913884061E+02 0.  0.
         24    2    4    4    0    0  0.27932325129E+03 -0.92180966700E+03  0.21486067665E+03  0.99035951169E+03  0.83019944213E+02 0.  0.
         11    1    5    5    0    0  0.47110054289E+03 -0.45687408932E+03  0.19252088827E+03  0.68391077446E+03  0.00000000000E+00 0. -1.
        -12    1    5    5    0    0  0.41687278467E+03 -0.37783593998E+03  0.24314551875E+03  0.61291325604E+03  0.00000000000E+00 0.  1.
         13    1    3    3    0    0 -0.46570696956E+03  0.76565120856E+03  0.47304694521E+03  0.10133499726E+04  0.00000000000E+00 0. -1.
        -14    1    3    3    0    0 -0.70158960929E+03  0.99086848775E+03  0.68611128595E+03  0.13945598003E+04  0.00000000000E+00 0.  1.
          4    1    6    6  502    0  0.10312363557E+03 -0.45997876724E+03  0.12820423588E+03  0.48851947415E+03  0.00000000000E+00 0. -1.
         -3    1    6    6    0  502  0.17619961571E+03 -0.46183089976E+03  0.86656440769E+02  0.50184003754E+03  0.00000000000E+00 0.  1.
<mgrwt>
<rscale>  0 0.21474196E+04</rscale>
<asrwt>0</asrwt>
<pdfrwt beam="1">  1        1 0.50036758E+00 0.21474196E+04</pdfrwt>
<pdfrwt beam="2">  1       -2 0.22195446E+00 0.21474196E+04</pdfrwt>
<totfact> 0.28695858E-02</totfact>
</mgrwt>
</event>
<event>
12    3  0.2269558E-007  0.1232718E+04  0.7818608E-02  0.9084691E-01
          1   -1    0    0  501    0  0.00000000000E+00  0.00000000000E+00  0.68480291030E+03  0.68480291030E+03  0.00000000000E+00 0. -1.
         -2   -1    0    0    0  501 -0.00000000000E+00 -0.00000000000E+00 -0.24537064013E+04  0.24537064013E+04  0.00000000000E+00 0.  1.
        -24    2    1    2    0    0  0.11611929492E+04 -0.37951327767E+03 -0.72031939974E+03  0.14203953505E+04  0.79142407327E+02 0.  0.
    5000000    2    1    2    0    0 -0.11611929492E+04  0.37951327767E+03 -0.10485840912E+04  0.17181139611E+04  0.59998966131E+03 0.  0.
        -24    2    4    4    0    0 -0.64909955800E+03  0.30545710543E+03 -0.25135078147E+03  0.76437821674E+03  0.80390070475E+02 0.  0.
         24    2    4    4    0    0 -0.51209339125E+03  0.74056172241E+02 -0.79723330974E+03  0.95373574436E+03  0.79416383105E+02 0.  0.
         11    1    5    5    0    0 -0.57296846762E+03  0.23907112520E+03 -0.21792911489E+03  0.65798249742E+03  0.00000000000E+00 0. -1.
        -12    1    5    5    0    0 -0.76131090377E+02  0.66385980229E+02 -0.33421666581E+02  0.10639571932E+03  0.00000000000E+00 0.  1.
         13    1    3    3    0    0  0.71891391117E+03 -0.27270392077E+03 -0.43711088893E+03  0.88446060924E+03  0.00000000000E+00 0. -1.
        -14    1    3    3    0    0  0.44227903808E+03 -0.10680935691E+03 -0.28320851081E+03  0.53593474121E+03  0.00000000000E+00 0.  1.
          4    1    6    6  502    0 -0.23761383455E+03  0.99482448556E+01 -0.42240320223E+03  0.48475124259E+03  0.00000000000E+00 0. -1.
         -3    1    6    6    0  502 -0.27447955670E+03  0.64107927386E+02 -0.37483010751E+03  0.46898450177E+03  0.00000000000E+00 0.  1.
<mgrwt>
<rscale>  0 0.12327175E+04</rscale>
<asrwt>0</asrwt>
<pdfrwt beam="1">  1        1 0.10535430E+00 0.12327175E+04</pdfrwt>
<pdfrwt beam="2">  1       -2 0.37749329E+00 0.12327175E+04</pdfrwt>
<totfact> 0.25315703E-01</totfact>
</mgrwt>
</event>
<event>
12    3  0.3073692E-007  0.6006939E+03  0.7818608E-02  0.9903967E-01
          1   -1    0    0  501    0  0.00000000000E+00  0.00000000000E+00  0.14494729870E+04  0.14494729870E+04  0.00000000000E+00 0. -1.
         -2   -1    0    0    0  501 -0.00000000000E+00 -0.00000000000E+00 -0.27283464177E+03  0.27283464177E+03  0.00000000000E+00 0.  1.
        -24    2    1    2    0    0  0.10471001639E+03 -0.45361099999E+03  0.62631736713E+03  0.78440162666E+03  0.79280140618E+02 0.  0.
    5000000    2    1    2    0    0 -0.10471001639E+03  0.45361099999E+03  0.55032097814E+03  0.93790600215E+03  0.60007279811E+03 0.  0.
        -24    2    4    4    0    0 -0.11603349019E+03 -0.11398167191E+03  0.17819640678E+03  0.25456672246E+03  0.81207539173E+02 0.  0.
         24    2    4    4    0    0  0.11323473796E+02  0.56759267190E+03  0.37212457136E+03  0.68333927969E+03  0.78652478012E+02 0.  0.
         13    1    5    5    0    0 -0.53654654616E+02 -0.32570748705E+02  0.19708411188E+02  0.65788274827E+02  0.00000000000E+00 0. -1.
        -14    1    5    5    0    0 -0.62378835572E+02 -0.81410923204E+02  0.15848799559E+03  0.18877844763E+03  0.00000000000E+00 0.  1.
         13    1    3    3    0    0  0.17867197787E+02 -0.17837094734E+03  0.29305900074E+03  0.34353894907E+03  0.00000000000E+00 0. -1.
        -14    1    3    3    0    0  0.86842818606E+02 -0.27524005265E+03  0.33325836638E+03  0.44086267759E+03  0.00000000000E+00 0.  1.
          4    1    6    6  502    0  0.13364118100E+02  0.15286777828E+03  0.62101205639E+02  0.16554068090E+03  0.00000000000E+00 0. -1.
         -3    1    6    6    0  502 -0.20406443045E+01  0.41472489362E+03  0.31002336572E+03  0.51779859879E+03  0.00000000000E+00 0.  1.
<mgrwt>
<rscale>  0 0.60069395E+03</rscale>
<asrwt>0</asrwt>
<pdfrwt beam="1">  1        1 0.22299584E+00 0.60069395E+03</pdfrwt>
<pdfrwt beam="2">  1       -2 0.41974561E-01 0.60069395E+03</pdfrwt>
<totfact> 0.35032066E+01</totfact>
</mgrwt>
</event>
<event>
12    3  0.2269558E-007  0.6995931E+03  0.7818608E-02  0.9717928E-01
          1   -1    0    0  501    0  0.00000000000E+00  0.00000000000E+00  0.47847651899E+03  0.47847651899E+03  0.00000000000E+00 0. -1.
         -2   -1    0    0    0  501 -0.00000000000E+00 -0.00000000000E+00 -0.10751130577E+04  0.10751130577E+04  0.00000000000E+00 0.  1.
        -24    2    1    2    0    0  0.50465907955E+03 -0.30158773939E+03 -0.27606612384E+03  0.65448999794E+03  0.80676524122E+02 0.  0.
    5000000    2    1    2    0    0 -0.50465907955E+03  0.30158773939E+03 -0.32057041486E+03  0.89909957874E+03  0.59998225848E+03 0.  0.
        -24    2    4    4    0    0 -0.59362277452E+03  0.36601593167E+03 -0.29392064159E+03  0.76098455291E+03  0.79702481464E+02 0.  0.
         24    2    4    4    0    0  0.88963694972E+02 -0.64428192281E+02 -0.26649773267E+02  0.13811502583E+03  0.79372658775E+02 0.  0.
         11    1    3    3    0    0  0.41609316313E+02 -0.10648801203E+02 -0.40546828181E+02  0.59065873791E+02  0.00000000000E+00 0. -1.
        -12    1    3    3    0    0  0.46304976324E+03 -0.29093893819E+03 -0.23551929566E+03  0.59542412414E+03  0.00000000000E+00 0.  1.
         13    1    5    5    0    0 -0.37919738688E+03  0.26098845614E+03 -0.16075095121E+03  0.48759255611E+03  0.00000000000E+00 0. -1.
        -14    1    5    5    0    0 -0.21442538764E+03  0.10502747553E+03 -0.13316969039E+03  0.27339199681E+03  0.00000000000E+00 0.  1.
          4    1    6    6  502    0  0.71185404185E+02 -0.46510798130E+02  0.17913972462E+02  0.86899519682E+02  0.00000000000E+00 0. -1.
         -3    1    6    6    0  502  0.17778290788E+02 -0.17917394151E+02 -0.44563745730E+02  0.51215506148E+02  0.00000000000E+00 0.  1.
<mgrwt>
<rscale>  0 0.69959311E+03</rscale>
<asrwt>0</asrwt>
<pdfrwt beam="1">  1        1 0.73611772E-01 0.69959311E+03</pdfrwt>
<pdfrwt beam="2">  1       -2 0.16540201E+00 0.69959311E+03</pdfrwt>
<totfact> 0.97212026E+00</totfact>
</mgrwt>
</event>
<event>
12    3  0.2269558E-007  0.1022956E+04  0.7818608E-02  0.9283720E-01
          1   -1    0    0  501    0  0.00000000000E+00  0.00000000000E+00  0.33033076182E+04  0.33033076182E+04  0.00000000000E+00 0. -1.
         -2   -1    0    0    0  501 -0.00000000000E+00 -0.00000000000E+00 -0.38304346934E+03  0.38304346934E+03  0.00000000000E+00 0.  1.
        -24    2    1    2    0    0 -0.92428185855E+03 -0.19797018670E+03  0.20807291526E+04  0.22869849623E+04  0.85890991592E+02 0.  0.
    5000000    2    1    2    0    0  0.92428185855E+03  0.19797018670E+03  0.83953499627E+03  0.13993661253E+04  0.59993115746E+03 0.  0.
        -24    2    4    4    0    0  0.73377864714E+03  0.37280977073E+03  0.74385062895E+03  0.11122673882E+04  0.80042217661E+02 0.  0.
         24    2    4    4    0    0  0.19050321141E+03 -0.17483958403E+03  0.95684367315E+02  0.28709873701E+03  0.80061432327E+02 0.  0.
         11    1    3    3    0    0 -0.53608998978E+03 -0.73625373919E+02  0.12193804859E+04  0.13340546999E+04  0.00000000000E+00 0. -1.
        -12    1    3    3    0    0 -0.38819186877E+03 -0.12434481278E+03  0.86134866670E+03  0.95293026244E+03  0.00000000000E+00 0.  1.
         13    1    5    5    0    0  0.53203192730E+03  0.23148617249E+03  0.50608441971E+03  0.76991250126E+03  0.00000000000E+00 0. -1.
        -14    1    5    5    0    0  0.20174671984E+03  0.14132359824E+03  0.23776620924E+03  0.34235488698E+03  0.00000000000E+00 0.  1.
          2    1    6    6  502    0  0.42276410163E+01 -0.41116003160E+02  0.12693647181E+02  0.43238031213E+02  0.00000000000E+00 0. -1.
         -3    1    6    6    0  502  0.18627557039E+03 -0.13372358087E+03  0.82990720134E+02  0.24386070580E+03  0.00000000000E+00 0.  1.
<mgrwt>
<rscale>  0 0.10229557E+04</rscale>
<asrwt>0</asrwt>
<pdfrwt beam="1">  1        1 0.50820115E+00 0.10229557E+04</pdfrwt>
<pdfrwt beam="2">  1       -2 0.58929767E-01 0.10229557E+04</pdfrwt>
<totfact> 0.86268389E-01</totfact>
</mgrwt>
</event>
<event>
12    3  0.2269558E-007  0.1313179E+04  0.7818608E-02  0.9019179E-01
          1   -1    0    0  501    0  0.00000000000E+00  0.00000000000E+00  0.33483832507E+04  0.33483832507E+04  0.00000000000E+00 0. -1.
         -2   -1    0    0    0  501 -0.00000000000E+00 -0.00000000000E+00 -0.53240551260E+03  0.53240551260E+03  0.00000000000E+00 0.  1.
        -24    2    1    2    0    0  0.36946837617E+02  0.12503746940E+04  0.10506945747E+04  0.16355622628E+04  0.79390691938E+02 0.  0.
    5000000    2    1    2    0    0 -0.36946837617E+02 -0.12503746940E+04  0.17652831634E+04  0.22452265006E+04  0.60001287291E+03 0.  0.
        -24    2    4    4    0    0 -0.15023383858E+03 -0.48029970567E+02  0.17952582048E+03  0.25039899149E+03  0.74786699308E+02 0.  0.
         24    2    4    4    0    0  0.11328700096E+03 -0.12023447234E+04  0.15857573429E+04  0.19948275091E+04  0.79016844989E+02 0.  0.
         11    1    5    5    0    0 -0.85069620289E+02 -0.48846407769E+02  0.62096269501E+02  0.11609805569E+03  0.00000000000E+00 0. -1.
        -12    1    5    5    0    0 -0.65164218290E+02  0.81643720156E+00  0.11742955097E+03  0.13430093580E+03  0.00000000000E+00 0.  1.
         11    1    3    3    0    0  0.54854394515E+02  0.11303504420E+04  0.93638112466E+03  0.14688467371E+04  0.00000000000E+00 0. -1.
        -12    1    3    3    0    0 -0.17907556898E+02  0.12002425191E+03  0.11431345004E+03  0.16671552568E+03  0.00000000000E+00 0.  1.
          4    1    6    6  502    0  0.11169776399E+03 -0.80512564477E+03  0.10483838073E+04  0.13265791729E+04  0.00000000000E+00 0. -1.
         -3    1    6    6    0  502  0.15892369756E+01 -0.39721907861E+03  0.53737353561E+03  0.66824833622E+03  0.00000000000E+00 0.  1.
<mgrwt>
<rscale>  0 0.13131789E+04</rscale>
<asrwt>0</asrwt>
<pdfrwt beam="1">  1        1 0.51513587E+00 0.13131789E+04</pdfrwt>
<pdfrwt beam="2">  1       -2 0.81908543E-01 0.13131789E+04</pdfrwt>
<totfact> 0.37175942E-01</totfact>
</mgrwt>
</event>
<event>
12    3  0.2269558E-007  0.1119173E+04  0.7818608E-02  0.9186704E-01
          1   -1    0    0  501    0  0.00000000000E+00  0.00000000000E+00  0.64104875025E+03  0.64104875025E+03  0.00000000000E+00 0. -1.
         -2   -1    0    0    0  501 -0.00000000000E+00 -0.00000000000E+00 -0.22019965784E+04  0.22019965784E+04  0.00000000000E+00 0.  1.
        -24    2    1    2    0    0 -0.68336786277E+03  0.78933068317E+03 -0.11852706577E+04  0.15815286391E+04  0.79572238162E+02 0.  0.
    5000000    2    1    2    0    0  0.68336786277E+03 -0.78933068317E+03 -0.37567717045E+03  0.12615166895E+04  0.60021367722E+03 0.  0.
        -24    2    4    4    0    0  0.13414777264E+03  0.77541669762E+02 -0.64215655194E+02  0.18608440847E+03  0.80594176286E+02 0.  0.
         24    2    4    4    0    0  0.54922009013E+03 -0.86687235293E+03 -0.31146151526E+03  0.10754322811E+04  0.80224260569E+02 0.  0.
         11    1    3    3    0    0 -0.46662261026E+03  0.49335707391E+03 -0.73373031235E+03  0.99974898552E+03  0.00000000000E+00 0. -1.
        -12    1    3    3    0    0 -0.21674525250E+03  0.29597360926E+03 -0.45154034535E+03  0.58177965360E+03  0.00000000000E+00 0.  1.
         13    1    5    5    0    0  0.11253554730E+03  0.86754548923E+02 -0.74498316446E+02  0.16043877436E+03  0.00000000000E+00 0. -1.
        -14    1    5    5    0    0  0.21612225345E+02 -0.92128791618E+01  0.10282661252E+02  0.25645634117E+02  0.00000000000E+00 0.  1.
          4    1    6    6  502    0  0.15547678126E+03 -0.27631574975E+03 -0.13112156203E+03  0.34309807213E+03  0.00000000000E+00 0. -1.
         -3    1    6    6    0  502  0.39374330886E+03 -0.59055660318E+03 -0.18033995323E+03  0.73233420893E+03  0.00000000000E+00 0.  1.
<mgrwt>
<rscale>  0 0.11191727E+04</rscale>
<asrwt>0</asrwt>
<pdfrwt beam="1">  1        1 0.98622885E-01 0.11191727E+04</pdfrwt>
<pdfrwt beam="2">  1       -2 0.33876870E+00 0.11191727E+04</pdfrwt>
<totfact> 0.49790190E-01</totfact>
</mgrwt>
</event>
<event>
12    3  0.2269558E-007  0.1423260E+04  0.7818608E-02  0.8937152E-01
          1   -1    0    0  501    0  0.00000000000E+00  0.00000000000E+00  0.11845271684E+04  0.11845271684E+04  0.00000000000E+00 0. -1.
         -2   -1    0    0    0  501 -0.00000000000E+00 -0.00000000000E+00 -0.18203194049E+04  0.18203194049E+04  0.00000000000E+00 0.  1.
        -24    2    1    2    0    0 -0.36613476847E+03  0.13124111858E+04  0.50903214128E+02  0.13653264302E+04  0.71044595706E+02 0.  0.
    5000000    2    1    2    0    0  0.36613476847E+03 -0.13124111858E+04 -0.68669545059E+03  0.16395201431E+04  0.59999822365E+03 0.  0.
        -24    2    4    4    0    0 -0.15247935413E+03 -0.25018346276E+03 -0.17439264930E+03  0.35021161116E+03  0.79960352605E+02 0.  0.
         24    2    4    4    0    0  0.51861412260E+03 -0.10622277230E+04 -0.51230280129E+03  0.12893085319E+04  0.50734470445E+02 0.  0.
         11    1    3    3    0    0 -0.18702095522E+03  0.72962530150E+03 -0.34297398087E+01  0.75322087158E+03  0.00000000000E+00 0. -1.
        -12    1    3    3    0    0 -0.17911381326E+03  0.58278588431E+03  0.54332953936E+02  0.61210555865E+03  0.00000000000E+00 0.  1.
         13    1    5    5    0    0 -0.77680472336E+01  0.42361284027E+01 -0.13692741330E+02  0.16302714706E+02  0.00000000000E+00 0. -1.
        -14    1    5    5    0    0 -0.14471130689E+03 -0.25441959116E+03 -0.16069990797E+03  0.33390889645E+03  0.00000000000E+00 0.  1.
          4    1    6    6  502    0  0.42042306869E+03 -0.86416598972E+03 -0.43772170778E+03  0.10560012822E+04  0.00000000000E+00 0. -1.
         -3    1    6    6    0  502  0.98191053909E+02 -0.19806173332E+03 -0.74581093509E+02  0.23330724974E+03  0.00000000000E+00 0.  1.
<mgrwt>
<rscale>  0 0.14232603E+04</rscale>
<asrwt>0</asrwt>
<pdfrwt beam="1">  1        1 0.18223495E+00 0.14232603E+04</pdfrwt>
<pdfrwt beam="2">  1       -2 0.28004914E+00 0.14232603E+04</pdfrwt>
<totfact> 0.38582611E-01</totfact>
</mgrwt>
</event>
<event>
12    3  0.2269558E-007  0.1324388E+04  0.7818608E-02  0.9010446E-01
         -2   -1    0    0    0  501 -0.00000000000E+00  0.00000000000E+00  0.50788908880E+03  0.50788908880E+03  0.00000000000E+00 0.  1.
          1   -1    0    0  501    0  0.00000000000E+00 -0.00000000000E+00 -0.37831475881E+04  0.37831475881E+04  0.00000000000E+00 0. -1.
        -24    2    1    2    0    0 -0.10977515655E+04  0.65416184478E+03 -0.10505974640E+04  0.16562553073E+04  0.80252057174E+02 0.  0.
    5000000    2    1    2    0    0  0.10977515655E+04 -0.65416184478E+03 -0.22246610353E+04  0.26347813697E+04  0.59997493693E+03 0.  0.
        -24    2    4    4    0    0  0.31808953756E+03  0.31448434750E+02 -0.29606386090E+03  0.44304970609E+03  0.80431799561E+02 0.  0.
         24    2    4    4    0    0  0.77966202799E+03 -0.68561027953E+03 -0.19285971744E+04  0.21917316636E+04  0.79159905195E+02 0.  0.
         11    1    5    5    0    0  0.27805191498E+03  0.54454035522E+02 -0.25083484679E+03  0.37841277697E+03  0.00000000000E+00 0. -1.
        -12    1    5    5    0    0  0.40037622581E+02 -0.23005600772E+02 -0.45229014108E+02  0.64636929119E+02  0.00000000000E+00 0.  1.
         13    1    3    3    0    0 -0.23022498086E+03  0.10087474461E+03 -0.21455348660E+03  0.33047307685E+03  0.00000000000E+00 0. -1.
        -14    1    3    3    0    0 -0.86752658469E+03  0.55328710017E+03 -0.83604397742E+03  0.13257822304E+04  0.00000000000E+00 0.  1.
          4    1    6    6  502    0  0.72219734497E+03 -0.64793020721E+03 -0.18336735326E+04  0.20745460184E+04  0.00000000000E+00 0. -1.
         -3    1    6    6    0  502  0.57464683023E+02 -0.37680072323E+02 -0.94923641834E+02  0.11718564513E+03  0.00000000000E+00 0.  1.
<mgrwt>
<rscale>  0 0.13243881E+04</rscale>
<asrwt>0</asrwt>
<pdfrwt beam="1">  1        1 0.58202271E+00 0.13243881E+04</pdfrwt>
<pdfrwt beam="2">  1       -2 0.78136782E-01 0.13243881E+04</pdfrwt>
<totfact> 0.18674254E-01</totfact>
</mgrwt>
</event>
<event>
12    3  0.2269558E-007  0.1062345E+04  0.7818608E-02  0.9242690E-01
          1   -1    0    0  501    0  0.00000000000E+00  0.00000000000E+00  0.25520483304E+04  0.25520483304E+04  0.00000000000E+00 0. -1.
         -2   -1    0    0    0  501 -0.00000000000E+00 -0.00000000000E+00 -0.50194830007E+03  0.50194830007E+03  0.00000000000E+00 0.  1.
        -24    2    1    2    0    0 -0.92664426314E+03 -0.48781638485E+03  0.10695249960E+04  0.14989325711E+04  0.79250992822E+02 0.  0.
    5000000    2    1    2    0    0  0.92664426314E+03  0.48781638485E+03  0.98057503433E+03  0.15550640594E+04  0.60005201038E+03 0.  0.
        -24    2    4    4    0    0  0.15184209794E+03  0.18382260730E+03 -0.19231517222E+02  0.25207908786E+03  0.79543960320E+02 0.  0.
         24    2    4    4    0    0  0.77480216520E+03  0.30399377755E+03  0.99980655155E+03  0.13029849715E+04  0.73661954467E+02 0.  0.
         13    1    5    5    0    0  0.44829509696E+02  0.74284806357E+02 -0.43459954682E+02  0.97039605605E+02  0.00000000000E+00 0. -1.
        -14    1    5    5    0    0  0.10701258824E+03  0.10953780094E+03  0.24228437459E+02  0.15503948226E+03  0.00000000000E+00 0.  1.
         13    1    3    3    0    0 -0.54016690917E+03 -0.32285677651E+03  0.66776225741E+03  0.91756374183E+03  0.00000000000E+00 0. -1.
        -14    1    3    3    0    0 -0.38647735396E+03 -0.16495960834E+03  0.40176273864E+03  0.58136882929E+03  0.00000000000E+00 0.  1.
          2    1    6    6  502    0  0.51881207302E+03  0.23874623128E+03  0.66796142181E+03  0.87882773687E+03  0.00000000000E+00 0. -1.
         -1    1    6    6    0  502  0.25599009218E+03  0.65247546272E+02  0.33184512974E+03  0.42415723467E+03  0.00000000000E+00 0.  1.
<mgrwt>
<rscale>  0 0.10623453E+04</rscale>
<asrwt>0</asrwt>
<pdfrwt beam="1">  1        1 0.39262281E+00 0.10623453E+04</pdfrwt>
<pdfrwt beam="2">  1       -2 0.77222817E-01 0.10623453E+04</pdfrwt>
<totfact> 0.16490821E+00</totfact>
</mgrwt>
</event>
<event>
12    3  0.2269558E-007  0.6502969E+03  0.7818608E-02  0.9806222E-01
         -2   -1    0    0    0  501 -0.00000000000E+00  0.00000000000E+00  0.49634265381E+03  0.49634265381E+03  0.00000000000E+00 0.  1.
          1   -1    0    0  501    0  0.00000000000E+00 -0.00000000000E+00 -0.93255154465E+03  0.93255154465E+03  0.00000000000E+00 0. -1.
        -24    2    1    2    0    0 -0.63322860763E+02 -0.53977557744E+03 -0.21310656979E+03  0.58910741441E+03  0.79156029008E+02 0.  0.
    5000000    2    1    2    0    0  0.63322860763E+02  0.53977557744E+03 -0.22310232105E+03  0.83978678405E+03  0.60008310951E+03 0.  0.
        -24    2    4    4    0    0 -0.38210673564E+02 -0.99846269075E+02 -0.11180535462E+03  0.17570128147E+03  0.83313684136E+02 0.  0.
         24    2    4    4    0    0  0.10153353433E+03  0.63962184651E+03 -0.11129696642E+03  0.66408550259E+03  0.95902945099E+02 0.  0.
         11    1    5    5    0    0 -0.36203871012E+02 -0.80573737294E+02 -0.32595428492E+02  0.94155771870E+02  0.00000000000E+00 0. -1.
        -12    1    5    5    0    0 -0.20068025519E+01 -0.19272531781E+02 -0.79209926132E+02  0.81545509598E+02  0.00000000000E+00 0.  1.
         13    1    3    3    0    0 -0.24741781016E+02 -0.26952588892E+03 -0.14792138529E+03  0.30844302027E+03  0.00000000000E+00 0. -1.
        -14    1    3    3    0    0 -0.38581079748E+02 -0.27024968852E+03 -0.65185184493E+02  0.28066439414E+03  0.00000000000E+00 0.  1.
          2    1    6    6  502    0  0.66084851049E+02  0.52798576030E+03 -0.57533556518E+02  0.53520676448E+03  0.00000000000E+00 0. -1.
         -1    1    6    6    0  502  0.35448683279E+02  0.11163608621E+03 -0.53763409906E+02  0.12887873810E+03  0.00000000000E+00 0.  1.
<mgrwt>
<rscale>  0 0.65029691E+03</rscale>
<asrwt>0</asrwt>
<pdfrwt beam="1">  1        1 0.14346947E+00 0.65029691E+03</pdfrwt>
<pdfrwt beam="2">  1       -2 0.76360408E-01 0.65029691E+03</pdfrwt>
<totfact> 0.23789756E+01</totfact>
</mgrwt>
</event>
<event>
12    3  0.2269558E-007  0.1498298E+04  0.7818608E-02  0.8885586E-01
          3   -1    0    0  501    0  0.00000000000E+00  0.00000000000E+00  0.20272997560E+04  0.20272997560E+04  0.00000000000E+00 0. -1.
         -4   -1    0    0    0  501 -0.00000000000E+00 -0.00000000000E+00 -0.14601202011E+04  0.14601202011E+04  0.00000000000E+00 0.  1.
        -24    2    1    2    0    0  0.13717731369E+04  0.58353544203E+03  0.10317194866E+04  0.18147151054E+04  0.80440433996E+02 0.  0.
    5000000    2    1    2    0    0 -0.13717731369E+04 -0.58353544203E+03 -0.46453993171E+03  0.16727048516E+04  0.59989084113E+03 0.  0.
        -24    2    4    4    0    0 -0.91136125477E+03 -0.47157869891E+03 -0.37417171770E+02  0.10298922937E+04  0.79449895652E+02 0.  0.
         24    2    4    4    0    0 -0.46041188215E+03 -0.11195674311E+03 -0.42712275994E+03  0.64281255794E+03  0.79124705562E+02 0.  0.
         11    1    5    5    0    0 -0.37757736339E+03 -0.23191607512E+03 -0.38385777951E+02  0.44477319973E+03  0.00000000000E+00 0. -1.
        -12    1    5    5    0    0 -0.53378389137E+03 -0.23966262379E+03  0.96860618080E+00  0.58511909397E+03  0.00000000000E+00 0.  1.
         13    1    3    3    0    0  0.85696068092E+03  0.33175061447E+03  0.60502084984E+03  0.11002228445E+04  0.00000000000E+00 0. -1.
        -14    1    3    3    0    0  0.51481245600E+03  0.25178482756E+03  0.42669863679E+03  0.71449226090E+03  0.00000000000E+00 0.  1.
          2    1    6    6  502    0 -0.10800243867E+03 -0.47953095856E+02 -0.71705930307E+02  0.13822361087E+03  0.00000000000E+00 0. -1.
         -1    1    6    6    0  502 -0.35240944348E+03 -0.64003647257E+02 -0.35541682964E+03  0.50458894707E+03  0.00000000000E+00 0.  1.
<mgrwt>
<rscale>  0 0.14982980E+04</rscale>
<asrwt>0</asrwt>
<pdfrwt beam="1">  1        3 0.31189227E+00 0.14982980E+04</pdfrwt>
<pdfrwt beam="2">  1       -4 0.22463388E+00 0.14982980E+04</pdfrwt>
<totfact> 0.63416355E-03</totfact>
</mgrwt>
</event>
<event>
12    3  0.2269558E-007  0.7702125E+03  0.7818608E-02  0.9604163E-01
          1   -1    0    0  501    0  0.00000000000E+00  0.00000000000E+00  0.34078751871E+04  0.34078751871E+04  0.00000000000E+00 0. -1.
         -2   -1    0    0    0  501 -0.00000000000E+00 -0.00000000000E+00 -0.27363333836E+03  0.27363333836E+03  0.00000000000E+00 0.  1.
        -24    2    1    2    0    0  0.23174468935E+03  0.72104952598E+03  0.22368169510E+04  0.23628626607E+04  0.78433803396E+02 0.  0.
    5000000    2    1    2    0    0 -0.23174468935E+03 -0.72104952598E+03  0.89742489776E+03  0.13186458647E+04  0.59986452587E+03 0.  0.
        -24    2    4    4    0    0 -0.20306561572E+02 -0.24751174499E+03  0.71809657783E+03  0.76423664004E+03  0.81978817656E+02 0.  0.
         24    2    4    4    0    0 -0.21143812778E+03 -0.47353778099E+03  0.17932831993E+03  0.55440922465E+03  0.79163313113E+02 0.  0.
         11    1    5    5    0    0  0.22959460264E+02 -0.13044219492E+03  0.30063962154E+03  0.32852166606E+03  0.00000000000E+00 0. -1.
        -12    1    5    5    0    0 -0.43266021835E+02 -0.11706955007E+03  0.41745695629E+03  0.43571497398E+03  0.00000000000E+00 0.  1.
         13    1    3    3    0    0  0.42950856753E+02  0.19581067339E+03  0.50529039029E+03  0.54360369244E+03  0.00000000000E+00 0. -1.
        -14    1    3    3    0    0  0.18879383260E+03  0.52523885259E+03  0.17315265607E+04  0.18192589683E+04  0.00000000000E+00 0.  1.
          2    1    6    6  502    0 -0.21219224561E+03 -0.41573064813E+03  0.15737323549E+03  0.49256863089E+03  0.00000000000E+00 0. -1.
         -1    1    6    6    0  502  0.75411783042E+00 -0.57807132867E+02  0.21955084438E+02  0.61840593760E+02  0.00000000000E+00 0.  1.
<mgrwt>
<rscale>  0 0.77021253E+03</rscale>
<asrwt>0</asrwt>
<pdfrwt beam="1">  1        1 0.52428846E+00 0.77021253E+03</pdfrwt>
<pdfrwt beam="2">  1       -2 0.42097439E-01 0.77021253E+03</pdfrwt>
<totfact> 0.14932909E+00</totfact>
</mgrwt>
</event>
<event>
12    3  0.2269558E-007  0.5470346E+03  0.7818608E-02  0.1002183E+00
          1   -1    0    0  501    0  0.00000000000E+00  0.00000000000E+00  0.26948424500E+03  0.26948424500E+03  0.00000000000E+00 0. -1.
         -2   -1    0    0    0  501 -0.00000000000E+00 -0.00000000000E+00 -0.12144410566E+04  0.12144410566E+04  0.00000000000E+00 0.  1.
        -24    2    1    2    0    0  0.31682888270E+03  0.22882047332E+03 -0.18634634838E+03  0.44072809044E+03  0.82322161186E+02 0.  0.
    5000000    2    1    2    0    0 -0.31682888270E+03 -0.22882047332E+03 -0.75861046319E+03  0.10431972111E+04  0.60002602989E+03 0.  0.
        -24    2    4    4    0    0  0.23929391394E+02  0.16191342177E+03 -0.12192367485E+03  0.21892614253E+03  0.79213013268E+02 0.  0.
         24    2    4    4    0    0 -0.34075827409E+03 -0.39073389509E+03 -0.63668678834E+03  0.82427106862E+03  0.72550327223E+02 0.  0.
         11    1    3    3    0    0  0.62655821023E+02  0.77326505527E+02 -0.74821834240E+02  0.12451283968E+03  0.00000000000E+00 0. -1.
        -12    1    3    3    0    0  0.25417306168E+03  0.15149396779E+03 -0.11152451414E+03  0.31621525076E+03  0.00000000000E+00 0.  1.
         13    1    5    5    0    0  0.46876191070E+02  0.62235837652E+02 -0.67373469969E+02  0.10300418066E+03  0.00000000000E+00 0. -1.
        -14    1    5    5    0    0 -0.22946799677E+02  0.99677584115E+02 -0.54550204885E+02  0.11592196187E+03  0.00000000000E+00 0.  1.
          4    1    6    6  502    0 -0.71563324311E+02 -0.81591344990E+02 -0.90135121841E+02  0.14107727369E+03  0.00000000000E+00 0. -1.
         -3    1    6    6    0  502 -0.26919494978E+03 -0.30914255010E+03 -0.54655166650E+03  0.68319379492E+03  0.00000000000E+00 0.  1.
<mgrwt>
<rscale>  0 0.54703457E+03</rscale>
<asrwt>0</asrwt>
<pdfrwt beam="1">  1        1 0.41459114E-01 0.54703457E+03</pdfrwt>
<pdfrwt beam="2">  1       -2 0.18683709E+00 0.54703457E+03</pdfrwt>
<totfact> 0.14923002E+01</totfact>
</mgrwt>
</event>
<event>
12    3  0.2269558E-007  0.1241186E+04  0.7818608E-02  0.9077551E-01
          1   -1    0    0  501    0  0.00000000000E+00  0.00000000000E+00  0.15094199862E+04  0.15094199862E+04  0.00000000000E+00 0. -1.
         -2   -1    0    0    0  501 -0.00000000000E+00 -0.00000000000E+00 -0.12322308158E+04  0.12322308158E+04  0.00000000000E+00 0.  1.
        -24    2    1    2    0    0 -0.50674224110E+03  0.10799314958E+04 -0.37891366107E+03  0.12538393004E+04  0.74146437283E+02 0.  0.
    5000000    2    1    2    0    0  0.50674224110E+03 -0.10799314958E+04  0.65610283143E+03  0.14878115016E+04  0.60006033400E+03 0.  0.
        -24    2    4    4    0    0  0.10982566676E+03 -0.76674465677E+03  0.57907595790E+03  0.97036012250E+03  0.79440270342E+02 0.  0.
         24    2    4    4    0    0  0.39691657434E+03 -0.31318683901E+03  0.77026873532E+02  0.51745137912E+03  0.78702143498E+02 0.  0.
         11    1    3    3    0    0 -0.83696728723E+02  0.24196104891E+03 -0.95934102083E+02  0.27341112547E+03  0.00000000000E+00 0. -1.
        -12    1    3    3    0    0 -0.42304551237E+03  0.83797044687E+03 -0.28297955899E+03  0.98042817492E+03  0.00000000000E+00 0.  1.
         13    1    5    5    0    0  0.13513323718E+02 -0.28641098648E+03  0.18055861111E+03  0.33884402775E+03  0.00000000000E+00 0. -1.
        -14    1    5    5    0    0  0.96312343040E+02 -0.48033367029E+03  0.39851734679E+03  0.63151609475E+03  0.00000000000E+00 0.  1.
          4    1    6    6  502    0  0.15433404818E+02 -0.36886207283E+02 -0.10154205684E+01  0.39997666819E+02  0.00000000000E+00 0. -1.
         -3    1    6    6    0  502  0.38148316952E+03 -0.27630063173E+03  0.78042294101E+02  0.47745371230E+03  0.00000000000E+00 0.  1.
<mgrwt>
<rscale>  0 0.12411856E+04</rscale>
<asrwt>0</asrwt>
<pdfrwt beam="1">  1        1 0.23221846E+00 0.12411856E+04</pdfrwt>
<pdfrwt beam="2">  1       -2 0.18957397E+00 0.12411856E+04</pdfrwt>
<totfact> 0.85490243E-01</totfact>
</mgrwt>
</event>
<event>
12    3  0.2269558E-007  0.5424783E+03  0.7818608E-02  0.1003250E+00
          1   -1    0    0  501    0  0.00000000000E+00  0.00000000000E+00  0.60300554870E+03  0.60300554870E+03  0.00000000000E+00 0. -1.
         -4   -1    0    0    0  501 -0.00000000000E+00 -0.00000000000E+00 -0.69545572303E+03  0.69545572303E+03  0.00000000000E+00 0.  1.
        -24    2    1    2    0    0  0.10130393842E+03 -0.47477401253E+03  0.10341246507E+03  0.50230713005E+03  0.77106835327E+02 0.  0.
    5000000    2    1    2    0    0 -0.10130393842E+03  0.47477401253E+03 -0.19586263939E+03  0.79615414167E+03  0.59985530995E+03 0.  0.
        -24    2    4    4    0    0 -0.23350876318E+02  0.47633931762E+03  0.86841041632E+02  0.49184761034E+03  0.83236388372E+02 0.  0.
         24    2    4    4    0    0 -0.77953062103E+02 -0.15653050868E+01 -0.28270368103E+03  0.30430653133E+03  0.81252468737E+02 0.  0.
         11    1    3    3    0    0 -0.45986452420E+01 -0.14195518105E+03  0.37260897332E+02  0.14683594735E+03  0.00000000000E+00 0. -1.
        -12    1    3    3    0    0  0.10590258366E+03 -0.33281883148E+03  0.66151567738E+02  0.35547118270E+03  0.00000000000E+00 0.  1.
         11    1    5    5    0    0 -0.45737530477E+02  0.30671890905E+03  0.29985051676E+02  0.31155659869E+03  0.00000000000E+00 0. -1.
        -12    1    5    5    0    0  0.22386654159E+02  0.16962040857E+03  0.56855989956E+02  0.18029101165E+03  0.00000000000E+00 0.  1.
          4    1    6    6  502    0 -0.94308226695E+02  0.58845552284E+01 -0.23157927497E+03  0.25011523386E+03  0.00000000000E+00 0. -1.
         -3    1    6    6    0  502  0.16355164592E+02 -0.74498603152E+01 -0.51124406053E+02  0.54191297473E+02  0.00000000000E+00 0.  1.
<mgrwt>
<rscale>  0 0.54247831E+03</rscale>
<asrwt>0</asrwt>
<pdfrwt beam="1">  1        1 0.92770085E-01 0.54247831E+03</pdfrwt>
<pdfrwt beam="2">  1       -4 0.10699319E+00 0.54247831E+03</pdfrwt>
<totfact> 0.11625513E+01</totfact>
</mgrwt>
</event>
<event>
12    3  0.2445238E-007  0.1214675E+04  0.7818608E-02  0.9100108E-01
          1   -1    0    0  501    0  0.00000000000E+00  0.00000000000E+00  0.19044986103E+04  0.19044986103E+04  0.00000000000E+00 0. -1.
         -2   -1    0    0    0  501 -0.00000000000E+00 -0.00000000000E+00 -0.90294032758E+03  0.90294032758E+03  0.00000000000E+00 0.  1.
        -24    2    1    2    0    0 -0.35219049697E+03  0.10920569115E+04  0.98242123581E+03  0.15125771385E+04  0.78177177163E+02 0.  0.
    5000000    2    1    2    0    0  0.35219049697E+03 -0.10920569115E+04  0.19137046888E+02  0.12948617994E+04  0.59972861267E+03 0.  0.
        -24    2    4    4    0    0  0.49813208264E+03 -0.93417053558E+03  0.53969341013E+02  0.10630033916E+04  0.79078186076E+02 0.  0.
         24    2    4    4    0    0 -0.14594158567E+03 -0.15788637595E+03 -0.34832294125E+02  0.23185840780E+03  0.79485712044E+02 0.  0.
         11    1    3    3    0    0 -0.88433041924E+02  0.37873474488E+03  0.35678906493E+03  0.52778674362E+03  0.00000000000E+00 0. -1.
        -12    1    3    3    0    0 -0.26375745505E+03  0.71332216665E+03  0.62563217088E+03  0.98479039484E+03  0.00000000000E+00 0.  1.
         13    1    5    5    0    0  0.26530906429E+03 -0.57117161552E+03  0.49610735492E+02  0.63173343987E+03  0.00000000000E+00 0. -1.
        -14    1    5    5    0    0  0.23282301834E+03 -0.36299892006E+03  0.43586055214E+01  0.43126995174E+03  0.00000000000E+00 0.  1.
          2    1    6    6  502    0 -0.13897185965E+03 -0.15967142726E+03 -0.16683772403E+02  0.21233579708E+03  0.00000000000E+00 0. -1.
         -3    1    6    6    0  502 -0.69697260115E+01  0.17850513130E+01 -0.18148521723E+02  0.19522610727E+02  0.00000000000E+00 0.  1.
<mgrwt>
<rscale>  0 0.12146752E+04</rscale>
<asrwt>0</asrwt>
<pdfrwt beam="1">  1        1 0.29299979E+00 0.12146752E+04</pdfrwt>
<pdfrwt beam="2">  1       -2 0.13891390E+00 0.12146752E+04</pdfrwt>
<totfact> 0.10859279E+00</totfact>
</mgrwt>
</event>
<event>
12    3  0.2269558E-007  0.5831514E+03  0.7818608E-02  0.9940991E-01
         -2   -1    0    0    0  501 -0.00000000000E+00  0.00000000000E+00  0.13741972796E+04  0.13741972796E+04  0.00000000000E+00 0.  1.
          1   -1    0    0  501    0  0.00000000000E+00 -0.00000000000E+00 -0.31235143086E+03  0.31235143086E+03  0.00000000000E+00 0. -1.
        -24    2    1    2    0    0 -0.69985896180E+02  0.47368436759E+03  0.18104768912E+03  0.51815879522E+03  0.80220730283E+02 0.  0.
    5000000    2    1    2    0    0  0.69985896180E+02 -0.47368436759E+03  0.88079815960E+03  0.11683899152E+04  0.60004557349E+03 0.  0.
        -24    2    4    4    0    0  0.65295147224E+02  0.84504021028E+02  0.41892215250E+03  0.43936601522E+03  0.78373079895E+02 0.  0.
         24    2    4    4    0    0  0.46907489554E+01 -0.55818838862E+03  0.46187600710E+03  0.72902390000E+03  0.80932814883E+02 0.  0.
         11    1    3    3    0    0 -0.25428773850E+02  0.35730343338E+03  0.15764230742E+03  0.39136103937E+03  0.00000000000E+00 0. -1.
        -12    1    3    3    0    0 -0.44557122330E+02  0.11638093421E+03  0.23405381703E+02  0.12679775586E+03  0.00000000000E+00 0.  1.
         13    1    5    5    0    0  0.34785846318E+02  0.74136383710E-01  0.19570933560E+03  0.19877677088E+03  0.00000000000E+00 0. -1.
        -14    1    5    5    0    0  0.30509300906E+02  0.84429884644E+02  0.22321281690E+03  0.24058924434E+03  0.00000000000E+00 0.  1.
          4    1    6    6  502    0  0.15081090739E+02 -0.19559374111E+03  0.21020745493E+03  0.28752656393E+03  0.00000000000E+00 0. -1.
         -3    1    6    6    0  502 -0.10390341783E+02 -0.36259464751E+03  0.25166855217E+03  0.44149733607E+03  0.00000000000E+00 0.  1.
<mgrwt>
<rscale>  0 0.58315144E+03</rscale>
<asrwt>0</asrwt>
<pdfrwt beam="1">  1        1 0.48054067E-01 0.58315144E+03</pdfrwt>
<pdfrwt beam="2">  1       -2 0.21141496E+00 0.58315144E+03</pdfrwt>
<totfact> 0.85122703E+00</totfact>
</mgrwt>
</event>
<event>
12    3  0.2269558E-007  0.8723434E+03  0.7818608E-02  0.9460830E-01
         -2   -1    0    0    0  501 -0.00000000000E+00  0.00000000000E+00  0.12754500123E+04  0.12754500123E+04  0.00000000000E+00 0.  1.
          1   -1    0    0  501    0  0.00000000000E+00 -0.00000000000E+00 -0.95385476524E+03  0.95385476524E+03  0.00000000000E+00 0. -1.
        -24    2    1    2    0    0 -0.39042382724E+03 -0.70604213071E+03 -0.48109155550E+03  0.94271467951E+03  0.79596651825E+02 0.  0.
    5000000    2    1    2    0    0  0.39042382724E+03  0.70604213071E+03  0.80268680261E+03  0.12865900981E+04  0.60006809796E+03 0.  0.
        -24    2    4    4    0    0 -0.39890408636E+02 -0.39487567520E+02  0.22968439421E+03  0.24941943470E+03  0.79401642140E+02 0.  0.
         24    2    4    4    0    0  0.43031423587E+03  0.74552969823E+03  0.57300240840E+03  0.10371706634E+04  0.80039692662E+02 0.  0.
         13    1    3    3    0    0 -0.32781461894E+03 -0.55717447404E+03 -0.41510419701E+03  0.76825602067E+03  0.00000000000E+00 0. -1.
        -14    1    3    3    0    0 -0.62609208292E+02 -0.14886765667E+03 -0.65987358486E+02  0.17445865884E+03  0.00000000000E+00 0.  1.
         13    1    5    5    0    0 -0.34241786959E+02 -0.19958134939E+01  0.19512733592E+03  0.19811905630E+03  0.00000000000E+00 0. -1.
        -14    1    5    5    0    0 -0.56486216767E+01 -0.37491754027E+02  0.34557058291E+02  0.51300378406E+02  0.00000000000E+00 0.  1.
          4    1    6    6  502    0  0.13240161427E+02  0.65122364210E+02  0.44019337416E+02  0.79711519001E+02  0.00000000000E+00 0. -1.
         -3    1    6    6    0  502  0.41707407445E+03  0.68040733402E+03  0.52898307098E+03  0.95745914438E+03  0.00000000000E+00 0.  1.
<mgrwt>
<rscale>  0 0.87234335E+03</rscale>
<asrwt>0</asrwt>
<pdfrwt beam="1">  1        1 0.14674689E+00 0.87234335E+03</pdfrwt>
<pdfrwt beam="2">  1       -2 0.19622308E+00 0.87234335E+03</pdfrwt>
<totfact> 0.20574493E+00</totfact>
</mgrwt>
</event>
<event>
12    3  0.2269558E-007  0.4141281E+03  0.7818608E-02  0.1038995E+00
          1   -1    0    0  501    0  0.00000000000E+00  0.00000000000E+00  0.23737064772E+03  0.23737064772E+03  0.00000000000E+00 0. -1.
         -2   -1    0    0    0  501 -0.00000000000E+00 -0.00000000000E+00 -0.90741690208E+03  0.90741690208E+03  0.00000000000E+00 0.  1.
        -24    2    1    2    0    0  0.75883589447E+02  0.19612126906E+03 -0.38966495111E+03  0.44981227544E+03  0.79186095270E+02 0.  0.
    5000000    2    1    2    0    0 -0.75883589447E+02 -0.19612126906E+03 -0.28038130325E+03  0.69497527436E+03  0.60012922394E+03 0.  0.
        -24    2    4    4    0    0  0.22678362149E+03  0.27788823026E+02 -0.50050155943E+02  0.24555636985E+03  0.74765520152E+02 0.  0.
         24    2    4    4    0    0 -0.30266721094E+03 -0.22391009209E+03 -0.23033114731E+03  0.44941890450E+03  0.84745173260E+02 0.  0.
         11    1    5    5    0    0  0.22730121836E+03  0.29182686958E+02 -0.58873634605E+02  0.23660849084E+03  0.00000000000E+00 0. -1.
        -12    1    5    5    0    0 -0.51759686657E+00 -0.13938639320E+01  0.88234786616E+01  0.89478790151E+01  0.00000000000E+00 0.  1.
         13    1    3    3    0    0  0.35360734537E+02  0.12433151516E+03 -0.30683231936E+03  0.33294861378E+03  0.00000000000E+00 0. -1.
        -14    1    3    3    0    0  0.40522854910E+02  0.71789753896E+02 -0.82832631751E+02  0.11686366166E+03  0.00000000000E+00 0.  1.
          4    1    6    6  502    0 -0.73073280044E+02 -0.13161565701E+02 -0.45186543620E+02  0.86918092434E+02  0.00000000000E+00 0. -1.
         -3    1    6    6    0  502 -0.22959393089E+03 -0.21074852639E+03 -0.18514460369E+03  0.36250081207E+03  0.00000000000E+00 0.  1.
<mgrwt>
<rscale>  0 0.41412814E+03</rscale>
<asrwt>0</asrwt>
<pdfrwt beam="1">  1        1 0.36518561E-01 0.41412814E+03</pdfrwt>
<pdfrwt beam="2">  1       -2 0.13960260E+00 0.41412814E+03</pdfrwt>
<totfact> 0.39152792E+01</totfact>
</mgrwt>
</event>
<event>
12    3  0.2269558E-007  0.1536467E+04  0.7818608E-02  0.8860559E-01
          1   -1    0    0  501    0  0.00000000000E+00  0.00000000000E+00  0.24865026600E+04  0.24865026600E+04  0.00000000000E+00 0. -1.
         -2   -1    0    0    0  501 -0.00000000000E+00 -0.00000000000E+00 -0.10663912858E+04  0.10663912858E+04  0.00000000000E+00 0.  1.
        -24    2    1    2    0    0 -0.10297155239E+04 -0.10747616861E+04  0.13434893481E+03  0.14965668740E+04  0.78968537008E+02 0.  0.
    5000000    2    1    2    0    0  0.10297155239E+04  0.10747616861E+04  0.12857624394E+04  0.20563270719E+04  0.59989101825E+03 0.  0.
        -24    2    4    4    0    0  0.10525559988E+04  0.86912599224E+03  0.12132134650E+04  0.18280909567E+04  0.82313507478E+02 0.  0.
         24    2    4    4    0    0 -0.22840474830E+02  0.20563569390E+03  0.72548974395E+02  0.22823611515E+03  0.63408553648E+02 0.  0.
         11    1    3    3    0    0 -0.56625785983E+03 -0.54928703932E+03  0.44214868498E+02  0.79013870300E+03  0.00000000000E+00 0. -1.
        -12    1    3    3    0    0 -0.46345766411E+03 -0.52547464682E+03  0.90134066314E+02  0.70642817101E+03  0.00000000000E+00 0.  1.
         11    1    5    5    0    0  0.16552056311E+03  0.10342849756E+03  0.19098551391E+03  0.27307503995E+03  0.00000000000E+00 0. -1.
        -12    1    5    5    0    0  0.88703543567E+03  0.76569749467E+03  0.10222279511E+04  0.15550159168E+04  0.00000000000E+00 0.  1.
          2    1    6    6  502    0 -0.23860046353E+02  0.21080447773E+02  0.10316539538E+02  0.33468165147E+02  0.00000000000E+00 0. -1.
         -1    1    6    6    0  502  0.10195715225E+01  0.18455524613E+03  0.62232434857E+02  0.19476795001E+03  0.00000000000E+00 0.  1.
<mgrwt>
<rscale>  0 0.15364668E+04</rscale>
<asrwt>0</asrwt>
<pdfrwt beam="1">  1        1 0.38253887E+00 0.15364668E+04</pdfrwt>
<pdfrwt beam="2">  1       -2 0.16406020E+00 0.15364668E+04</pdfrwt>
<totfact> 0.26879614E-01</totfact>
</mgrwt>
</event>
<event>
12    3  0.2269558E-007  0.5509088E+03  0.7818608E-02  0.1001284E+00
         -2   -1    0    0    0  501 -0.00000000000E+00  0.00000000000E+00  0.23068270157E+03  0.23068270157E+03  0.00000000000E+00 0.  1.
          1   -1    0    0  501    0  0.00000000000E+00 -0.00000000000E+00 -0.23434365427E+04  0.23434365427E+04  0.00000000000E+00 0. -1.
        -24    2    1    2    0    0  0.99878712857E+01  0.51148156536E+03 -0.30361916269E+03  0.60060361477E+03  0.82625400739E+02 0.  0.
    5000000    2    1    2    0    0 -0.99878712857E+01 -0.51148156536E+03 -0.18091346784E+04  0.19735156295E+04  0.60006875095E+03 0.  0.
        -24    2    4    4    0    0 -0.79598476741E+02 -0.47119812560E+03 -0.17959198629E+04  0.18601139342E+04  0.79574514105E+02 0.  0.
         24    2    4    4    0    0  0.69610605456E+02 -0.40283439759E+02 -0.13214815564E+02  0.11340169529E+03  0.78847455467E+02 0.  0.
         13    1    3    3    0    0  0.23748198068E+02  0.47146977063E+03 -0.29713851809E+03  0.55779836901E+03  0.00000000000E+00 0. -1.
        -14    1    3    3    0    0 -0.13760326782E+02  0.40011794722E+02 -0.64806445926E+01  0.42805245758E+02  0.00000000000E+00 0.  1.
         13    1    5    5    0    0 -0.67953830600E+02 -0.19509661274E+03 -0.69634799186E+03  0.72634766962E+03  0.00000000000E+00 0. -1.
        -14    1    5    5    0    0 -0.11644646141E+02 -0.27610151286E+03 -0.10995718710E+04  0.11337662646E+04  0.00000000000E+00 0.  1.
          2    1    6    6  502    0  0.11045084120E+02 -0.44434257851E+02 -0.26915930680E+02  0.53111811101E+02  0.00000000000E+00 0. -1.
         -1    1    6    6    0  502  0.58565521336E+02  0.41508180919E+01  0.13701115116E+02  0.60289884190E+02  0.00000000000E+00 0.  1.
<mgrwt>
<rscale>  0 0.55090876E+03</rscale>
<asrwt>0</asrwt>
<pdfrwt beam="1">  1        1 0.36052869E+00 0.55090876E+03</pdfrwt>
<pdfrwt beam="2">  1       -2 0.35489647E-01 0.55090876E+03</pdfrwt>
<totfact> 0.12339244E+01</totfact>
</mgrwt>
</event>
<event>
12    3  0.2269558E-007  0.1044757E+04  0.7818608E-02  0.9260773E-01
         -2   -1    0    0    0  501 -0.00000000000E+00  0.00000000000E+00  0.40009798961E+03  0.40009798961E+03  0.00000000000E+00 0.  1.
          1   -1    0    0  501    0  0.00000000000E+00 -0.00000000000E+00 -0.29769986972E+04  0.29769986972E+04  0.00000000000E+00 0. -1.
        -24    2    1    2    0    0 -0.97045995894E+03 -0.25531990120E+03 -0.13279027362E+04  0.16662604094E+04  0.78213114484E+02 0.  0.
    5000000    2    1    2    0    0  0.97045995894E+03  0.25531990120E+03 -0.12489979714E+04  0.17108362774E+04  0.59998670961E+03 0.  0.
        -24    2    4    4    0    0  0.63894611608E+03  0.36328332436E+03 -0.10935043773E+04  0.13199578565E+04  0.79435551178E+02 0.  0.
         24    2    4    4    0    0  0.33151384286E+03 -0.10796342316E+03 -0.15549359406E+03  0.39087842087E+03  0.83965191357E+02 0.  0.
         11    1    3    3    0    0 -0.57889538501E+03 -0.16072508219E+03 -0.85618611596E+03  0.10459479356E+04  0.00000000000E+00 0. -1.
        -12    1    3    3    0    0 -0.39156457393E+03 -0.94594819015E+02 -0.47171662028E+03  0.62031247383E+03  0.00000000000E+00 0.  1.
         11    1    5    5    0    0  0.47061062239E+03  0.26334646655E+03 -0.73690400834E+03  0.91315564766E+03  0.00000000000E+00 0. -1.
        -12    1    5    5    0    0  0.16833549369E+03  0.99936857816E+02 -0.35660036897E+03  0.40680220886E+03  0.00000000000E+00 0.  1.
          2    1    6    6  502    0  0.24586137181E+03 -0.61650438437E+02 -0.14729370147E+03  0.29316211420E+03  0.00000000000E+00 0. -1.
         -1    1    6    6    0  502  0.85652471049E+02 -0.46312984724E+02 -0.81998925863E+01  0.97716306671E+02  0.00000000000E+00 0.  1.
<mgrwt>
<rscale>  0 0.10447575E+04</rscale>
<asrwt>0</asrwt>
<pdfrwt beam="1">  1        1 0.45799981E+00 0.10447575E+04</pdfrwt>
<pdfrwt beam="2">  1       -2 0.61553535E-01 0.10447575E+04</pdfrwt>
<totfact> 0.13625592E+00</totfact>
</mgrwt>
</event>
<event>
12    3  0.2269558E-007  0.1242440E+04  0.7818608E-02  0.9076499E-01
          1   -1    0    0  501    0  0.00000000000E+00  0.00000000000E+00  0.22379986112E+04  0.22379986112E+04  0.00000000000E+00 0. -1.
         -4   -1    0    0    0  501 -0.00000000000E+00 -0.00000000000E+00 -0.81315890518E+03  0.81315890518E+03  0.00000000000E+00 0.  1.
        -24    2    1    2    0    0 -0.10789009784E+04  0.61079309937E+03  0.31323883782E+03  0.12810931205E+04  0.77365898310E+02 0.  0.
    5000000    2    1    2    0    0  0.10789009784E+04 -0.61079309937E+03  0.11116008682E+04  0.17700643960E+04  0.60031320496E+03 0.  0.
        -24    2    4    4    0    0  0.42944707774E+03 -0.26950697446E+03  0.83838489931E+03  0.98303416401E+03  0.80050773539E+02 0.  0.
         24    2    4    4    0    0  0.64945390071E+03 -0.34128612491E+03  0.27321596893E+03  0.78703023196E+03  0.80641379814E+02 0.  0.
         13    1    3    3    0    0 -0.73131324905E+03  0.41418141194E+03  0.17483425507E+03  0.85844762622E+03  0.00000000000E+00 0. -1.
        -14    1    3    3    0    0 -0.34758772940E+03  0.19661168743E+03  0.13840458275E+03  0.42264549423E+03  0.00000000000E+00 0.  1.
         13    1    5    5    0    0  0.45784321432E+02 -0.74401618082E+01  0.10597398488E+03  0.11568079170E+03  0.00000000000E+00 0. -1.
        -14    1    5    5    0    0  0.38366275631E+03 -0.26206681266E+03  0.73241091443E+03  0.86735337231E+03  0.00000000000E+00 0.  1.
          2    1    6    6  502    0  0.38182510482E+02 -0.26789408994E+02 -0.16794433280E+01  0.46673301478E+02  0.00000000000E+00 0. -1.
         -1    1    6    6    0  502  0.61127139023E+03 -0.31449671591E+03  0.27489541226E+03  0.74035693048E+03  0.00000000000E+00 0.  1.
<mgrwt>
<rscale>  0 0.12424400E+04</rscale>
<asrwt>0</asrwt>
<pdfrwt beam="1">  1        1 0.34430748E+00 0.12424400E+04</pdfrwt>
<pdfrwt beam="2">  1       -4 0.12510137E+00 0.12424400E+04</pdfrwt>
<totfact> 0.45957432E-01</totfact>
</mgrwt>
</event>
<event>
12    3  0.2269558E-007  0.1598000E+04  0.7818608E-02  0.8821777E-01
         -2   -1    0    0    0  501 -0.00000000000E+00  0.00000000000E+00  0.61673833687E+03  0.61673833687E+03  0.00000000000E+00 0.  1.
          1   -1    0    0  501    0  0.00000000000E+00 -0.00000000000E+00 -0.45664720408E+04  0.45664720408E+04  0.00000000000E+00 0. -1.
        -24    2    1    2    0    0 -0.15260705413E+04  0.25350454542E+03 -0.11523514713E+04  0.19306549519E+04  0.79741947065E+02 0.  0.
    5000000    2    1    2    0    0  0.15260705413E+04 -0.25350454542E+03 -0.27973822326E+04  0.32525554257E+04  0.60051110793E+03 0.  0.
        -24    2    4    4    0    0  0.11476555163E+03  0.12304125768E+03 -0.44602478009E+03  0.48333838572E+03  0.79797291472E+02 0.  0.
         24    2    4    4    0    0  0.14113049897E+04 -0.37654580310E+03 -0.23513574525E+04  0.27692170400E+04  0.78183307622E+02 0.  0.
         11    1    5    5    0    0  0.80244601783E+01  0.62870587992E+02 -0.16544478350E+03  0.17716963392E+03  0.00000000000E+00 0. -1.
        -12    1    5    5    0    0  0.10674109145E+03  0.60170669689E+02 -0.28057999659E+03  0.30616875180E+03  0.00000000000E+00 0.  1.
         13    1    3    3    0    0 -0.39657068569E+03  0.36083568012E+02 -0.31989516271E+03  0.51078689074E+03  0.00000000000E+00 0. -1.
        -14    1    3    3    0    0 -0.11294998557E+04  0.21742097741E+03 -0.83245630861E+03  0.14198680612E+04  0.00000000000E+00 0.  1.
          4    1    6    6  502    0  0.10862225169E+04 -0.31286536382E+03 -0.18628779846E+04  0.21790085997E+04  0.00000000000E+00 0. -1.
         -3    1    6    6    0  502  0.32508247280E+03 -0.63680439285E+02 -0.48847946790E+03  0.59020844032E+03  0.00000000000E+00 0.  1.
<mgrwt>
<rscale>  0 0.15980003E+04</rscale>
<asrwt>0</asrwt>
<pdfrwt beam="1">  1        1 0.70253414E+00 0.15980003E+04</pdfrwt>
<pdfrwt beam="2">  1       -2 0.94882824E-01 0.15980003E+04</pdfrwt>
<totfact> 0.21768158E-02</totfact>
</mgrwt>
</event>
<event>
12    3  0.2269558E-007  0.3965670E+03  0.7818608E-02  0.1044975E+00
          1   -1    0    0  501    0  0.00000000000E+00  0.00000000000E+00  0.27549445526E+04  0.27549445526E+04  0.00000000000E+00 0. -1.
         -2   -1    0    0    0  501 -0.00000000000E+00 -0.00000000000E+00 -0.16329350109E+03  0.16329350109E+03  0.00000000000E+00 0.  1.
        -24    2    1    2    0    0  0.98338368924E+02  0.25794688374E+03  0.20318029874E+04  0.20523265333E+04  0.87257035086E+02 0.  0.
    5000000    2    1    2    0    0 -0.98338368924E+02 -0.25794688374E+03  0.55984806413E+03  0.86591152037E+03  0.60013821456E+03 0.  0.
        -24    2    4    4    0    0 -0.23891396953E+03 -0.27141914812E+03  0.59399273475E+03  0.70025790214E+03  0.82374278545E+02 0.  0.
         24    2    4    4    0    0  0.14057560061E+03  0.13472264377E+02 -0.34144670621E+02  0.16565361824E+03  0.79575506970E+02 0.  0.
         11    1    5    5    0    0 -0.10409034293E+03 -0.78647963224E+02  0.15845674623E+03  0.20525311700E+03  0.00000000000E+00 0. -1.
        -12    1    5    5    0    0 -0.13482362660E+03 -0.19277118490E+03  0.43553598852E+03  0.49500478514E+03  0.00000000000E+00 0.  1.
         13    1    3    3    0    0  0.10682027598E+03  0.23008198463E+03  0.19242846864E+04  0.19409327256E+04  0.00000000000E+00 0. -1.
        -14    1    3    3    0    0 -0.84819070551E+01  0.27864899110E+02  0.10751830100E+03  0.11139380773E+03  0.00000000000E+00 0.  1.
          2    1    6    6  502    0  0.33440434106E+02 -0.10108977380E+02 -0.43226521429E+02  0.55578648883E+02  0.00000000000E+00 0. -1.
         -1    1    6    6    0  502  0.10713516650E+03  0.23581241757E+02  0.90818508073E+01  0.11007496935E+03  0.00000000000E+00 0.  1.
<mgrwt>
<rscale>  0 0.39656701E+03</rscale>
<asrwt>0</asrwt>
<pdfrwt beam="1">  1        1 0.42383759E+00 0.39656701E+03</pdfrwt>
<pdfrwt beam="2">  1       -2 0.25122079E-01 0.39656701E+03</pdfrwt>
<totfact> 0.12744346E+01</totfact>
</mgrwt>
</event>
<event>
12    3  0.2269558E-007  0.6429765E+03  0.7818608E-02  0.9820048E-01
         -2   -1    0    0    0  501 -0.00000000000E+00  0.00000000000E+00  0.72906202464E+03  0.72906202464E+03  0.00000000000E+00 0.  1.
          1   -1    0    0  501    0  0.00000000000E+00 -0.00000000000E+00 -0.58865435697E+03  0.58865435697E+03  0.00000000000E+00 0. -1.
        -24    2    1    2    0    0  0.50549845106E+03  0.82206705430E+02  0.56709644751E+01  0.51749227014E+03  0.74023397452E+02 0.  0.
    5000000    2    1    2    0    0 -0.50549845106E+03 -0.82206705430E+02  0.13473670320E+03  0.80022411148E+03  0.59993168192E+03 0.  0.
        -24    2    4    4    0    0 -0.40515874708E+03 -0.30716641219E+03  0.16104155035E+02  0.51501354315E+03  0.80466084202E+02 0.  0.
         24    2    4    4    0    0 -0.10033970398E+03  0.22495970676E+03  0.11863254816E+03  0.28521056833E+03  0.81218599762E+02 0.  0.
         13    1    3    3    0    0  0.31830875924E+03  0.86971975508E+02 -0.38648230072E+01  0.32999928423E+03  0.00000000000E+00 0. -1.
        -14    1    3    3    0    0  0.18718969182E+03 -0.47652700772E+01  0.95357874823E+01  0.18749298591E+03  0.00000000000E+00 0.  1.
         13    1    5    5    0    0 -0.18229217934E+03 -0.11901394203E+03  0.43685710677E+02  0.22204323535E+03  0.00000000000E+00 0. -1.
        -14    1    5    5    0    0 -0.22286656773E+03 -0.18815247015E+03 -0.27581555642E+02  0.29297030779E+03  0.00000000000E+00 0.  1.
          4    1    6    6  502    0 -0.31714117231E+02  0.16562404088E+03  0.75729713909E+02  0.18485696556E+03  0.00000000000E+00 0. -1.
         -3    1    6    6    0  502 -0.68625586753E+02  0.59335665878E+02  0.42902834251E+02  0.10035360277E+03  0.00000000000E+00 0.  1.
<mgrwt>
<rscale>  0 0.64297646E+03</rscale>
<asrwt>0</asrwt>
<pdfrwt beam="1">  1        1 0.90562209E-01 0.64297646E+03</pdfrwt>
<pdfrwt beam="2">  1       -2 0.11216339E+00 0.64297646E+03</pdfrwt>
<totfact> 0.19883448E+01</totfact>
</mgrwt>
</event>
<event>
12    3  0.2269558E-007  0.8786174E+03  0.7818608E-02  0.9452713E-01
          1   -1    0    0  501    0  0.00000000000E+00  0.00000000000E+00  0.16878188218E+04  0.16878188218E+04  0.00000000000E+00 0. -1.
         -2   -1    0    0    0  501 -0.00000000000E+00 -0.00000000000E+00 -0.76580116191E+03  0.76580116191E+03  0.00000000000E+00 0.  1.
        -24    2    1    2    0    0  0.50383206400E+02 -0.78228242453E+03  0.11929553389E+04  0.14298317746E+04  0.82293400655E+02 0.  0.
    5000000    2    1    2    0    0 -0.50383206400E+02  0.78228242453E+03 -0.27093767903E+03  0.10237882091E+04  0.60019231247E+03 0.  0.
        -24    2    4    4    0    0  0.49977173088E+02  0.83864956025E+03 -0.26163098577E+03  0.88315101938E+03  0.75326937960E+02 0.  0.
         24    2    4    4    0    0 -0.10036037949E+03 -0.56367135715E+02 -0.93066932636E+01  0.14063718972E+03  0.80266710608E+02 0.  0.
         11    1    3    3    0    0  0.14048847455E+01 -0.34013987129E+03  0.58156068870E+03  0.67372838769E+03  0.00000000000E+00 0. -1.
        -12    1    3    3    0    0  0.48978321654E+02 -0.44214255325E+03  0.61139465020E+03  0.75610338690E+03  0.00000000000E+00 0.  1.
         11    1    5    5    0    0  0.10044757406E+02  0.24978362653E+03 -0.11398359060E+03  0.27474536604E+03  0.00000000000E+00 0. -1.
        -12    1    5    5    0    0  0.39932415682E+02  0.58886593372E+03 -0.14764739516E+03  0.60840565334E+03  0.00000000000E+00 0.  1.
          4    1    6    6  502    0 -0.27477338538E+02 -0.52258997328E+02  0.19472004722E+02  0.62170458441E+02  0.00000000000E+00 0. -1.
         -3    1    6    6    0  502 -0.72883040950E+02 -0.41081383876E+01 -0.28778697986E+02  0.78466731275E+02  0.00000000000E+00 0.  1.
<mgrwt>
<rscale>  0 0.87861742E+03</rscale>
<asrwt>0</asrwt>
<pdfrwt beam="1">  1        1 0.25966443E+00 0.87861742E+03</pdfrwt>
<pdfrwt beam="2">  1       -2 0.11781556E+00 0.87861742E+03</pdfrwt>
<totfact> 0.24101141E+00</totfact>
</mgrwt>
</event>
<event>
12    3  0.2269558E-007  0.6448988E+03  0.7818608E-02  0.9816399E-01
         -4   -1    0    0    0  501 -0.00000000000E+00  0.00000000000E+00  0.52634209439E+03  0.52634209439E+03  0.00000000000E+00 0.  1.
          1   -1    0    0  501    0  0.00000000000E+00 -0.00000000000E+00 -0.80793249832E+03  0.80793249832E+03  0.00000000000E+00 0. -1.
        -24    2    1    2    0    0 -0.32174922340E+03 -0.39638740767E+03 -0.10491683095E+03  0.52693171889E+03  0.77485193684E+02 0.  0.
    5000000    2    1    2    0    0  0.32174922340E+03  0.39638740767E+03 -0.17667357298E+03  0.80734287382E+03  0.59995285214E+03 0.  0.
        -24    2    4    4    0    0 -0.11447354953E+03  0.29741387272E+03 -0.12545421309E+03  0.35028281393E+03  0.73485270128E+02 0.  0.
         24    2    4    4    0    0  0.43622277293E+03  0.98973534955E+02 -0.51219359888E+02  0.45706005989E+03  0.78704556852E+02 0.  0.
         11    1    5    5    0    0 -0.74813114924E+02  0.26636971526E+03 -0.10548013511E+03  0.29610114197E+03  0.00000000000E+00 0. -1.
        -12    1    5    5    0    0 -0.39660434607E+02  0.31044157459E+02 -0.19974077979E+02  0.54181671963E+02  0.00000000000E+00 0.  1.
         13    1    3    3    0    0 -0.22772163782E+03 -0.23020260606E+03 -0.86149628687E+02  0.33507035484E+03  0.00000000000E+00 0. -1.
        -14    1    3    3    0    0 -0.94027585581E+02 -0.16618480161E+03 -0.18767202261E+02  0.19186136405E+03  0.00000000000E+00 0.  1.
          2    1    6    6  502    0  0.37636051329E+03  0.94112850553E+02 -0.17864255583E+02  0.38836013729E+03  0.00000000000E+00 0. -1.
         -1    1    6    6    0  502  0.59862259638E+02  0.48606844019E+01 -0.33355104305E+02  0.68699922599E+02  0.00000000000E+00 0.  1.
<mgrwt>
<rscale>  0 0.64489883E+03</rscale>
<asrwt>0</asrwt>
<pdfrwt beam="1">  1        1 0.12429731E+00 0.64489883E+03</pdfrwt>
<pdfrwt beam="2">  1       -4 0.80975707E-01 0.64489883E+03</pdfrwt>
<totfact> 0.14337585E+01</totfact>
</mgrwt>
</event>
<event>
12    3  0.2269558E-007  0.9362595E+03  0.7818608E-02  0.9381357E-01
          1   -1    0    0  501    0  0.00000000000E+00  0.00000000000E+00  0.13665745468E+04  0.13665745468E+04  0.00000000000E+00 0. -1.
         -2   -1    0    0    0  501 -0.00000000000E+00 -0.00000000000E+00 -0.81038734534E+03  0.81038734534E+03  0.00000000000E+00 0.  1.
        -24    2    1    2    0    0 -0.63958050542E+03  0.57377494747E+03  0.71045349484E+03  0.11176726348E+04  0.78530484656E+02 0.  0.
    5000000    2    1    2    0    0  0.63958050542E+03 -0.57377494747E+03 -0.15426629334E+03  0.10592892574E+04  0.60001227343E+03 0.  0.
        -24    2    4    4    0    0  0.47535568519E+03 -0.66623546821E+03 -0.36492589454E+02  0.82311537285E+03  0.79715001089E+02 0.  0.
         24    2    4    4    0    0  0.16422482023E+03  0.92460520738E+02 -0.11777370389E+03  0.23617388452E+03  0.79929462201E+02 0.  0.
         13    1    3    3    0    0 -0.31429858048E+03  0.32017272329E+03  0.40510020086E+03  0.60448353424E+03  0.00000000000E+00 0. -1.
        -14    1    3    3    0    0 -0.32528192494E+03  0.25360222417E+03  0.30535329399E+03  0.51318910058E+03  0.00000000000E+00 0.  1.
         13    1    5    5    0    0  0.14562634512E+03 -0.19846428412E+03  0.25433989941E+02  0.24747119490E+03  0.00000000000E+00 0. -1.
        -14    1    5    5    0    0  0.32972934008E+03 -0.46777118409E+03 -0.61926579396E+02  0.57564417795E+03  0.00000000000E+00 0.  1.
          4    1    6    6  502    0  0.10727936375E+03  0.37088938944E+02 -0.29204947131E+02  0.11720657070E+03  0.00000000000E+00 0. -1.
         -3    1    6    6    0  502  0.56945456479E+02  0.55371581795E+02 -0.88568756754E+02  0.11896731382E+03  0.00000000000E+00 0.  1.
<mgrwt>
<rscale>  0 0.93625953E+03</rscale>
<asrwt>0</asrwt>
<pdfrwt beam="1">  1        1 0.21024224E+00 0.93625953E+03</pdfrwt>
<pdfrwt beam="2">  1       -2 0.12467498E+00 0.93625953E+03</pdfrwt>
<totfact> 0.34534205E+00</totfact>
</mgrwt>
</event>
<event>
12    3  0.2269558E-007  0.8681872E+03  0.7818608E-02  0.9466247E-01
         -2   -1    0    0    0  501 -0.00000000000E+00  0.00000000000E+00  0.35329040487E+03  0.35329040487E+03  0.00000000000E+00 0.  1.
          1   -1    0    0  501    0  0.00000000000E+00 -0.00000000000E+00 -0.27731792116E+04  0.27731792116E+04  0.00000000000E+00 0. -1.
        -24    2    1    2    0    0 -0.18249892376E+03 -0.77629914636E+03 -0.17495276887E+04  0.19243225576E+04  0.78892016788E+02 0.  0.
    5000000    2    1    2    0    0  0.18249892376E+03  0.77629914636E+03 -0.67036111800E+03  0.12021470588E+04  0.59985606669E+03 0.  0.
        -24    2    4    4    0    0  0.25160805909E+03  0.13315016949E+03 -0.39829874151E+03  0.49581585892E+03  0.78459514572E+02 0.  0.
         24    2    4    4    0    0 -0.69109135329E+02  0.64314897686E+03 -0.27206237649E+03  0.70633119993E+03  0.80431015546E+02 0.  0.
         11    1    3    3    0    0 -0.39571557262E+02 -0.33589105687E+03 -0.75507561656E+03  0.82736201082E+03  0.00000000000E+00 0. -1.
        -12    1    3    3    0    0 -0.14292736650E+03 -0.44040808949E+03 -0.99445207219E+03  0.10969605468E+04  0.00000000000E+00 0.  1.
         13    1    5    5    0    0  0.15109418733E+03  0.57804656318E+02 -0.27937804539E+03  0.32283575388E+03  0.00000000000E+00 0. -1.
        -14    1    5    5    0    0  0.10051387176E+03  0.75345513174E+02 -0.11892069612E+03  0.17298010503E+03  0.00000000000E+00 0.  1.
          2    1    6    6  502    0 -0.46645390859E+02  0.27612238559E+03 -0.78731712122E+02  0.29089181289E+03  0.00000000000E+00 0. -1.
         -1    1    6    6    0  502 -0.22463744470E+02  0.36702659128E+03 -0.19333066436E+03  0.41543938704E+03  0.00000000000E+00 0.  1.
<mgrwt>
<rscale>  0 0.86818719E+03</rscale>
<asrwt>0</asrwt>
<pdfrwt beam="1">  1        1 0.42664297E+00 0.86818719E+03</pdfrwt>
<pdfrwt beam="2">  1       -2 0.54352368E-01 0.86818719E+03</pdfrwt>
<totfact> 0.25378213E+00</totfact>
</mgrwt>
</event>
<event>
12    3  0.2269558E-007  0.1200701E+04  0.7818608E-02  0.9112243E-01
          1   -1    0    0  501    0  0.00000000000E+00  0.00000000000E+00  0.11171489654E+04  0.11171489654E+04  0.00000000000E+00 0. -1.
         -4   -1    0    0    0  501 -0.00000000000E+00 -0.00000000000E+00 -0.15719200342E+04  0.15719200342E+04  0.00000000000E+00 0.  1.
        -24    2    1    2    0    0 -0.11298556342E+04 -0.98091810053E+02  0.33153455915E+03  0.11842716267E+04  0.79927246158E+02 0.  0.
    5000000    2    1    2    0    0  0.11298556342E+04  0.98091810053E+02 -0.78630562794E+03  0.15047973729E+04  0.59995236114E+03 0.  0.
        -24    2    4    4    0    0  0.10339752205E+04 -0.99998599529E+02 -0.57911766303E+03  0.11923208859E+04  0.84542005525E+02 0.  0.
         24    2    4    4    0    0  0.95880413682E+02  0.19809040958E+03 -0.20718796491E+03  0.31247648703E+03  0.79258047222E+02 0.  0.
         11    1    5    5    0    0  0.56346370237E+03 -0.96413507181E+02 -0.31149723181E+03  0.65101262176E+03  0.00000000000E+00 0. -1.
        -12    1    5    5    0    0  0.47051151814E+03 -0.35850923481E+01 -0.26762043122E+03  0.54130826411E+03  0.00000000000E+00 0.  1.
         11    1    3    3    0    0 -0.46572487109E+03 -0.98440973097E+00  0.13613378339E+03  0.48521441817E+03  0.00000000000E+00 0. -1.
        -12    1    3    3    0    0 -0.66413076310E+03 -0.97107400322E+02  0.19540077576E+03  0.69905720858E+03  0.00000000000E+00 0.  1.
          2    1    6    6  502    0  0.27728874891E+02  0.29629859640E+02 -0.54277780323E+01  0.40942396845E+02  0.00000000000E+00 0. -1.
         -1    1    6    6    0  502  0.68151538791E+02  0.16846054994E+03 -0.20176018687E+03  0.27153409019E+03  0.00000000000E+00 0.  1.
<mgrwt>
<rscale>  0 0.12007007E+04</rscale>
<asrwt>0</asrwt>
<pdfrwt beam="1">  1        1 0.17186907E+00 0.12007007E+04</pdfrwt>
<pdfrwt beam="2">  1       -4 0.24183385E+00 0.12007007E+04</pdfrwt>
<totfact> 0.40545932E-01</totfact>
</mgrwt>
</event>
<event>
12    3  0.2703115E-007  0.1006888E+04  0.7818608E-02  0.9301022E-01
          1   -1    0    0  501    0  0.00000000000E+00  0.00000000000E+00  0.12977459219E+04  0.12977459219E+04  0.00000000000E+00 0. -1.
         -2   -1    0    0    0  501 -0.00000000000E+00 -0.00000000000E+00 -0.85526140492E+03  0.85526140492E+03  0.00000000000E+00 0.  1.
        -24    2    1    2    0    0 -0.92784099471E+03 -0.26647854786E+03  0.16010607630E+03  0.98186764475E+03  0.80810817416E+02 0.  0.
    5000000    2    1    2    0    0  0.92784099471E+03  0.26647854786E+03  0.28237844064E+03  0.11711396820E+04  0.59994236654E+03 0.  0.
        -24    2    4    4    0    0  0.65343979327E+03 -0.12195381409E+01  0.38958067376E+03  0.76516519624E+03  0.81973321600E+02 0.  0.
         24    2    4    4    0    0  0.27440120143E+03  0.26769808600E+03 -0.10720223313E+03  0.40597448580E+03  0.79778942915E+02 0.  0.
         11    1    5    5    0    0  0.31675257085E+03  0.11209499648E+02  0.14334507694E+03  0.34785867116E+03  0.00000000000E+00 0. -1.
        -12    1    5    5    0    0  0.33668722243E+03 -0.12429037789E+02  0.24623559682E+03  0.41730652507E+03  0.00000000000E+00 0.  1.
         13    1    3    3    0    0 -0.61574705999E+03 -0.13799494381E+03  0.11378254301E+03  0.64119693815E+03  0.00000000000E+00 0. -1.
        -14    1    3    3    0    0 -0.31209393472E+03 -0.12848360405E+03  0.46323533293E+02  0.34067070660E+03  0.00000000000E+00 0.  1.
          4    1    6    6  502    0  0.14623564033E+03  0.88035695262E+02 -0.40613610002E+02  0.17545544010E+03  0.00000000000E+00 0. -1.
         -3    1    6    6    0  502  0.12816556110E+03  0.17966239074E+03 -0.66588623125E+02  0.23051904570E+03  0.00000000000E+00 0.  1.
<mgrwt>
<rscale>  0 0.10068884E+04</rscale>
<asrwt>0</asrwt>
<pdfrwt beam="1">  1        1 0.19965322E+00 0.10068884E+04</pdfrwt>
<pdfrwt beam="2">  1       -2 0.13157868E+00 0.10068884E+04</pdfrwt>
<totfact> 0.33432679E+00</totfact>
</mgrwt>
</event>
<event>
12    3  0.2269558E-007  0.1037326E+04  0.7818608E-02  0.9268528E-01
         -2   -1    0    0    0  501 -0.00000000000E+00  0.00000000000E+00  0.56781095789E+03  0.56781095789E+03  0.00000000000E+00 0.  1.
          1   -1    0    0  501    0  0.00000000000E+00 -0.00000000000E+00 -0.21097575274E+04  0.21097575274E+04  0.00000000000E+00 0. -1.
        -24    2    1    2    0    0 -0.86533265633E+03 -0.52101065098E+03 -0.65646598037E+03  0.12064087862E+04  0.64975930010E+02 0.  0.
    5000000    2    1    2    0    0  0.86533265633E+03  0.52101065098E+03 -0.88548058910E+03  0.14711596991E+04  0.59998523473E+03 0.  0.
        -24    2    4    4    0    0  0.35922789182E+03  0.40855746231E+02 -0.61426695448E+03  0.71735330580E+03  0.80981502285E+02 0.  0.
         24    2    4    4    0    0  0.50610476451E+03  0.48015490475E+03 -0.27121363463E+03  0.75380639326E+03  0.89311128617E+02 0.  0.
         11    1    5    5    0    0  0.19590997190E+03  0.24213693750E+02 -0.25602905420E+03  0.32329227744E+03  0.00000000000E+00 0. -1.
        -12    1    5    5    0    0  0.16331791992E+03  0.16642052482E+02 -0.35823790028E+03  0.39406102836E+03  0.00000000000E+00 0.  1.
         11    1    3    3    0    0 -0.43855012777E+03 -0.25532014128E+03 -0.36744723342E+03  0.62652378922E+03  0.00000000000E+00 0. -1.
        -12    1    3    3    0    0 -0.42678252856E+03 -0.26569050970E+03 -0.28901874695E+03  0.57988499697E+03  0.00000000000E+00 0.  1.
          4    1    6    6  502    0  0.15153781600E+02 -0.13819921658E+01 -0.98619983703E+01  0.18133008878E+02  0.00000000000E+00 0. -1.
         -3    1    6    6    0  502  0.49095098291E+03  0.48153689691E+03 -0.26135163626E+03  0.73567338438E+03  0.00000000000E+00 0.  1.
<mgrwt>
<rscale>  0 0.10373261E+04</rscale>
<asrwt>0</asrwt>
<pdfrwt beam="1">  1        1 0.32457808E+00 0.10373261E+04</pdfrwt>
<pdfrwt beam="2">  1       -2 0.87355531E-01 0.10373261E+04</pdfrwt>
<totfact> 0.25025970E+00</totfact>
</mgrwt>
</event>
<event>
12    3  0.2269558E-007  0.3466177E+03  0.7818608E-02  0.1064012E+00
          1   -1    0    0  501    0  0.00000000000E+00  0.00000000000E+00  0.25773116137E+04  0.25773116137E+04  0.00000000000E+00 0. -1.
         -2   -1    0    0    0  501 -0.00000000000E+00 -0.00000000000E+00 -0.87252564841E+02  0.87252564841E+02  0.00000000000E+00 0.  1.
        -24    2    1    2    0    0 -0.10443362562E+03  0.27031004395E+02  0.38282812466E+02  0.13813306018E+03  0.77318246397E+02 0.  0.
    5000000    2    1    2    0    0  0.10443362562E+03 -0.27031004395E+02  0.24517762364E+04  0.25264311183E+04  0.60000868752E+03 0.  0.
        -24    2    4    4    0    0 -0.23100877755E+03 -0.14271613678E+02  0.13491797645E+04  0.13711681335E+04  0.79039730003E+02 0.  0.
         24    2    4    4    0    0  0.33544240318E+03 -0.12759390717E+02  0.11025964718E+04  0.11552629849E+04  0.78925133000E+02 0.  0.
         11    1    3    3    0    0 -0.13355547890E+02  0.29065401428E+02  0.34364982805E+02  0.46948059202E+02  0.00000000000E+00 0. -1.
        -12    1    3    3    0    0 -0.91078077732E+02 -0.20343970321E+01  0.39178296604E+01  0.91185000981E+02  0.00000000000E+00 0.  1.
         11    1    5    5    0    0 -0.67278111791E+01  0.47009878914E+01  0.88472229143E+01  0.12067977615E+02  0.00000000000E+00 0. -1.
        -12    1    5    5    0    0 -0.22428096637E+03 -0.18972601569E+02  0.13403325416E+04  0.13591001559E+04  0.00000000000E+00 0.  1.
          4    1    6    6  502    0  0.30997105553E+02 -0.94114231069E+01  0.50490999042E+02  0.59989469258E+02  0.00000000000E+00 0. -1.
         -1    1    6    6    0  502  0.30444529762E+03 -0.33479676105E+01  0.10521054728E+04  0.10952735156E+04  0.00000000000E+00 0.  1.
<mgrwt>
<rscale>  0 0.34661768E+03</rscale>
<asrwt>0</asrwt>
<pdfrwt beam="1">  1        1 0.39650942E+00 0.34661768E+03</pdfrwt>
<pdfrwt beam="2">  1       -2 0.13423473E-01 0.34661768E+03</pdfrwt>
<totfact> 0.49939764E+01</totfact>
</mgrwt>
</event>
<event>
12    3  0.2269558E-007  0.2132423E+04  0.7818608E-02  0.8547094E-01
          1   -1    0    0  501    0  0.00000000000E+00  0.00000000000E+00  0.32120016596E+04  0.32120016596E+04  0.00000000000E+00 0. -1.
         -2   -1    0    0    0  501 -0.00000000000E+00 -0.00000000000E+00 -0.16279112537E+04  0.16279112537E+04  0.00000000000E+00 0.  1.
        -24    2    1    2    0    0 -0.19783882247E+04  0.77328730129E+03  0.15526746925E+04  0.26326342603E+04  0.89281746708E+02 0.  0.
    5000000    2    1    2    0    0  0.19783882247E+04 -0.77328730129E+03  0.31415713451E+02  0.22072786530E+04  0.59924860197E+03 0.  0.
        -24    2    4    4    0    0  0.17848237679E+04 -0.61084780607E+03  0.19334792658E+03  0.18979963520E+04  0.79219990124E+02 0.  0.
         24    2    4    4    0    0  0.19356445679E+03 -0.16243949522E+03 -0.16193221313E+03  0.30928230099E+03  0.74697466613E+02 0.  0.
         11    1    5    5    0    0  0.13592502242E+04 -0.43707912979E+03  0.16750929258E+03  0.14375878063E+04  0.00000000000E+00 0. -1.
        -12    1    5    5    0    0  0.42557354364E+03 -0.17376867628E+03  0.25838634007E+02  0.46040854565E+03  0.00000000000E+00 0.  1.
         13    1    3    3    0    0 -0.82718347415E+03  0.34412607165E+03  0.70398047328E+03  0.11394050026E+04  0.00000000000E+00 0. -1.
        -14    1    3    3    0    0 -0.11512047505E+04  0.42916122964E+03  0.84869421918E+03  0.14932292578E+04  0.00000000000E+00 0.  1.
          4    1    6    6  502    0  0.28047451857E+02 -0.19447083908E+02 -0.57580394647E+02  0.66935420190E+02  0.00000000000E+00 0. -1.
         -1    1    6    6    0  502  0.16551700493E+03 -0.14299241131E+03 -0.10435181848E+03  0.24234688080E+03  0.00000000000E+00 0.  1.
<mgrwt>
<rscale>  0 0.21324228E+04</rscale>
<asrwt>0</asrwt>
<pdfrwt beam="1">  1        1 0.49415410E+00 0.21324228E+04</pdfrwt>
<pdfrwt beam="2">  1       -2 0.25044789E+00 0.21324228E+04</pdfrwt>
<totfact> 0.20414616E-02</totfact>
</mgrwt>
</event>
<event>
12    3  0.2269558E-007  0.7377817E+03  0.7818608E-02  0.9654716E-01
          1   -1    0    0  501    0  0.00000000000E+00  0.00000000000E+00  0.31678927765E+04  0.31678927765E+04  0.00000000000E+00 0. -1.
         -2   -1    0    0    0  501 -0.00000000000E+00 -0.00000000000E+00 -0.17815914828E+03  0.17815914828E+03  0.00000000000E+00 0.  1.
        -24    2    1    2    0    0  0.27371792052E+03  0.55815458387E+03  0.10589597980E+04  0.12307983705E+04  0.83730135449E+02 0.  0.
    5000000    2    1    2    0    0 -0.27371792052E+03 -0.55815458387E+03  0.19307738302E+04  0.21152535543E+04  0.59995997853E+03 0.  0.
        -24    2    4    4    0    0 -0.33652469771E+03 -0.54820893617E+02  0.81094358935E+03  0.88326487613E+03  0.79203117076E+02 0.  0.
         24    2    4    4    0    0  0.62806777194E+02 -0.50333369026E+03  0.11198302409E+04  0.12319886781E+04  0.80540919188E+02 0.  0.
         11    1    3    3    0    0  0.84237362241E+02  0.10390958689E+03  0.19476627155E+03  0.23627745551E+03  0.00000000000E+00 0. -1.
        -12    1    3    3    0    0  0.18948055828E+03  0.45424499698E+03  0.86419352647E+03  0.99452091504E+03  0.00000000000E+00 0.  1.
         13    1    5    5    0    0 -0.13381334469E+03 -0.11011346840E+02  0.22884606933E+03  0.26532580806E+03  0.00000000000E+00 0. -1.
        -14    1    5    5    0    0 -0.20271135302E+03 -0.43809546777E+02  0.58209752002E+03  0.61793906807E+03  0.00000000000E+00 0.  1.
          2    1    6    6  502    0  0.42884906786E+02 -0.23442905350E+03  0.43534724484E+03  0.49630970165E+03  0.00000000000E+00 0. -1.
         -1    1    6    6    0  502  0.19921870408E+02 -0.26890463675E+03  0.68448299604E+03  0.73567897650E+03  0.00000000000E+00 0.  1.
<mgrwt>
<rscale>  0 0.73778168E+03</rscale>
<asrwt>0</asrwt>
<pdfrwt beam="1">  1        1 0.48736808E+00 0.73778168E+03</pdfrwt>
<pdfrwt beam="2">  1       -2 0.27409102E-01 0.73778168E+03</pdfrwt>
<totfact> 0.51224617E+00</totfact>
</mgrwt>
</event>
<event>
12    3  0.2269558E-007  0.3881161E+03  0.7818608E-02  0.1047974E+00
         -2   -1    0    0    0  501 -0.00000000000E+00  0.00000000000E+00  0.10209412751E+04  0.10209412751E+04  0.00000000000E+00 0.  1.
          1   -1    0    0  501    0  0.00000000000E+00 -0.00000000000E+00 -0.23465811456E+03  0.23465811456E+03  0.00000000000E+00 0. -1.
        -24    2    1    2    0    0 -0.19717295181E+03 -0.22005083422E+03  0.29786299796E+03  0.42733190781E+03  0.81182826473E+02 0.  0.
    5000000    2    1    2    0    0  0.19717295181E+03  0.22005083422E+03  0.48842016259E+03  0.82826748187E+03  0.60014433574E+03 0.  0.
        -24    2    4    4    0    0 -0.36970472527E+02 -0.62323560731E+02 -0.88471527326E+02  0.14011633530E+03  0.80958842683E+02 0.  0.
         24    2    4    4    0    0  0.23414342434E+03  0.28237439495E+03  0.57689168992E+03  0.68815114657E+03  0.78673607695E+02 0.  0.
         13    1    3    3    0    0 -0.83412324855E+02 -0.39269580123E+02  0.10256811146E+03  0.13791277443E+03  0.00000000000E+00 0. -1.
        -14    1    3    3    0    0 -0.11376062695E+03 -0.18078125410E+03  0.19529488650E+03  0.28941913339E+03  0.00000000000E+00 0.  1.
         13    1    5    5    0    0 -0.25373632367E+02 -0.78283175918E+02 -0.48448309736E+02  0.95495107558E+02  0.00000000000E+00 0. -1.
        -14    1    5    5    0    0 -0.11596840161E+02  0.15959615187E+02 -0.40023217590E+02  0.44621227739E+02  0.00000000000E+00 0.  1.
          4    1    6    6  502    0  0.10550896462E+01  0.94528394240E+01  0.48288504938E+02  0.49216349890E+02  0.00000000000E+00 0. -1.
         -3    1    6    6    0  502  0.23308833469E+03  0.27292155553E+03  0.52860318498E+03  0.63893479668E+03  0.00000000000E+00 0.  1.
<mgrwt>
<rscale>  0 0.38811614E+03</rscale>
<asrwt>0</asrwt>
<pdfrwt beam="1">  1        1 0.36101249E-01 0.38811614E+03</pdfrwt>
<pdfrwt beam="2">  1       -2 0.15706789E+00 0.38811614E+03</pdfrwt>
<totfact> 0.29315476E+01</totfact>
</mgrwt>
</event>
<event>
12    3  0.2269558E-007  0.8677945E+03  0.7818608E-02  0.9466760E-01
          1   -1    0    0  501    0  0.00000000000E+00  0.00000000000E+00  0.14556367100E+04  0.14556367100E+04  0.00000000000E+00 0. -1.
         -2   -1    0    0    0  501 -0.00000000000E+00 -0.00000000000E+00 -0.72247475990E+03  0.72247475990E+03  0.00000000000E+00 0.  1.
        -24    2    1    2    0    0 -0.77854535517E+03 -0.14540545576E+03 -0.19376163140E+03  0.81949062402E+03  0.82132188759E+02 0.  0.
    5000000    2    1    2    0    0  0.77854535517E+03  0.14540545576E+03  0.92692358155E+03  0.13586208459E+04  0.59948949978E+03 0.  0.
        -24    2    4    4    0    0  0.70574458240E+03  0.29434323878E+03  0.88056057406E+03  0.11684107101E+04  0.71297300037E+02 0.  0.
         24    2    4    4    0    0  0.72800772767E+02 -0.14893778302E+03  0.46363007481E+02  0.19021013586E+03  0.80919414203E+02 0.  0.
         11    1    3    3    0    0 -0.52829979730E+03 -0.74105585015E+02 -0.16096528403E+03  0.55722718547E+03  0.00000000000E+00 0. -1.
        -12    1    3    3    0    0 -0.25024555786E+03 -0.71299870746E+02 -0.32796347374E+02  0.26226343855E+03  0.00000000000E+00 0.  1.
         13    1    5    5    0    0  0.13210649269E+03  0.42508542910E+02  0.19963140207E+03  0.24312918032E+03  0.00000000000E+00 0. -1.
        -14    1    5    5    0    0  0.57363808971E+03  0.25183469587E+03  0.68092917200E+03  0.92528152974E+03  0.00000000000E+00 0.  1.
          2    1    6    6  502    0  0.43942073485E+02 -0.27512682980E+02  0.39566586942E+02  0.65217852994E+02  0.00000000000E+00 0. -1.
         -1    1    6    6    0  502  0.28858699282E+02 -0.12142510004E+03  0.67964205394E+01  0.12499228287E+03  0.00000000000E+00 0.  1.
<mgrwt>
<rscale>  0 0.86779454E+03</rscale>
<asrwt>0</asrwt>
<pdfrwt beam="1">  1        1 0.22394411E+00 0.86779454E+03</pdfrwt>
<pdfrwt beam="2">  1       -2 0.11114996E+00 0.86779454E+03</pdfrwt>
<totfact> 0.40093972E+00</totfact>
</mgrwt>
</event>
<event>
12    3  0.2269558E-007  0.6998169E+03  0.7818608E-02  0.9717545E-01
         -4   -1    0    0    0  501 -0.00000000000E+00  0.00000000000E+00  0.44667557379E+03  0.44667557379E+03  0.00000000000E+00 0.  1.
          3   -1    0    0  501    0  0.00000000000E+00 -0.00000000000E+00 -0.12037583083E+04  0.12037583083E+04  0.00000000000E+00 0. -1.
        -24    2    1    2    0    0  0.14394020732E+03  0.56005096070E+03 -0.52781478289E+03  0.78585039818E+03  0.67797798028E+02 0.  0.
    5000000    2    1    2    0    0 -0.14394020732E+03 -0.56005096070E+03 -0.22926795162E+03  0.86458348390E+03  0.60047060305E+03 0.  0.
        -24    2    4    4    0    0  0.57496316006E+01  0.11349178820E+03 -0.45108598943E+02  0.14624244388E+03  0.80241027170E+02 0.  0.
         24    2    4    4    0    0 -0.14968983892E+03 -0.67354274891E+03 -0.18415935267E+03  0.71834104001E+03  0.77667883400E+02 0.  0.
         11    1    3    3    0    0  0.56751445470E+02  0.21596407924E+03 -0.16009092397E+03  0.27475500727E+03  0.00000000000E+00 0. -1.
        -12    1    3    3    0    0  0.87188761847E+02  0.34408688146E+03 -0.36772385892E+03  0.51109539090E+03  0.00000000000E+00 0.  1.
         13    1    5    5    0    0 -0.14814537824E+02  0.35461901392E+01  0.13153273643E+02  0.20125968374E+02  0.00000000000E+00 0. -1.
        -14    1    5    5    0    0  0.20564169424E+02  0.10994559807E+03 -0.58261872586E+02  0.12611647551E+03  0.00000000000E+00 0.  1.
          2    1    6    6  502    0  0.92700190535E+01 -0.29558834740E+02 -0.98734198328E+01  0.32513726081E+02  0.00000000000E+00 0. -1.
         -1    1    6    6    0  502 -0.15895985797E+03 -0.64398391417E+03 -0.17428593284E+03  0.68582731393E+03  0.00000000000E+00 0.  1.
<mgrwt>
<rscale>  0 0.69981695E+03</rscale>
<asrwt>0</asrwt>
<pdfrwt beam="1">  1        3 0.18519358E+00 0.69981695E+03</pdfrwt>
<pdfrwt beam="2">  1       -4 0.68719320E-01 0.69981695E+03</pdfrwt>
<totfact> 0.81136371E-01</totfact>
</mgrwt>
</event>
<event>
12    3  0.2515356E-007  0.1591218E+04  0.7818608E-02  0.8825962E-01
          1   -1    0    0  501    0  0.00000000000E+00  0.00000000000E+00  0.14998834950E+04  0.14998834950E+04  0.00000000000E+00 0. -1.
         -2   -1    0    0    0  501 -0.00000000000E+00 -0.00000000000E+00 -0.19613918940E+04  0.19613918940E+04  0.00000000000E+00 0.  1.
        -24    2    1    2    0    0  0.15475473567E+04  0.53817062197E+02  0.38419871710E+03  0.15976607527E+04  0.84333440675E+02 0.  0.
    5000000    2    1    2    0    0 -0.15475473567E+04 -0.53817062197E+02 -0.84570711608E+03  0.18636146362E+04  0.60003323988E+03 0.  0.
        -24    2    4    4    0    0 -0.10869217027E+04 -0.27020806937E+03 -0.43117109229E+03  0.12025886341E+04  0.76809657611E+02 0.  0.
         24    2    4    4    0    0 -0.46062565393E+03  0.21639100717E+03 -0.41453602379E+03  0.66102600212E+03  0.78193346329E+02 0.  0.
         13    1    5    5    0    0 -0.58318856687E+03 -0.10913051339E+03 -0.21069617312E+03  0.62961198436E+03  0.00000000000E+00 0. -1.
        -14    1    5    5    0    0 -0.50373313584E+03 -0.16107755598E+03 -0.22047491916E+03  0.57297664976E+03  0.00000000000E+00 0.  1.
         13    1    3    3    0    0  0.11814073032E+04  0.66452428781E+02  0.26713234014E+03  0.12130535143E+04  0.00000000000E+00 0. -1.
        -14    1    3    3    0    0  0.36614005342E+03 -0.12635366584E+02  0.11706637695E+03  0.38460723839E+03  0.00000000000E+00 0.  1.
          2    1    6    6  502    0 -0.45478453832E+03  0.20724585163E+03 -0.38914793136E+03  0.63341608110E+03  0.00000000000E+00 0. -1.
         -1    1    6    6    0  502 -0.58411156143E+01  0.91451555392E+01 -0.25388092429E+02  0.27609921019E+02  0.00000000000E+00 0.  1.
<mgrwt>
<rscale>  0 0.15912177E+04</rscale>
<asrwt>0</asrwt>
<pdfrwt beam="1">  1        1 0.23075131E+00 0.15912177E+04</pdfrwt>
<pdfrwt beam="2">  1       -2 0.30175260E+00 0.15912177E+04</pdfrwt>
<totfact> 0.16605557E-01</totfact>
</mgrwt>
</event>
<event>
12    3  0.2269558E-007  0.1664811E+04  0.7818608E-02  0.8781693E-01
         -2   -1    0    0    0  501 -0.00000000000E+00  0.00000000000E+00  0.17987824381E+04  0.17987824381E+04  0.00000000000E+00 0.  1.
          1   -1    0    0  501    0  0.00000000000E+00 -0.00000000000E+00 -0.15932480097E+04  0.15932480097E+04  0.00000000000E+00 0. -1.
        -24    2    1    2    0    0 -0.16240885007E+04 -0.20631253082E+03  0.17175844357E+03  0.16480638296E+04  0.79906852160E+02 0.  0.
    5000000    2    1    2    0    0  0.16240885007E+04  0.20631253082E+03  0.33775984883E+02  0.17439666182E+04  0.60004202349E+03 0.  0.
        -24    2    4    4    0    0  0.12892634902E+04  0.32289202866E+03 -0.14479513414E+03  0.13392831035E+04  0.79082179627E+02 0.  0.
         24    2    4    4    0    0  0.33482501044E+03 -0.11657949784E+03  0.17857111903E+03  0.40468351469E+03  0.78629101361E+02 0.  0.
         13    1    5    5    0    0  0.95751327827E+03  0.25533116657E+03 -0.76638887199E+02  0.99393118560E+03  0.00000000000E+00 0. -1.
        -14    1    5    5    0    0  0.33175021196E+03  0.67560862086E+02 -0.68156246945E+02  0.34535191793E+03  0.00000000000E+00 0.  1.
         13    1    3    3    0    0 -0.11400658217E+04 -0.17035714753E+03  0.14723279955E+03  0.11620882638E+04  0.00000000000E+00 0. -1.
        -14    1    3    3    0    0 -0.48402267892E+03 -0.35955383290E+02  0.24525644027E+02  0.48597556576E+03  0.00000000000E+00 0.  1.
          4    1    6    6  502    0  0.12308334598E+03 -0.62347549989E+01  0.76189241726E+02  0.14489024392E+03  0.00000000000E+00 0. -1.
         -3    1    6    6    0  502  0.21174166446E+03 -0.11034474284E+03  0.10238187730E+03  0.25979327077E+03  0.00000000000E+00 0.  1.
<mgrwt>
<rscale>  0 0.16648108E+04</rscale>
<asrwt>0</asrwt>
<pdfrwt beam="1">  1        1 0.24511508E+00 0.16648108E+04</pdfrwt>
<pdfrwt beam="2">  1       -2 0.27673576E+00 0.16648108E+04</pdfrwt>
<totfact> 0.20182395E-01</totfact>
</mgrwt>
</event>
<event>
12    3  0.2269558E-007  0.6307284E+03  0.7818608E-02  0.9843628E-01
         -2   -1    0    0    0  501 -0.00000000000E+00  0.00000000000E+00  0.20017242345E+03  0.20017242345E+03  0.00000000000E+00 0.  1.
          1   -1    0    0  501    0  0.00000000000E+00 -0.00000000000E+00 -0.26405359559E+04  0.26405359559E+04  0.00000000000E+00 0. -1.
        -24    2    1    2    0    0  0.96860676438E+02 -0.51957512442E+03 -0.15712828753E+04  0.16596975729E+04  0.79535267421E+02 0.  0.
    5000000    2    1    2    0    0 -0.96860676438E+02  0.51957512442E+03 -0.86908065717E+03  0.11810108064E+04  0.60012085093E+03 0.  0.
        -24    2    4    4    0    0 -0.28250013548E+03  0.43067391408E+03 -0.78962633771E+03  0.94604343149E+03  0.78753249045E+02 0.  0.
         24    2    4    4    0    0  0.18563945905E+03  0.88901210344E+02 -0.79454319457E+02  0.23496737496E+03  0.80816115105E+02 0.  0.
         11    1    3    3    0    0  0.72075137139E+02 -0.30517867726E+03 -0.81575739752E+03  0.87395021715E+03  0.00000000000E+00 0. -1.
        -12    1    3    3    0    0  0.24785539298E+02 -0.21439644717E+03 -0.75552547778E+03  0.78574735576E+03  0.00000000000E+00 0.  1.
         11    1    5    5    0    0 -0.67151269685E+02  0.79136321116E+02 -0.21602602647E+03  0.23966454568E+03  0.00000000000E+00 0. -1.
        -12    1    5    5    0    0 -0.21534886580E+03  0.35153759296E+03 -0.57360031124E+03  0.70637888581E+03  0.00000000000E+00 0.  1.
          4    1    6    6  502    0  0.18670649701E+02 -0.10776162020E+02  0.62718512717E+01  0.22451168043E+02  0.00000000000E+00 0. -1.
         -3    1    6    6    0  502  0.16696880935E+03  0.99677372364E+02 -0.85726170729E+02  0.21251620692E+03  0.00000000000E+00 0.  1.
<mgrwt>
<rscale>  0 0.63072837E+03</rscale>
<asrwt>0</asrwt>
<pdfrwt beam="1">  1        1 0.40623629E+00 0.63072837E+03</pdfrwt>
<pdfrwt beam="2">  1       -2 0.30795759E-01 0.63072837E+03</pdfrwt>
<totfact> 0.99657107E+00</totfact>
</mgrwt>
</event>
<event>
12    3  0.2269558E-007  0.9451869E+03  0.7818608E-02  0.9370794E-01
         -2   -1    0    0    0  501 -0.00000000000E+00  0.00000000000E+00  0.40742375642E+03  0.40742375642E+03  0.00000000000E+00 0.  1.
          1   -1    0    0  501    0  0.00000000000E+00 -0.00000000000E+00 -0.24595368065E+04  0.24595368065E+04  0.00000000000E+00 0. -1.
        -24    2    1    2    0    0 -0.48898863205E+03  0.74560707287E+03 -0.11971878250E+04  0.14936590156E+04  0.52141894412E+02 0.  0.
    5000000    2    1    2    0    0  0.48898863205E+03 -0.74560707287E+03 -0.85492522510E+03  0.13733015474E+04  0.60001684148E+03 0.  0.
        -24    2    4    4    0    0 -0.81994427102E+02 -0.13806945276E+03 -0.35549771923E+03  0.39813542376E+03  0.79667605752E+02 0.  0.
         24    2    4    4    0    0  0.57098305915E+03 -0.60753762011E+03 -0.49942750587E+03  0.97516612360E+03  0.79984506706E+02 0.  0.
         11    1    5    5    0    0 -0.20190011459E+02 -0.68357647157E+02 -0.23649419211E+03  0.24700183681E+03  0.00000000000E+00 0. -1.
        -12    1    5    5    0    0 -0.61804415644E+02 -0.69711805606E+02 -0.11900352712E+03  0.15113358694E+03  0.00000000000E+00 0.  1.
         11    1    3    3    0    0 -0.10416443552E+03  0.13685528406E+03 -0.20371948263E+03  0.26661062620E+03  0.00000000000E+00 0. -1.
        -12    1    3    3    0    0 -0.38482419653E+03  0.60875178882E+03 -0.99346834238E+03  0.12270483894E+04  0.00000000000E+00 0.  1.
          4    1    6    6  502    0  0.46944697211E+03 -0.49638206894E+03 -0.44364590754E+03  0.81461482264E+03  0.00000000000E+00 0. -1.
         -3    1    6    6    0  502  0.10153608704E+03 -0.11115555117E+03 -0.55781598324E+02  0.16055130096E+03  0.00000000000E+00 0.  1.
<mgrwt>
<rscale>  0 0.94518685E+03</rscale>
<asrwt>0</asrwt>
<pdfrwt beam="1">  1        1 0.37839029E+00 0.94518685E+03</pdfrwt>
<pdfrwt beam="2">  1       -2 0.62680576E-01 0.94518685E+03</pdfrwt>
<totfact> 0.30633982E+00</totfact>
</mgrwt>
</event>
<event>
12    3  0.2269558E-007  0.7078431E+03  0.7818608E-02  0.9703913E-01
         -2   -1    0    0    0  501 -0.00000000000E+00  0.00000000000E+00  0.58407620350E+03  0.58407620350E+03  0.00000000000E+00 0.  1.
          1   -1    0    0  501    0  0.00000000000E+00 -0.00000000000E+00 -0.91794214426E+03  0.91794214426E+03  0.00000000000E+00 0. -1.
        -24    2    1    2    0    0 -0.59464032342E+03  0.66092232883E+02 -0.24406156681E+03  0.64991245448E+03  0.69676772339E+02 0.  0.
    5000000    2    1    2    0    0  0.59464032342E+03 -0.66092232883E+02 -0.89804373948E+02  0.85210589329E+03  0.60004527354E+03 0.  0.
        -24    2    4    4    0    0 -0.72459557592E+02 -0.95542422149E+02  0.67364478972E+02  0.16110610392E+03  0.83895540861E+02 0.  0.
         24    2    4    4    0    0  0.66709988102E+03  0.29450189266E+02 -0.15716885292E+03  0.69099978937E+03  0.83000576364E+02 0.  0.
         11    1    3    3    0    0 -0.42532900197E+03  0.42393485480E+02 -0.20725567687E+03  0.47503355999E+03  0.00000000000E+00 0. -1.
        -12    1    3    3    0    0 -0.16931132146E+03  0.23698747403E+02 -0.36805889939E+02  0.17487889449E+03  0.00000000000E+00 0.  1.
         13    1    5    5    0    0 -0.62307729676E+02 -0.14749484968E+02  0.38500990195E+02  0.74713631489E+02  0.00000000000E+00 0. -1.
        -14    1    5    5    0    0 -0.10151827916E+02 -0.80792937181E+02  0.28863488777E+02  0.86392472431E+02  0.00000000000E+00 0.  1.
          4    1    6    6  502    0  0.18725157003E+03  0.41645001684E+02 -0.62486703906E+02  0.20174747783E+03  0.00000000000E+00 0. -1.
         -3    1    6    6    0  502  0.47984831099E+03 -0.12194812418E+02 -0.94682149013E+02  0.48925231154E+03  0.00000000000E+00 0.  1.
<mgrwt>
<rscale>  0 0.70784308E+03</rscale>
<asrwt>0</asrwt>
<pdfrwt beam="1">  1        1 0.14122187E+00 0.70784308E+03</pdfrwt>
<pdfrwt beam="2">  1       -2 0.89857878E-01 0.70784308E+03</pdfrwt>
<totfact> 0.16801107E+01</totfact>
</mgrwt>
</event>
<event>
12    3  0.2501653E-007  0.1416605E+04  0.7818608E-02  0.8941886E-01
         -2   -1    0    0    0  501 -0.00000000000E+00  0.00000000000E+00  0.14241845830E+04  0.14241845830E+04  0.00000000000E+00 0.  1.
          1   -1    0    0  501    0  0.00000000000E+00 -0.00000000000E+00 -0.28960765009E+04  0.28960765009E+04  0.00000000000E+00 0. -1.
        -24    2    1    2    0    0 -0.53734547616E+02 -0.13698404788E+04  0.80795061822E+03  0.15932724439E+04  0.79890799858E+02 0.  0.
    5000000    2    1    2    0    0  0.53734547616E+02  0.13698404788E+04 -0.22798425361E+04  0.27269886401E+04  0.59952874403E+03 0.  0.
        -24    2    4    4    0    0  0.25581383989E+03  0.48675931760E+03 -0.11474045487E+04  0.12746212839E+04  0.75808080122E+02 0.  0.
         24    2    4    4    0    0 -0.20207929227E+03  0.88308116120E+03 -0.11324379874E+04  0.14523673562E+04  0.79289119600E+02 0.  0.
         11    1    3    3    0    0 -0.60864020582E+02 -0.70154585814E+03  0.38898006925E+03  0.80447281766E+03  0.00000000000E+00 0. -1.
        -12    1    3    3    0    0  0.71294729660E+01 -0.66829462066E+03  0.41897054897E+03  0.78879962620E+03  0.00000000000E+00 0.  1.
         11    1    5    5    0    0  0.13061251742E+03  0.19041085113E+03 -0.42096775951E+03  0.48013516481E+03  0.00000000000E+00 0. -1.
        -12    1    5    5    0    0  0.12520132247E+03  0.29634846647E+03 -0.72643678917E+03  0.79448611906E+03  0.00000000000E+00 0.  1.
          4    1    6    6  502    0 -0.12459507382E+03  0.66681390582E+03 -0.81155905963E+03  0.10577300339E+04  0.00000000000E+00 0. -1.
         -3    1    6    6    0  502 -0.77484218459E+02  0.21626725538E+03 -0.32087892775E+03  0.39463732227E+03  0.00000000000E+00 0.  1.
<mgrwt>
<rscale>  0 0.14166051E+04</rscale>
<asrwt>0</asrwt>
<pdfrwt beam="1">  1        1 0.44555023E+00 0.14166051E+04</pdfrwt>
<pdfrwt beam="2">  1       -2 0.21910532E+00 0.14166051E+04</pdfrwt>
<totfact> 0.59505938E-02</totfact>
</mgrwt>
</event>
<event>
12    3  0.2269558E-007  0.6207628E+03  0.7818608E-02  0.9863242E-01
          1   -1    0    0  501    0  0.00000000000E+00  0.00000000000E+00  0.39080234456E+03  0.39080234456E+03  0.00000000000E+00 0. -1.
         -2   -1    0    0    0  501 -0.00000000000E+00 -0.00000000000E+00 -0.13075622779E+04  0.13075622779E+04  0.00000000000E+00 0.  1.
        -24    2    1    2    0    0  0.47524848692E+03  0.13645091484E+03 -0.62900654366E+01  0.50113853358E+03  0.81365154946E+02 0.  0.
    5000000    2    1    2    0    0 -0.47524848692E+03 -0.13645091484E+03 -0.91046986785E+03  0.11972260888E+04  0.59992912168E+03 0.  0.
        -24    2    4    4    0    0  0.11846849116E+03  0.33873244527E+02 -0.22842497987E+03  0.27367730658E+03  0.86828086558E+02 0.  0.
         24    2    4    4    0    0 -0.59371697808E+03 -0.17032415936E+03 -0.68204488798E+03  0.92354878225E+03  0.79037678724E+02 0.  0.
         11    1    5    5    0    0  0.11083005740E+03  0.30702576896E+02 -0.23595693626E+03  0.26249119151E+03  0.00000000000E+00 0. -1.
        -12    1    5    5    0    0  0.76384337646E+01  0.31706676313E+01  0.75319563817E+01  0.11186115078E+02  0.00000000000E+00 0.  1.
         11    1    3    3    0    0  0.23455454891E+03  0.46471102047E+02 -0.38398708589E+02  0.24217733288E+03  0.00000000000E+00 0. -1.
        -12    1    3    3    0    0  0.24069393800E+03  0.89979812789E+02  0.32108643152E+02  0.25896120070E+03  0.00000000000E+00 0.  1.
          2    1    6    6  502    0 -0.20631748066E+03 -0.96641720050E+02 -0.26821184369E+03  0.35191493002E+03  0.00000000000E+00 0. -1.
         -1    1    6    6    0  502 -0.38739949742E+03 -0.73682439314E+02 -0.41383304429E+03  0.57163385223E+03  0.00000000000E+00 0.  1.
<mgrwt>
<rscale>  0 0.62076279E+03</rscale>
<asrwt>0</asrwt>
<pdfrwt beam="1">  1        1 0.60123437E-01 0.62076279E+03</pdfrwt>
<pdfrwt beam="2">  1       -2 0.20116343E+00 0.62076279E+03</pdfrwt>
<totfact> 0.73537171E+00</totfact>
</mgrwt>
</event>
<event>
12    3  0.2269558E-007  0.5130967E+03  0.7818608E-02  0.1010416E+00
         -2   -1    0    0    0  501 -0.00000000000E+00  0.00000000000E+00  0.50640018014E+03  0.50640018014E+03  0.00000000000E+00 0.  1.
          1   -1    0    0  501    0  0.00000000000E+00 -0.00000000000E+00 -0.66938006155E+03  0.66938006155E+03  0.00000000000E+00 0. -1.
        -24    2    1    2    0    0  0.19161820185E+03 -0.30434019272E+03 -0.28386412487E+03  0.46587655240E+03  0.84389765412E+02 0.  0.
    5000000    2    1    2    0    0 -0.19161820185E+03  0.30434019272E+03  0.12088424347E+03  0.70990368928E+03  0.60000813291E+03 0.  0.
        -24    2    4    4    0    0 -0.24728952624E+03  0.43304032287E+03  0.18188601592E+03  0.53656068103E+03  0.78350562305E+02 0.  0.
         24    2    4    4    0    0  0.55671324392E+02 -0.12870013015E+03 -0.61001772459E+02  0.17334300826E+03  0.81630646253E+02 0.  0.
         11    1    3    3    0    0  0.14873567889E+03 -0.15842614048E+03 -0.16929083121E+03  0.27546420764E+03  0.00000000000E+00 0. -1.
        -12    1    3    3    0    0  0.42882522966E+02 -0.14591405224E+03 -0.11457329366E+03  0.19041234476E+03  0.00000000000E+00 0.  1.
         11    1    5    5    0    0 -0.16847162395E+03  0.35387477132E+03  0.15636153109E+03  0.42197034286E+03  0.00000000000E+00 0. -1.
        -12    1    5    5    0    0 -0.78817902291E+02  0.79165551554E+02  0.25524484837E+02  0.11459033816E+03  0.00000000000E+00 0.  1.
          4    1    6    6  502    0  0.66654774512E+02 -0.12483956686E+03 -0.36400238071E+02  0.14612581480E+03  0.00000000000E+00 0. -1.
         -3    1    6    6    0  502 -0.10983450121E+02 -0.38605632929E+01 -0.24601534388E+02  0.27217193458E+02  0.00000000000E+00 0.  1.
<mgrwt>
<rscale>  0 0.51309675E+03</rscale>
<asrwt>0</asrwt>
<pdfrwt beam="1">  1        1 0.10298155E+00 0.51309675E+03</pdfrwt>
<pdfrwt beam="2">  1       -2 0.77907720E-01 0.51309675E+03</pdfrwt>
<totfact> 0.39038000E+01</totfact>
</mgrwt>
</event>
<event>
12    3  0.2269558E-007  0.1244334E+04  0.7818608E-02  0.9074913E-01
          1   -1    0    0  501    0  0.00000000000E+00  0.00000000000E+00  0.24857532988E+04  0.24857532988E+04  0.00000000000E+00 0. -1.
         -2   -1    0    0    0  501 -0.00000000000E+00 -0.00000000000E+00 -0.70158270092E+03  0.70158270092E+03  0.00000000000E+00 0.  1.
        -24    2    1    2    0    0 -0.27906067962E+03 -0.11422860661E+04  0.13625438781E+04  0.18015474635E+04  0.79719031028E+02 0.  0.
    5000000    2    1    2    0    0  0.27906067962E+03  0.11422860661E+04  0.42162671978E+03  0.13857885362E+04  0.59995704565E+03 0.  0.
        -24    2    4    4    0    0 -0.10585735227E+03  0.75420591143E+03  0.26938755830E+03  0.81274458800E+03  0.89172713823E+02 0.  0.
         24    2    4    4    0    0  0.38491803188E+03  0.38808015463E+03  0.15223916147E+03  0.57304394820E+03  0.80215376332E+02 0.  0.
         11    1    3    3    0    0 -0.21551098789E+03 -0.79010513332E+03  0.99244931695E+03  0.12867271484E+04  0.00000000000E+00 0. -1.
        -12    1    3    3    0    0 -0.63549691731E+02 -0.35218093274E+03  0.37009456117E+03  0.51482031517E+03  0.00000000000E+00 0.  1.
         13    1    5    5    0    0 -0.73996442381E+02  0.33005990783E+03  0.82571142544E+02  0.34818530960E+03  0.00000000000E+00 0. -1.
        -14    1    5    5    0    0 -0.31860909884E+02  0.42414600360E+03  0.18681641576E+03  0.46455927840E+03  0.00000000000E+00 0.  1.
          2    1    6    6  502    0  0.84113025077E+02  0.11095571240E+03  0.70066839591E+02  0.15587024447E+03  0.00000000000E+00 0. -1.
         -1    1    6    6    0  502  0.30080500681E+03  0.27712444224E+03  0.82172321884E+02  0.41717370373E+03  0.00000000000E+00 0.  1.
<mgrwt>
<rscale>  0 0.12443335E+04</rscale>
<asrwt>0</asrwt>
<pdfrwt beam="1">  1        1 0.38242358E+00 0.12443335E+04</pdfrwt>
<pdfrwt beam="2">  1       -2 0.10793580E+00 0.12443335E+04</pdfrwt>
<totfact> 0.81998399E-01</totfact>
</mgrwt>
</event>
<event>
12    3  0.2269558E-007  0.5771727E+03  0.7818608E-02  0.9953931E-01
         -2   -1    0    0    0  501 -0.00000000000E+00  0.00000000000E+00  0.11903617416E+03  0.11903617416E+03  0.00000000000E+00 0.  1.
          1   -1    0    0  501    0  0.00000000000E+00 -0.00000000000E+00 -0.33128209123E+04  0.33128209123E+04  0.00000000000E+00 0. -1.
        -24    2    1    2    0    0  0.23440307958E+03 -0.36514238380E+03 -0.67253376068E+03  0.80416575417E+03  0.78148171835E+02 0.  0.
    5000000    2    1    2    0    0 -0.23440307958E+03  0.36514238380E+03 -0.25212509775E+04  0.26276913323E+04  0.59981787426E+03 0.  0.
        -24    2    4    4    0    0 -0.19540277236E+03  0.51746685052E+03 -0.17835886357E+04  0.18691018714E+04  0.79994995149E+02 0.  0.
         24    2    4    4    0    0 -0.39000307213E+02 -0.15232446672E+03 -0.73766234174E+03  0.75858946092E+03  0.81169407254E+02 0.  0.
         11    1    3    3    0    0  0.26639019477E+02 -0.88117760664E+02 -0.10819819458E+03  0.14206064344E+03  0.00000000000E+00 0. -1.
        -12    1    3    3    0    0  0.20776406010E+03 -0.27702462313E+03 -0.56433556610E+03  0.66210511073E+03  0.00000000000E+00 0.  1.
         13    1    5    5    0    0 -0.59666801953E+01  0.39393874854E+02 -0.76676923757E+02  0.86410816946E+02  0.00000000000E+00 0. -1.
        -14    1    5    5    0    0 -0.18943609217E+03  0.47807297566E+03 -0.17069117120E+04  0.17826910544E+04  0.00000000000E+00 0.  1.
          4    1    6    6  502    0  0.46902600210E+01 -0.55586034747E+02 -0.41937858306E+03  0.42307233628E+03  0.00000000000E+00 0. -1.
         -3    1    6    6    0  502 -0.43690567234E+02 -0.96738431975E+02 -0.31828375868E+03  0.33551712464E+03  0.00000000000E+00 0.  1.
<mgrwt>
<rscale>  0 0.57717269E+03</rscale>
<asrwt>0</asrwt>
<pdfrwt beam="1">  1        1 0.50966479E+00 0.57717269E+03</pdfrwt>
<pdfrwt beam="2">  1       -2 0.18313256E-01 0.57717269E+03</pdfrwt>
<totfact> 0.84554258E+00</totfact>
</mgrwt>
</event>
<event>
12    3  0.2269558E-007  0.3548057E+03  0.7818608E-02  0.1060660E+00
          1   -1    0    0  501    0  0.00000000000E+00  0.00000000000E+00  0.18875296626E+04  0.18875296626E+04  0.00000000000E+00 0. -1.
         -2   -1    0    0    0  501 -0.00000000000E+00 -0.00000000000E+00 -0.11102718122E+03  0.11102718122E+03  0.00000000000E+00 0.  1.
        -24    2    1    2    0    0  0.16341936838E+03  0.42258927760E+01  0.86635520198E+02  0.19792118315E+03  0.70308841888E+02 0.  0.
    5000000    2    1    2    0    0 -0.16341936838E+03 -0.42258927760E+01  0.16898669612E+04  0.18006356607E+04  0.59992890235E+03 0.  0.
        -24    2    4    4    0    0  0.94651395522E+02 -0.18496515625E+03  0.30234964173E+03  0.37554754911E+03  0.80309775790E+02 0.  0.
         24    2    4    4    0    0 -0.25807076390E+03  0.18073926348E+03  0.13875173195E+04  0.14250881116E+04  0.80028828498E+02 0.  0.
         11    1    5    5    0    0  0.27203536608E+01 -0.88175824622E+02  0.10276965850E+03  0.13543994639E+03  0.00000000000E+00 0. -1.
        -12    1    5    5    0    0  0.91931041861E+02 -0.96789331632E+02  0.19957998323E+03  0.24010760271E+03  0.00000000000E+00 0.  1.
         13    1    3    3    0    0  0.48330061119E+02 -0.24516562470E+02  0.50087727897E+02  0.73794560294E+02  0.00000000000E+00 0. -1.
        -14    1    3    3    0    0  0.11508930726E+03  0.28742455246E+02  0.36547792301E+02  0.12412662285E+03  0.00000000000E+00 0.  1.
          4    1    6    6  502    0 -0.18447770471E+03  0.12722886303E+03  0.11289848999E+04  0.11510109085E+04  0.00000000000E+00 0. -1.
         -1    1    6    6    0  502 -0.73593059185E+02  0.53510400446E+02  0.25853241957E+03  0.27407720314E+03  0.00000000000E+00 0.  1.
<mgrwt>
<rscale>  0 0.35480570E+03</rscale>
<asrwt>0</asrwt>
<pdfrwt beam="1">  1        1 0.29038916E+00 0.35480570E+03</pdfrwt>
<pdfrwt beam="2">  1       -2 0.17081106E-01 0.35480570E+03</pdfrwt>
<totfact> 0.95214879E+01</totfact>
</mgrwt>
</event>
<event>
12    3  0.2269558E-007  0.7000768E+03  0.7818608E-02  0.9717101E-01
          1   -1    0    0  501    0  0.00000000000E+00  0.00000000000E+00  0.13879946106E+04  0.13879946106E+04  0.00000000000E+00 0. -1.
         -2   -1    0    0    0  501 -0.00000000000E+00 -0.00000000000E+00 -0.61947884768E+03  0.61947884768E+03  0.00000000000E+00 0.  1.
        -24    2    1    2    0    0  0.49345610290E+01  0.61364007862E+03 -0.25708138248E+03  0.67014881943E+03  0.80187947869E+02 0.  0.
    5000000    2    1    2    0    0 -0.49345610290E+01 -0.61364007862E+03  0.10255971454E+04  0.13373246388E+04  0.60000765747E+03 0.  0.
        -24    2    4    4    0    0  0.27557032935E+02 -0.68926865819E+03  0.67545407463E+03  0.96904832284E+03  0.83461199548E+02 0.  0.
         24    2    4    4    0    0 -0.32491593964E+02  0.75628579573E+02  0.35014307075E+03  0.36827631599E+03  0.79068888938E+02 0.  0.
         11    1    3    3    0    0 -0.33934148927E+02  0.41647373091E+03 -0.17802393381E+03  0.45419645090E+03  0.00000000000E+00 0. -1.
        -12    1    3    3    0    0  0.38868709956E+02  0.19716634771E+03 -0.79057448666E+02  0.21595236853E+03  0.00000000000E+00 0.  1.
         11    1    5    5    0    0  0.10794857655E+02 -0.52421079951E+03  0.46298030404E+03  0.69947426915E+03  0.00000000000E+00 0. -1.
        -12    1    5    5    0    0  0.16762175280E+02 -0.16505785868E+03  0.21247377059E+03  0.26957405369E+03  0.00000000000E+00 0.  1.
          4    1    6    6  502    0 -0.34745877796E+02  0.31424813210E+02  0.28912253358E+03  0.29289355461E+03  0.00000000000E+00 0. -1.
         -3    1    6    6    0  502  0.22542838317E+01  0.44203766363E+02  0.61020537163E+02  0.75382761371E+02  0.00000000000E+00 0.  1.
<mgrwt>
<rscale>  0 0.70007678E+03</rscale>
<asrwt>0</asrwt>
<pdfrwt beam="1">  1        1 0.21353763E+00 0.70007678E+03</pdfrwt>
<pdfrwt beam="2">  1       -2 0.95304438E-01 0.70007678E+03</pdfrwt>
<totfact> 0.66003997E+00</totfact>
</mgrwt>
</event>
<event>
12    3  0.2269558E-007  0.1411749E+04  0.7818608E-02  0.8945357E-01
         -2   -1    0    0    0  501 -0.00000000000E+00  0.00000000000E+00  0.13742873681E+04  0.13742873681E+04  0.00000000000E+00 0.  1.
          1   -1    0    0  501    0  0.00000000000E+00 -0.00000000000E+00 -0.22861931415E+04  0.22861931415E+04  0.00000000000E+00 0. -1.
        -24    2    1    2    0    0 -0.47048721788E+03  0.12660074859E+04 -0.15440461050E+04  0.20530441395E+04  0.82332786897E+02 0.  0.
    5000000    2    1    2    0    0  0.47048721788E+03 -0.12660074859E+04  0.63214033160E+03  0.16074363701E+04  0.60009758254E+03 0.  0.
        -24    2    4    4    0    0  0.59756343778E+03 -0.92794484793E+03  0.50196671588E+03  0.12150179011E+04  0.78321218360E+02 0.  0.
         24    2    4    4    0    0 -0.12707621990E+03 -0.33806263794E+03  0.13017361571E+03  0.39241846896E+03  0.81316491025E+02 0.  0.
         11    1    5    5    0    0  0.42335531039E+03 -0.69453173992E+03  0.33840273845E+03  0.88097699741E+03  0.00000000000E+00 0. -1.
        -12    1    5    5    0    0  0.17420812739E+03 -0.23341310802E+03  0.16356397744E+03  0.33404090372E+03  0.00000000000E+00 0.  1.
         13    1    3    3    0    0 -0.24613499550E+03  0.56821710972E+03 -0.66975369837E+03  0.91215302240E+03  0.00000000000E+00 0. -1.
        -14    1    3    3    0    0 -0.22435222238E+03  0.69779037615E+03 -0.87429240666E+03  0.11408911171E+04  0.00000000000E+00 0.  1.
          4    1    6    6  502    0 -0.10269652291E+03 -0.18446443428E+03  0.10157966245E+03  0.23429069797E+03  0.00000000000E+00 0. -1.
         -1    1    6    6    0  502 -0.24379696991E+02 -0.15359820367E+03  0.28593953268E+02  0.15812777099E+03  0.00000000000E+00 0.  1.
<mgrwt>
<rscale>  0 0.14117493E+04</rscale>
<asrwt>0</asrwt>
<pdfrwt beam="1">  1        1 0.35172202E+00 0.14117493E+04</pdfrwt>
<pdfrwt beam="2">  1       -2 0.21142883E+00 0.14117493E+04</pdfrwt>
<totfact> 0.17780892E-01</totfact>
</mgrwt>
</event>
<event>
12    3  0.2269558E-007  0.6544523E+03  0.7818608E-02  0.9798460E-01
         -2   -1    0    0    0  501 -0.00000000000E+00  0.00000000000E+00  0.58039535012E+03  0.58039535012E+03  0.00000000000E+00 0.  1.
          1   -1    0    0  501    0  0.00000000000E+00 -0.00000000000E+00 -0.84051404582E+03  0.84051404582E+03  0.00000000000E+00 0. -1.
        -24    2    1    2    0    0 -0.20282027108E+03 -0.52094941610E+03 -0.19754101887E+03  0.59840591403E+03  0.80887745113E+02 0.  0.
    5000000    2    1    2    0    0  0.20282027108E+03  0.52094941610E+03 -0.62577676838E+02  0.82250348191E+03  0.60005971004E+03 0.  0.
        -24    2    4    4    0    0  0.33455672556E+03  0.47798379152E+03 -0.18980592644E+03  0.61887751583E+03  0.81156529734E+02 0.  0.
         24    2    4    4    0    0 -0.13173645447E+03  0.42965624581E+02  0.12722824960E+03  0.20362596608E+03  0.77948497308E+02 0.  0.
         11    1    3    3    0    0 -0.44996487585E+02 -0.21481275228E+03 -0.59942894398E+02  0.22751341285E+03  0.00000000000E+00 0. -1.
        -12    1    3    3    0    0 -0.15782378350E+03 -0.30613666382E+03 -0.13759812447E+03  0.37089250118E+03  0.00000000000E+00 0.  1.
         13    1    5    5    0    0  0.17637690348E+03  0.18224523862E+03 -0.85764181892E+02  0.26772678980E+03  0.00000000000E+00 0. -1.
        -14    1    5    5    0    0  0.15817982208E+03  0.29573855290E+03 -0.10404174455E+03  0.35115072603E+03  0.00000000000E+00 0.  1.
          4    1    6    6  502    0 -0.10826378595E+03  0.14049320483E+01  0.10553160645E+03  0.15119504338E+03  0.00000000000E+00 0. -1.
         -3    1    6    6    0  502 -0.23472668522E+02  0.41560692532E+02  0.21696643155E+02  0.52430922703E+02  0.00000000000E+00 0.  1.
<mgrwt>
<rscale>  0 0.65445234E+03</rscale>
<asrwt>0</asrwt>
<pdfrwt beam="1">  1        1 0.12930985E+00 0.65445234E+03</pdfrwt>
<pdfrwt beam="2">  1       -2 0.89291593E-01 0.65445234E+03</pdfrwt>
<totfact> 0.19856381E+01</totfact>
</mgrwt>
</event>
<event>
12    3  0.2269558E-007  0.6155083E+03  0.7818608E-02  0.9873744E-01
         -4   -1    0    0    0  501 -0.00000000000E+00  0.00000000000E+00  0.75119158674E+03  0.75119158674E+03  0.00000000000E+00 0.  1.
          1   -1    0    0  501    0  0.00000000000E+00 -0.00000000000E+00 -0.60299306034E+03  0.60299306034E+03  0.00000000000E+00 0. -1.
        -24    2    1    2    0    0 -0.90246460053E+02  0.47200199497E+03 -0.17841501791E+03  0.51897919616E+03  0.81099818929E+02 0.  0.
    5000000    2    1    2    0    0  0.90246460053E+02 -0.47200199497E+03  0.32661354431E+03  0.83520545092E+03  0.59996785840E+03 0.  0.
        -24    2    4    4    0    0 -0.83615086665E+02  0.10246758268E+03  0.27205697079E+02  0.15743303841E+03  0.80956305567E+02 0.  0.
         24    2    4    4    0    0  0.17386154672E+03 -0.57446957765E+03  0.29940784723E+03  0.67777241251E+03  0.97402521043E+02 0.  0.
         13    1    3    3    0    0 -0.92888470800E+02  0.39637266694E+03 -0.17527368605E+03  0.44323856345E+03  0.00000000000E+00 0. -1.
        -14    1    3    3    0    0  0.26420107469E+01  0.75629328023E+02 -0.31413318589E+01  0.75740632714E+02  0.00000000000E+00 0.  1.
         13    1    5    5    0    0 -0.50588115401E+02  0.25808287694E+02 -0.21577389227E+02  0.60752027615E+02  0.00000000000E+00 0. -1.
        -14    1    5    5    0    0 -0.33026971264E+02  0.76659294987E+02  0.48783086306E+02  0.96681010795E+02  0.00000000000E+00 0.  1.
          4    1    6    6  502    0  0.96505264795E+02 -0.45863251679E+03  0.22597159166E+03  0.52030780489E+03  0.00000000000E+00 0. -1.
         -3    1    6    6    0  502  0.77356281923E+02 -0.11583706086E+03  0.73436255569E+02  0.15746460762E+03  0.00000000000E+00 0.  1.
<mgrwt>
<rscale>  0 0.61550829E+03</rscale>
<asrwt>0</asrwt>
<pdfrwt beam="1">  1        1 0.92768163E-01 0.61550829E+03</pdfrwt>
<pdfrwt beam="2">  1       -4 0.11556794E+00 0.61550829E+03</pdfrwt>
<totfact> 0.95945647E+00</totfact>
</mgrwt>
</event>
<event>
12    3  0.2269558E-007  0.9716275E+03  0.7818608E-02  0.9340223E-01
         -2   -1    0    0    0  501 -0.00000000000E+00  0.00000000000E+00  0.40168943946E+03  0.40168943946E+03  0.00000000000E+00 0.  1.
          1   -1    0    0  501    0  0.00000000000E+00 -0.00000000000E+00 -0.24027615082E+04  0.24027615082E+04  0.00000000000E+00 0. -1.
        -24    2    1    2    0    0  0.62557447554E+03  0.63016978819E+03 -0.96399795966E+03  0.13131286627E+04  0.80977973951E+02 0.  0.
    5000000    2    1    2    0    0 -0.62557447554E+03 -0.63016978819E+03 -0.10370741091E+04  0.14913222849E+04  0.60005171728E+03 0.  0.
        -24    2    4    4    0    0 -0.95529200861E+02  0.97948392074E+02 -0.23002430658E+03  0.27938146862E+03  0.80144292782E+02 0.  0.
         24    2    4    4    0    0 -0.53004527468E+03 -0.72811818026E+03 -0.80704980249E+03  0.12119408163E+04  0.79793990239E+02 0.  0.
         13    1    3    3    0    0  0.17912165229E+03  0.21496087016E+03 -0.26186237412E+03  0.38322923296E+03  0.00000000000E+00 0. -1.
        -14    1    3    3    0    0  0.44645282325E+03  0.41520891803E+03 -0.70213558554E+03  0.92989942977E+03  0.00000000000E+00 0.  1.
         13    1    5    5    0    0 -0.79347526693E+02  0.10582528464E+03 -0.16263821735E+03  0.20963351498E+03  0.00000000000E+00 0. -1.
        -14    1    5    5    0    0 -0.16181674168E+02 -0.78768925641E+01 -0.67386089234E+02  0.69747953644E+02  0.00000000000E+00 0.  1.
          2    1    6    6  502    0 -0.42306568539E+03 -0.62633136211E+03 -0.65778952625E+03  0.10019793462E+04  0.00000000000E+00 0. -1.
         -1    1    6    6    0  502 -0.10697958929E+03 -0.10178681815E+03 -0.14926027624E+03  0.20996147012E+03  0.00000000000E+00 0.  1.
<mgrwt>
<rscale>  0 0.97162747E+03</rscale>
<asrwt>0</asrwt>
<pdfrwt beam="1">  1        1 0.36965562E+00 0.97162747E+03</pdfrwt>
<pdfrwt beam="2">  1       -2 0.61798375E-01 0.97162747E+03</pdfrwt>
<totfact> 0.34401414E+00</totfact>
</mgrwt>
</event>
<event>
12    3  0.2269558E-007  0.7475707E+03  0.7818608E-02  0.9639169E-01
         -2   -1    0    0    0  501 -0.00000000000E+00  0.00000000000E+00  0.62907674194E+03  0.62907674194E+03  0.00000000000E+00 0.  1.
          1   -1    0    0  501    0  0.00000000000E+00 -0.00000000000E+00 -0.26384149723E+04  0.26384149723E+04  0.00000000000E+00 0. -1.
        -24    2    1    2    0    0 -0.45887734508E+03  0.44989763473E+03 -0.22618856678E+04  0.23527724805E+04  0.80220143991E+02 0.  0.
    5000000    2    1    2    0    0  0.45887734508E+03 -0.44989763473E+03  0.25254743739E+03  0.91471923373E+03  0.59996230621E+03 0.  0.
        -24    2    4    4    0    0  0.11246283740E+03  0.12235327163E+03  0.14067304843E+03  0.23179139326E+03  0.79499248811E+02 0.  0.
         24    2    4    4    0    0  0.34641450767E+03 -0.57225090635E+03  0.11187438896E+03  0.68292784047E+03  0.80002783889E+02 0.  0.
         11    1    3    3    0    0 -0.23840954097E+03  0.23842021482E+03 -0.13308660906E+04  0.13729121819E+04  0.00000000000E+00 0. -1.
        -12    1    3    3    0    0 -0.22046780411E+03  0.21147741991E+03 -0.93101957715E+03  0.97986029863E+03  0.00000000000E+00 0.  1.
         11    1    5    5    0    0  0.12033606071E+03  0.12488707037E+03  0.14099991818E+03  0.22351403710E+03  0.00000000000E+00 0. -1.
        -12    1    5    5    0    0 -0.78732233057E+01 -0.25337987412E+01 -0.32686974974E+00  0.82773561670E+01  0.00000000000E+00 0.  1.
          4    1    6    6  502    0  0.24255821320E+03 -0.35470088981E+03  0.10205745098E+03  0.44165929326E+03  0.00000000000E+00 0. -1.
         -3    1    6    6    0  502  0.10385629448E+03 -0.21755001655E+03  0.98169379826E+01  0.24126854721E+03  0.00000000000E+00 0.  1.
<mgrwt>
<rscale>  0 0.74757075E+03</rscale>
<asrwt>0</asrwt>
<pdfrwt beam="1">  1        1 0.40591000E+00 0.74757075E+03</pdfrwt>
<pdfrwt beam="2">  1       -2 0.96781036E-01 0.74757075E+03</pdfrwt>
<totfact> 0.90230920E-01</totfact>
</mgrwt>
</event>
<event>
12    3  0.2269558E-007  0.6565316E+03  0.7818608E-02  0.9794600E-01
         -2   -1    0    0    0  501 -0.00000000000E+00  0.00000000000E+00  0.65146941774E+03  0.65146941774E+03  0.00000000000E+00 0.  1.
          1   -1    0    0  501    0  0.00000000000E+00 -0.00000000000E+00 -0.77102319984E+03  0.77102319984E+03  0.00000000000E+00 0. -1.
        -24    2    1    2    0    0 -0.50271397686E+03  0.15713060536E+03 -0.28604249133E+03  0.60696182754E+03  0.95765252433E+02 0.  0.
    5000000    2    1    2    0    0  0.50271397686E+03 -0.15713060536E+03  0.16648870924E+03  0.81553079003E+03  0.59996717370E+03 0.  0.
        -24    2    4    4    0    0  0.62530453948E+03 -0.88349552865E+02  0.10715276878E+03  0.64376263536E+03  0.64321102688E+02 0.  0.
         24    2    4    4    0    0 -0.12259056262E+03 -0.68781052492E+02  0.59335940454E+02  0.17176815467E+03  0.78894016916E+02 0.  0.
         13    1    3    3    0    0 -0.24264840326E+03  0.69019035565E+02 -0.19089143614E+03  0.31635646867E+03  0.00000000000E+00 0. -1.
        -14    1    3    3    0    0 -0.26006557360E+03  0.88111569792E+02 -0.95151055195E+02  0.29060535887E+03  0.00000000000E+00 0.  1.
         13    1    5    5    0    0  0.79912498398E+02 -0.33068006873E+02  0.18757938107E+02  0.88494975681E+02  0.00000000000E+00 0. -1.
        -14    1    5    5    0    0  0.54539204108E+03 -0.55281545991E+02  0.88394830677E+02  0.55526765968E+03  0.00000000000E+00 0.  1.
          2    1    6    6  502    0 -0.91853514133E+02 -0.76840974638E+02  0.20350727393E+02  0.12147327092E+03  0.00000000000E+00 0. -1.
         -1    1    6    6    0  502 -0.30737048483E+02  0.80599221461E+01  0.38985213060E+02  0.50294883754E+02  0.00000000000E+00 0.  1.
<mgrwt>
<rscale>  0 0.65653163E+03</rscale>
<asrwt>0</asrwt>
<pdfrwt beam="1">  1        1 0.11861895E+00 0.65653163E+03</pdfrwt>
<pdfrwt beam="2">  1       -2 0.10022606E+00 0.65653163E+03</pdfrwt>
<totfact> 0.17402979E+01</totfact>
</mgrwt>
</event>
<event>
12    3  0.2269558E-007  0.6015290E+03  0.7818608E-02  0.9902239E-01
         -2   -1    0    0    0  501 -0.00000000000E+00  0.00000000000E+00  0.42327603334E+03  0.42327603334E+03  0.00000000000E+00 0.  1.
          1   -1    0    0  501    0  0.00000000000E+00 -0.00000000000E+00 -0.12736509675E+04  0.12736509675E+04  0.00000000000E+00 0. -1.
        -24    2    1    2    0    0 -0.37986619509E+03  0.31052533878E+03  0.60915754024E+02  0.50071024950E+03  0.79219395751E+02 0.  0.
    5000000    2    1    2    0    0  0.37986619509E+03 -0.31052533878E+03 -0.91129068822E+03  0.11962167514E+04  0.59979953787E+03 0.  0.
        -24    2    4    4    0    0  0.92849671904E+02  0.13692260865E+03 -0.45783925357E+03  0.49329332362E+03  0.79703567582E+02 0.  0.
         24    2    4    4    0    0  0.28701652319E+03 -0.44744794744E+03 -0.45345143466E+03  0.70292342776E+03  0.76778847687E+02 0.  0.
         13    1    3    3    0    0 -0.32437818334E+03  0.22508874857E+03  0.41461008944E+02  0.39699517103E+03  0.00000000000E+00 0. -1.
        -14    1    3    3    0    0 -0.55488011756E+02  0.85436590209E+02  0.19454745080E+02  0.10371507847E+03  0.00000000000E+00 0.  1.
         13    1    5    5    0    0  0.10316012365E+02  0.10110274599E+01 -0.20529552923E+01  0.10566783478E+02  0.00000000000E+00 0. -1.
        -14    1    5    5    0    0  0.82533659538E+02  0.13591158119E+03 -0.45578629827E+03  0.48272654014E+03  0.00000000000E+00 0.  1.
          4    1    6    6  502    0  0.44460827619E+02 -0.13055936622E+03 -0.11000597265E+03  0.17641946411E+03  0.00000000000E+00 0. -1.
         -3    1    6    6    0  502  0.24255569557E+03 -0.31688858122E+03 -0.34344546201E+03  0.52650396365E+03  0.00000000000E+00 0.  1.
<mgrwt>
<rscale>  0 0.60152900E+03</rscale>
<asrwt>0</asrwt>
<pdfrwt beam="1">  1        1 0.19594631E+00 0.60152900E+03</pdfrwt>
<pdfrwt beam="2">  1       -2 0.65119388E-01 0.60152900E+03</pdfrwt>
<totfact> 0.18875794E+01</totfact>
</mgrwt>
</event>
<event>
12    3  0.2269558E-007  0.1155060E+04  0.7818608E-02  0.9153129E-01
          1   -1    0    0  501    0  0.00000000000E+00  0.00000000000E+00  0.22578365527E+04  0.22578365527E+04  0.00000000000E+00 0. -1.
         -2   -1    0    0    0  501 -0.00000000000E+00 -0.00000000000E+00 -0.71075398537E+03  0.71075398537E+03  0.00000000000E+00 0.  1.
        -24    2    1    2    0    0 -0.67845204162E+03  0.85149161163E+03  0.15606814608E+03  0.11030390374E+04  0.83682223054E+02 0.  0.
    5000000    2    1    2    0    0  0.67845204162E+03 -0.85149161163E+03  0.13910144213E+04  0.18655515006E+04  0.60002178617E+03 0.  0.
        -24    2    4    4    0    0  0.53124811498E+03 -0.23765612568E+03  0.83190203850E+03  0.10184177056E+04  0.80053904387E+02 0.  0.
         24    2    4    4    0    0  0.14720392664E+03 -0.61383548595E+03  0.55911238278E+03  0.84713379507E+03  0.81030922193E+02 0.  0.
         11    1    3    3    0    0 -0.64303924017E+03  0.80214853458E+03  0.12760780974E+03  0.10359659690E+04  0.00000000000E+00 0. -1.
        -12    1    3    3    0    0 -0.35412801452E+02  0.49343077054E+02  0.28460336340E+02  0.67073068399E+02  0.00000000000E+00 0.  1.
         11    1    5    5    0    0  0.14705081235E+03 -0.35886586573E+02  0.17851871331E+03  0.23405281351E+03  0.00000000000E+00 0. -1.
        -12    1    5    5    0    0  0.38419730263E+03 -0.20176953911E+03  0.65338332519E+03  0.78436489206E+03  0.00000000000E+00 0.  1.
          4    1    6    6  502    0  0.48412860093E+02 -0.36593346005E+03  0.33990422349E+03  0.50178280496E+03  0.00000000000E+00 0. -1.
         -3    1    6    6    0  502  0.98791066548E+02 -0.24790202590E+03  0.21920815929E+03  0.34535099011E+03  0.00000000000E+00 0.  1.
<mgrwt>
<rscale>  0 0.11550595E+04</rscale>
<asrwt>0</asrwt>
<pdfrwt beam="1">  1        1 0.34735947E+00 0.11550595E+04</pdfrwt>
<pdfrwt beam="2">  1       -2 0.10934677E+00 0.11550595E+04</pdfrwt>
<totfact> 0.11502804E+00</totfact>
</mgrwt>
</event>
<event>
12    3  0.2269558E-007  0.6019254E+03  0.7818608E-02  0.9901419E-01
         -2   -1    0    0    0  501 -0.00000000000E+00  0.00000000000E+00  0.71733976462E+03  0.71733976462E+03  0.00000000000E+00 0.  1.
          1   -1    0    0  501    0  0.00000000000E+00 -0.00000000000E+00 -0.81873030403E+03  0.81873030403E+03  0.00000000000E+00 0. -1.
        -24    2    1    2    0    0  0.40022595520E+03  0.39235095798E+03 -0.36529773075E+03  0.67373481790E+03  0.79725048264E+02 0.  0.
    5000000    2    1    2    0    0 -0.40022595520E+03 -0.39235095798E+03  0.26390719134E+03  0.86233525075E+03  0.59987914583E+03 0.  0.
        -24    2    4    4    0    0 -0.17397068620E+02 -0.20813775169E+03  0.35631315211E+03  0.42047022023E+03  0.78817270021E+02 0.  0.
         24    2    4    4    0    0 -0.38282888658E+03 -0.18421320630E+03 -0.92405960773E+02  0.44186503053E+03  0.78825007716E+02 0.  0.
         11    1    5    5    0    0  0.93609887302E+01 -0.11780293421E+03  0.13197326770E+03  0.17714994442E+03  0.00000000000E+00 0. -1.
        -12    1    5    5    0    0 -0.26758057350E+02 -0.90334817472E+02  0.22433988441E+03  0.24332027581E+03  0.00000000000E+00 0.  1.
         11    1    3    3    0    0  0.33751192854E+03  0.35512898005E+03 -0.29204657290E+03  0.57037013870E+03  0.00000000000E+00 0. -1.
        -12    1    3    3    0    0  0.62714026664E+02  0.37221977936E+02 -0.73251157845E+02  0.10336467921E+03  0.00000000000E+00 0.  1.
          2    1    6    6  502    0 -0.25407555816E+02 -0.30055001651E+02 -0.25535571965E+02  0.46913883365E+02  0.00000000000E+00 0. -1.
         -1    1    6    6    0  502 -0.35742133076E+03 -0.15415820464E+03 -0.66870388808E+02  0.39495114716E+03  0.00000000000E+00 0.  1.
<mgrwt>
<rscale>  0 0.60192542E+03</rscale>
<asrwt>0</asrwt>
<pdfrwt beam="1">  1        1 0.12595851E+00 0.60192542E+03</pdfrwt>
<pdfrwt beam="2">  1       -2 0.11035996E+00 0.60192542E+03</pdfrwt>
<totfact> 0.12651727E+01</totfact>
</mgrwt>
</event>
<event>
12    3  0.2269558E-007  0.1374233E+04  0.7818608E-02  0.8972684E-01
         -2   -1    0    0    0  501 -0.00000000000E+00  0.00000000000E+00  0.23543432294E+04  0.23543432294E+04  0.00000000000E+00 0.  1.
          1   -1    0    0  501    0  0.00000000000E+00 -0.00000000000E+00 -0.24150389330E+04  0.24150389330E+04  0.00000000000E+00 0. -1.
        -24    2    1    2    0    0  0.11457463392E+04  0.72680151757E+03 -0.19439515271E+04  0.23719644510E+04  0.79326522587E+02 0.  0.
    5000000    2    1    2    0    0 -0.11457463392E+04 -0.72680151757E+03  0.18832558236E+04  0.23974177115E+04  0.59998672213E+03 0.  0.
        -24    2    4    4    0    0 -0.10483600250E+03 -0.14510367147E+03  0.65407475378E+03  0.68300863978E+03  0.81494512682E+02 0.  0.
         24    2    4    4    0    0 -0.10409103367E+04 -0.58169784610E+03  0.12291810698E+04  0.17144090717E+04  0.80284803608E+02 0.  0.
         11    1    3    3    0    0  0.27265910011E+03  0.21332404125E+03 -0.48539926769E+03  0.59620682696E+03  0.00000000000E+00 0. -1.
        -12    1    3    3    0    0  0.87308723906E+03  0.51347747631E+03 -0.14585522594E+04  0.17757576240E+04  0.00000000000E+00 0.  1.
         11    1    5    5    0    0 -0.47550968797E+02 -0.12682951769E+03  0.41809102023E+03  0.43948483750E+03  0.00000000000E+00 0. -1.
        -12    1    5    5    0    0 -0.57285033700E+02 -0.18274153779E+02  0.23598373354E+03  0.24352380229E+03  0.00000000000E+00 0.  1.
          4    1    6    6  502    0 -0.34981627862E+03 -0.22688560832E+03  0.46804023050E+03  0.62682546647E+03  0.00000000000E+00 0. -1.
         -3    1    6    6    0  502 -0.69109405805E+03 -0.35481223777E+03  0.76114083928E+03  0.10875836052E+04  0.00000000000E+00 0.  1.
<mgrwt>
<rscale>  0 0.13742332E+04</rscale>
<asrwt>0</asrwt>
<pdfrwt beam="1">  1        1 0.37154445E+00 0.13742332E+04</pdfrwt>
<pdfrwt beam="2">  1       -2 0.36220665E+00 0.13742332E+04</pdfrwt>
<totfact> 0.17011639E-02</totfact>
</mgrwt>
</event>
<event>
12    3  0.2269558E-007  0.1689681E+04  0.7818608E-02  0.8767272E-01
          1   -1    0    0  501    0  0.00000000000E+00  0.00000000000E+00  0.19909758697E+04  0.19909758697E+04  0.00000000000E+00 0. -1.
         -2   -1    0    0    0  501 -0.00000000000E+00 -0.00000000000E+00 -0.14677617436E+04  0.14677617436E+04  0.00000000000E+00 0.  1.
        -24    2    1    2    0    0 -0.65687139783E+03  0.15115488626E+04  0.41559944925E+03  0.17014988072E+04  0.78200328078E+02 0.  0.
    5000000    2    1    2    0    0  0.65687139783E+03 -0.15115488626E+04  0.10761467684E+03  0.17572388061E+04  0.60003942011E+03 0.  0.
        -24    2    4    4    0    0  0.63844359375E+02 -0.79131697082E+03 -0.80807547457E+02  0.80181393714E+03  0.78211760811E+02 0.  0.
         24    2    4    4    0    0  0.59302703845E+03 -0.72023189177E+03  0.18842222430E+03  0.95542486896E+03  0.83178719341E+02 0.  0.
         11    1    5    5    0    0  0.75838631028E+02 -0.46104920920E+03 -0.46660127518E+02  0.46956899254E+03  0.00000000000E+00 0. -1.
        -12    1    5    5    0    0 -0.11994271653E+02 -0.33026776163E+03 -0.34147419939E+02  0.33224494460E+03  0.00000000000E+00 0.  1.
         11    1    3    3    0    0 -0.47414326206E+03  0.10555767099E+04  0.32547514063E+03  0.12020765743E+04  0.00000000000E+00 0. -1.
        -12    1    3    3    0    0 -0.18272813577E+03  0.45597215272E+03  0.90124308627E+02  0.49942223285E+03  0.00000000000E+00 0.  1.
          2    1    6    6  502    0  0.13226882624E+03 -0.14614052337E+03  0.68034059847E+01  0.19722672562E+03  0.00000000000E+00 0. -1.
         -1    1    6    6    0  502  0.46075821222E+03 -0.57409136840E+03  0.18161881831E+03  0.75819814334E+03  0.00000000000E+00 0.  1.
<mgrwt>
<rscale>  0 0.16896812E+04</rscale>
<asrwt>0</asrwt>
<pdfrwt beam="1">  1        1 0.30630398E+00 0.16896812E+04</pdfrwt>
<pdfrwt beam="2">  1       -2 0.22580950E+00 0.16896812E+04</pdfrwt>
<totfact> 0.22202463E-01</totfact>
</mgrwt>
</event>
<event>
12    3  0.3279075E-007  0.1092284E+04  0.7818608E-02  0.9212746E-01
          1   -1    0    0  501    0  0.00000000000E+00  0.00000000000E+00  0.10388214534E+04  0.10388214534E+04  0.00000000000E+00 0. -1.
         -2   -1    0    0    0  501 -0.00000000000E+00 -0.00000000000E+00 -0.12633966528E+04  0.12633966528E+04  0.00000000000E+00 0.  1.
        -24    2    1    2    0    0  0.55798434503E+03  0.85950089940E+03 -0.39810043934E+03  0.11022057164E+04  0.79278976584E+02 0.  0.
    5000000    2    1    2    0    0 -0.55798434503E+03 -0.85950089940E+03  0.17352523993E+03  0.12000123897E+04  0.59985865108E+03 0.  0.
        -24    2    4    4    0    0 -0.39717795052E+03 -0.89286865340E+03  0.23460265689E+03  0.10082063492E+04  0.80479061119E+02 0.  0.
         24    2    4    4    0    0 -0.16080639451E+03  0.33367754008E+02 -0.61077416964E+02  0.19180604057E+03  0.78019246424E+02 0.  0.
         11    1    3    3    0    0  0.33342898674E+03  0.55457804977E+03 -0.28426229377E+03  0.70677914099E+03  0.00000000000E+00 0. -1.
        -12    1    3    3    0    0  0.22455535829E+03  0.30492284963E+03 -0.11383814558E+03  0.39542657542E+03  0.00000000000E+00 0.  1.
         13    1    5    5    0    0 -0.12072873037E+03 -0.34983197650E+03  0.65573949676E+02  0.37584276100E+03  0.00000000000E+00 0. -1.
        -14    1    5    5    0    0 -0.27644922015E+03 -0.54303667690E+03  0.16902870722E+03  0.63236358817E+03  0.00000000000E+00 0.  1.
          2    1    6    6  502    0 -0.11758525483E+03 -0.10146227363E+02 -0.54894246512E+02  0.13016380597E+03  0.00000000000E+00 0. -1.
         -1    1    6    6    0  502 -0.43221139677E+02  0.43513981371E+02 -0.61831704518E+01  0.61642234601E+02  0.00000000000E+00 0.  1.
<mgrwt>
<rscale>  0 0.10922835E+04</rscale>
<asrwt>0</asrwt>
<pdfrwt beam="1">  1        1 0.15981868E+00 0.10922835E+04</pdfrwt>
<pdfrwt beam="2">  1       -2 0.19436872E+00 0.10922835E+04</pdfrwt>
<totfact> 0.17686669E+00</totfact>
</mgrwt>
</event>
<event>
12    3  0.2269558E-007  0.1007075E+04  0.7818608E-02  0.9300818E-01
          1   -1    0    0  501    0  0.00000000000E+00  0.00000000000E+00  0.89918232605E+03  0.89918232605E+03  0.00000000000E+00 0. -1.
         -2   -1    0    0    0  501 -0.00000000000E+00 -0.00000000000E+00 -0.12557219147E+04  0.12557219147E+04  0.00000000000E+00 0.  1.
        -24    2    1    2    0    0 -0.73167841796E+02  0.93680004566E+03 -0.43300958379E+03  0.10374003682E+04  0.75857534787E+02 0.  0.
    5000000    2    1    2    0    0  0.73167841796E+02 -0.93680004566E+03  0.76469995149E+02  0.11175038726E+04  0.60001615514E+03 0.  0.
        -24    2    4    4    0    0  0.18447703821E+03 -0.93665113834E+02  0.13807431322E+03  0.26090349785E+03  0.78747622460E+02 0.  0.
         24    2    4    4    0    0 -0.11130919642E+03 -0.84313493183E+03 -0.61604318069E+02  0.85660037472E+03  0.81870992962E+02 0.  0.
         11    1    5    5    0    0  0.13145581786E+03 -0.23680854445E+02  0.83093042003E+02  0.15730819606E+03  0.00000000000E+00 0. -1.
        -12    1    5    5    0    0  0.53021220353E+02 -0.69984259389E+02  0.54981271215E+02  0.10359530180E+03  0.00000000000E+00 0.  1.
         13    1    3    3    0    0 -0.23202249287E+02  0.32494658898E+03 -0.19021867004E+03  0.37724232596E+03  0.00000000000E+00 0. -1.
        -14    1    3    3    0    0 -0.49965592509E+02  0.61185345668E+03 -0.24279091375E+03  0.66015804221E+03  0.00000000000E+00 0.  1.
          4    1    6    6  502    0 -0.10524482987E+03 -0.55358660738E+03 -0.62759830392E+02  0.56698624533E+03  0.00000000000E+00 0. -1.
         -3    1    6    6    0  502 -0.60643665516E+01 -0.28954832445E+03  0.11555123236E+01  0.28961412939E+03  0.00000000000E+00 0.  1.
<mgrwt>
<rscale>  0 0.10070755E+04</rscale>
<asrwt>0</asrwt>
<pdfrwt beam="1">  1        1 0.13833574E+00 0.10070755E+04</pdfrwt>
<pdfrwt beam="2">  1       -2 0.19318799E+00 0.10070755E+04</pdfrwt>
<totfact> 0.23470687E+00</totfact>
</mgrwt>
</event>
<event>
12    3  0.2269558E-007  0.8329104E+03  0.7818608E-02  0.9513566E-01
          3   -1    0    0  501    0  0.00000000000E+00  0.00000000000E+00  0.71520953617E+03  0.71520953617E+03  0.00000000000E+00 0. -1.
         -4   -1    0    0    0  501 -0.00000000000E+00 -0.00000000000E+00 -0.97920367753E+03  0.97920367753E+03  0.00000000000E+00 0.  1.
        -24    2    1    2    0    0 -0.29447076665E+03 -0.66492312868E+03 -0.11058301880E+03  0.73926339805E+03  0.73796803286E+02 0.  0.
    5000000    2    1    2    0    0  0.29447076665E+03  0.66492312868E+03 -0.15341112256E+03  0.95514981565E+03  0.59995032990E+03 0.  0.
        -24    2    4    4    0    0 -0.15130116062E+03  0.35451570661E+03 -0.54520531331E+02  0.39736325254E+03  0.79697168633E+02 0.  0.
         24    2    4    4    0    0  0.44577192727E+03  0.31040742207E+03 -0.98890591230E+02  0.55778656311E+03  0.79253530742E+02 0.  0.
         11    1    3    3    0    0 -0.25220146462E+03 -0.50908189274E+03 -0.67368844288E+02  0.57210883008E+03  0.00000000000E+00 0. -1.
        -12    1    3    3    0    0 -0.42269302034E+02 -0.15584123594E+03 -0.43214174510E+02  0.16715456797E+03  0.00000000000E+00 0.  1.
         13    1    5    5    0    0 -0.35224168505E+02  0.47684110233E+02 -0.34742268526E+02  0.68713474937E+02  0.00000000000E+00 0. -1.
        -14    1    5    5    0    0 -0.11607699212E+03  0.30683159638E+03 -0.19778262805E+02  0.32864977760E+03  0.00000000000E+00 0.  1.
          2    1    6    6  502    0  0.37193202267E+03  0.21990033521E+03 -0.81419270254E+02  0.43968020706E+03  0.00000000000E+00 0. -1.
         -1    1    6    6    0  502  0.73839904607E+02  0.90507086856E+02 -0.17471320976E+02  0.11810635605E+03  0.00000000000E+00 0.  1.
<mgrwt>
<rscale>  0 0.83291036E+03</rscale>
<asrwt>0</asrwt>
<pdfrwt beam="1">  1        3 0.11003224E+00 0.83291036E+03</pdfrwt>
<pdfrwt beam="2">  1       -4 0.15064672E+00 0.83291036E+03</pdfrwt>
<totfact> 0.46066949E-01</totfact>
</mgrwt>
</event>
<event>
12    3  0.2269558E-007  0.6167624E+03  0.7818608E-02  0.9871227E-01
         -2   -1    0    0    0  501 -0.00000000000E+00  0.00000000000E+00  0.10075227364E+04  0.10075227364E+04  0.00000000000E+00 0.  1.
          1   -1    0    0  501    0  0.00000000000E+00 -0.00000000000E+00 -0.45076122195E+03  0.45076122195E+03  0.00000000000E+00 0. -1.
        -24    2    1    2    0    0 -0.40056636580E+03  0.27438002832E+03  0.47182145158E+03  0.68184658856E+03  0.81002930944E+02 0.  0.
    5000000    2    1    2    0    0  0.40056636580E+03 -0.27438002832E+03  0.84940062887E+02  0.77643736980E+03  0.59991862914E+03 0.  0.
        -24    2    4    4    0    0  0.49260637212E+03 -0.34703463103E+03 -0.63778956477E+01  0.60824231879E+03  0.82607310961E+02 0.  0.
         24    2    4    4    0    0 -0.92040006327E+02  0.72654602715E+02  0.91317958535E+02  0.16819505101E+03  0.78743581149E+02 0.  0.
         11    1    3    3    0    0 -0.27236456217E+03  0.19834057050E+03  0.27473718347E+03  0.43474355270E+03  0.00000000000E+00 0. -1.
        -12    1    3    3    0    0 -0.12820180362E+03  0.76039457813E+02  0.19708426811E+03  0.24710303586E+03  0.00000000000E+00 0.  1.
         13    1    5    5    0    0  0.96471909909E+02 -0.10322085667E+03 -0.21124520840E+02  0.14285524154E+03  0.00000000000E+00 0. -1.
        -14    1    5    5    0    0  0.39613446221E+03 -0.24381377436E+03  0.14746625192E+02  0.46538707725E+03  0.00000000000E+00 0.  1.
          2    1    6    6  502    0 -0.50013750809E+02 -0.75235738586E+01  0.36416577859E+02  0.62322921759E+02  0.00000000000E+00 0. -1.
         -1    1    6    6    0  502 -0.42026255517E+02  0.80178176574E+02  0.54901380676E+02  0.10587212925E+03  0.00000000000E+00 0.  1.
<mgrwt>
<rscale>  0 0.61676244E+03</rscale>
<asrwt>0</asrwt>
<pdfrwt beam="1">  1        1 0.69347881E-01 0.61676244E+03</pdfrwt>
<pdfrwt beam="2">  1       -2 0.15500350E+00 0.61676244E+03</pdfrwt>
<totfact> 0.12678847E+01</totfact>
</mgrwt>
</event>
<event>
12    3  0.2269558E-007  0.2945804E+03  0.7818608E-02  0.1087982E+00
         -2   -1    0    0    0  501 -0.00000000000E+00  0.00000000000E+00  0.15705166560E+03  0.15705166560E+03  0.00000000000E+00 0.  1.
          1   -1    0    0  501    0  0.00000000000E+00 -0.00000000000E+00 -0.14400958686E+04  0.14400958686E+04  0.00000000000E+00 0. -1.
        -24    2    1    2    0    0  0.51402420549E+02  0.27203311463E+03 -0.44215609090E+03  0.52767124842E+03  0.79314017689E+02 0.  0.
    5000000    2    1    2    0    0 -0.51402420549E+02 -0.27203311463E+03 -0.84088811211E+03  0.10694762858E+04  0.60003540268E+03 0.  0.
        -24    2    4    4    0    0  0.28845705633E+02 -0.64011664421E+02  0.70580856703E+02  0.12747711826E+03  0.79619033094E+02 0.  0.
         24    2    4    4    0    0 -0.80248126182E+02 -0.20802145020E+03 -0.91146896881E+03  0.94199916752E+03  0.82909981339E+02 0.  0.
         11    1    3    3    0    0 -0.12996196423E+02  0.14465604603E+03 -0.22567124957E+03  0.26836874941E+03  0.00000000000E+00 0. -1.
        -12    1    3    3    0    0  0.64398616972E+02  0.12737706859E+03 -0.21648484133E+03  0.25930249902E+03  0.00000000000E+00 0.  1.
         13    1    5    5    0    0  0.10194451841E+02 -0.42873763604E+01  0.63560719498E+02  0.64515684198E+02  0.00000000000E+00 0. -1.
        -14    1    5    5    0    0  0.18651253792E+02 -0.59724288061E+02  0.70201372046E+01  0.62961434059E+02  0.00000000000E+00 0.  1.
          4    1    6    6  502    0 -0.89001265600E+01 -0.84101766768E+02 -0.48166719530E+03  0.48903538364E+03  0.00000000000E+00 0. -1.
         -3    1    6    6    0  502 -0.71347999622E+02 -0.12391968344E+03 -0.42980177351E+03  0.45296378388E+03  0.00000000000E+00 0.  1.
<mgrwt>
<rscale>  0 0.29458039E+03</rscale>
<asrwt>0</asrwt>
<pdfrwt beam="1">  1        1 0.22155321E+00 0.29458039E+03</pdfrwt>
<pdfrwt beam="2">  1       -2 0.24161795E-01 0.29458039E+03</pdfrwt>
<totfact> 0.10453873E+02</totfact>
</mgrwt>
</event>
<event>
12    3  0.2269558E-007  0.1566957E+04  0.7818608E-02  0.8841109E-01
         -2   -1    0    0    0  501 -0.00000000000E+00  0.00000000000E+00  0.15997633791E+04  0.15997633791E+04  0.00000000000E+00 0.  1.
          1   -1    0    0  501    0  0.00000000000E+00 -0.00000000000E+00 -0.23513669740E+04  0.23513669740E+04  0.00000000000E+00 0. -1.
        -24    2    1    2    0    0  0.15771447448E+03  0.15177006976E+04 -0.15068229553E+04  0.21459658465E+04  0.79779272948E+02 0.  0.
    5000000    2    1    2    0    0 -0.15771447448E+03 -0.15177006976E+04  0.75521936043E+03  0.18051645066E+04  0.59997779167E+03 0.  0.
        -24    2    4    4    0    0  0.18165748399E+03 -0.52645530800E+03  0.42035874791E+03  0.70232184865E+03  0.79999183351E+02 0.  0.
         24    2    4    4    0    0 -0.33937195847E+03 -0.99124538965E+03  0.33486061252E+03  0.11028426580E+04  0.79934659112E+02 0.  0.
         11    1    5    5    0    0  0.60791092948E+02 -0.22896364173E+03  0.22342130552E+03  0.32563320774E+03  0.00000000000E+00 0. -1.
        -12    1    5    5    0    0  0.12086639104E+03 -0.29749166627E+03  0.19693744239E+03  0.37668864092E+03  0.00000000000E+00 0.  1.
         13    1    3    3    0    0  0.75749573994E+02  0.39263499353E+03 -0.38801060434E+03  0.55718261386E+03  0.00000000000E+00 0. -1.
        -14    1    3    3    0    0  0.81964900482E+02  0.11250657041E+04 -0.11188123510E+04  0.15887832326E+04  0.00000000000E+00 0.  1.
          2    1    6    6  502    0 -0.10346618798E+03 -0.27027661426E+03  0.12879774683E+03  0.31677051608E+03  0.00000000000E+00 0. -1.
         -1    1    6    6    0  502 -0.23590577048E+03 -0.72096877539E+03  0.20606286569E+03  0.78607214189E+03  0.00000000000E+00 0.  1.
<mgrwt>
<rscale>  0 0.15669566E+04</rscale>
<asrwt>0</asrwt>
<pdfrwt beam="1">  1        1 0.36174876E+00 0.15669566E+04</pdfrwt>
<pdfrwt beam="2">  1       -2 0.24611744E+00 0.15669566E+04</pdfrwt>
<totfact> 0.95261585E-02</totfact>
</mgrwt>
</event>
<event>
12    3  0.2269558E-007  0.7700124E+03  0.7818608E-02  0.9604467E-01
         -2   -1    0    0    0  501 -0.00000000000E+00  0.00000000000E+00  0.74751775615E+03  0.74751775615E+03  0.00000000000E+00 0.  1.
          1   -1    0    0  501    0  0.00000000000E+00 -0.00000000000E+00 -0.11803000058E+04  0.11803000058E+04  0.00000000000E+00 0. -1.
        -24    2    1    2    0    0 -0.41218695656E+03 -0.64329993844E+03 -0.55853533728E+03  0.94826300582E+03  0.59229277029E+02 0.  0.
    5000000    2    1    2    0    0  0.41218695656E+03  0.64329993844E+03  0.12575308762E+03  0.97955475615E+03  0.59998398587E+03 0.  0.
        -24    2    4    4    0    0  0.25926489271E+03  0.36123948446E+03 -0.21877429448E+03  0.50192497296E+03  0.79713467031E+02 0.  0.
         24    2    4    4    0    0  0.15292206385E+03  0.28206045397E+03  0.34452738210E+03  0.47762978319E+03  0.80547100900E+02 0.  0.
         11    1    3    3    0    0 -0.13841499625E+03 -0.21779212728E+03 -0.22384444957E+03  0.34161156230E+03  0.00000000000E+00 0. -1.
        -12    1    3    3    0    0 -0.27377196031E+03 -0.42550781115E+03 -0.33469088771E+03  0.60665144352E+03  0.00000000000E+00 0.  1.
         11    1    5    5    0    0  0.19855451323E+03  0.32495210580E+03 -0.18982527860E+03  0.42550135392E+03  0.00000000000E+00 0. -1.
        -12    1    5    5    0    0  0.60710379484E+02  0.36287378660E+02 -0.28949015881E+02  0.76423619042E+02  0.00000000000E+00 0.  1.
          4    1    6    6  502    0  0.16561487598E+02  0.73012333124E+02  0.12255401056E+03  0.14361256618E+03  0.00000000000E+00 0. -1.
         -3    1    6    6    0  502  0.13636057625E+03  0.20904812085E+03  0.22197337154E+03  0.33401721701E+03  0.00000000000E+00 0.  1.
<mgrwt>
<rscale>  0 0.77001237E+03</rscale>
<asrwt>0</asrwt>
<pdfrwt beam="1">  1        1 0.18158462E+00 0.77001237E+03</pdfrwt>
<pdfrwt beam="2">  1       -2 0.11500273E+00 0.77001237E+03</pdfrwt>
<totfact> 0.58533246E+00</totfact>
</mgrwt>
</event>
<event>
12    3  0.2269558E-007  0.1117740E+04  0.7818608E-02  0.9188071E-01
          1   -1    0    0  501    0  0.00000000000E+00  0.00000000000E+00  0.21919244586E+04  0.21919244586E+04  0.00000000000E+00 0. -1.
         -2   -1    0    0    0  501 -0.00000000000E+00 -0.00000000000E+00 -0.74571832175E+03  0.74571832175E+03  0.00000000000E+00 0.  1.
        -24    2    1    2    0    0 -0.25112554103E+03  0.10720626686E+04  0.12512854546E+04  0.16686281431E+04  0.78880847765E+02 0.  0.
    5000000    2    1    2    0    0  0.25112554103E+03 -0.10720626686E+04  0.19492068224E+03  0.12690146373E+04  0.60001806191E+03 0.  0.
        -24    2    4    4    0    0  0.23592872465E+03 -0.51044094876E+03  0.36648723795E+03  0.67605203225E+03  0.80753510391E+02 0.  0.
         24    2    4    4    0    0  0.15196816381E+02 -0.56162171982E+03 -0.17156655571E+03  0.59296260506E+03  0.80744464595E+02 0.  0.
         11    1    5    5    0    0  0.18506458835E+03 -0.44830730473E+03  0.28963952499E+03  0.56490653720E+03  0.00000000000E+00 0. -1.
        -12    1    5    5    0    0  0.50864136298E+02 -0.62133644029E+02  0.76847712965E+02  0.11114549505E+03  0.00000000000E+00 0.  1.
         13    1    3    3    0    0 -0.17447403789E+03  0.86911371355E+03  0.98477531407E+03  0.13249838702E+04  0.00000000000E+00 0. -1.
        -14    1    3    3    0    0 -0.76651503137E+02  0.20294895503E+03  0.26651014056E+03  0.34364427290E+03  0.00000000000E+00 0.  1.
          2    1    6    6  502    0 -0.27443796543E+02 -0.33943729713E+03 -0.11859836382E+03  0.36060561913E+03  0.00000000000E+00 0. -1.
         -1    1    6    6    0  502  0.42640612924E+02 -0.22218442269E+03 -0.52968191887E+02  0.23235698593E+03  0.00000000000E+00 0.  1.
<mgrwt>
<rscale>  0 0.11177403E+04</rscale>
<asrwt>0</asrwt>
<pdfrwt beam="1">  1        1 0.33721914E+00 0.11177403E+04</pdfrwt>
<pdfrwt beam="2">  1       -2 0.11472590E+00 0.11177403E+04</pdfrwt>
<totfact> 0.11390961E+00</totfact>
</mgrwt>
</event>
<event>
12    3  0.2269558E-007  0.3227545E+03  0.7818608E-02  0.1074389E+00
         -2   -1    0    0    0  501 -0.00000000000E+00  0.00000000000E+00  0.99719784213E+02  0.99719784213E+02  0.00000000000E+00 0.  1.
          1   -1    0    0  501    0  0.00000000000E+00 -0.00000000000E+00 -0.14825217202E+04  0.14825217202E+04  0.00000000000E+00 0. -1.
        -24    2    1    2    0    0  0.67328730606E+02  0.97320695745E+02 -0.20016040492E+03  0.25087691244E+03  0.94183659476E+02 0.  0.
    5000000    2    1    2    0    0 -0.67328730606E+02 -0.97320695745E+02 -0.11826415311E+04  0.13313645920E+04  0.59990516749E+03 0.  0.
        -24    2    4    4    0    0 -0.43675298095E+02 -0.30174554651E+03 -0.98847584223E+03  0.10377410986E+04  0.82850410923E+02 0.  0.
         24    2    4    4    0    0 -0.23653432511E+02  0.20442485077E+03 -0.19416568888E+03  0.29362349339E+03  0.78520294528E+02 0.  0.
         13    1    3    3    0    0  0.12989933858E+02  0.36625260307E+02 -0.15057182846E+03  0.15550570279E+03  0.00000000000E+00 0. -1.
        -14    1    3    3    0    0  0.54338796748E+02  0.60695435438E+02 -0.49588576462E+02  0.95371209652E+02  0.00000000000E+00 0.  1.
         13    1    5    5    0    0 -0.35595416778E+02 -0.21695487853E+03 -0.57532916596E+03  0.61590591994E+03  0.00000000000E+00 0. -1.
        -14    1    5    5    0    0 -0.80798813169E+01 -0.84790667983E+02 -0.41314667627E+03  0.42183517868E+03  0.00000000000E+00 0.  1.
          4    1    6    6  502    0 -0.51071962968E+02  0.10131790446E+03 -0.10464992243E+03  0.15435436317E+03  0.00000000000E+00 0. -1.
         -3    1    6    6    0  502  0.27418530457E+02  0.10310694630E+03 -0.89515766448E+02  0.13926913022E+03  0.00000000000E+00 0.  1.
<mgrwt>
<rscale>  0 0.32275448E+03</rscale>
<asrwt>0</asrwt>
<pdfrwt beam="1">  1        1 0.22808027E+00 0.32275448E+03</pdfrwt>
<pdfrwt beam="2">  1       -2 0.15341505E-01 0.32275448E+03</pdfrwt>
<totfact> 0.21223377E+02</totfact>
</mgrwt>
</event>
<event>
12    3  0.2269558E-007  0.7044026E+03  0.7818608E-02  0.9709733E-01
         -2   -1    0    0    0  501 -0.00000000000E+00  0.00000000000E+00  0.68476310737E+03  0.68476310737E+03  0.00000000000E+00 0.  1.
          1   -1    0    0  501    0  0.00000000000E+00 -0.00000000000E+00 -0.15111990891E+04  0.15111990891E+04  0.00000000000E+00 0. -1.
        -24    2    1    2    0    0  0.21340263551E+03  0.54516932640E+03 -0.11535335417E+04  0.12960794681E+04  0.80200226896E+02 0.  0.
    5000000    2    1    2    0    0 -0.21340263551E+03 -0.54516932640E+03  0.32709755997E+03  0.89988272843E+03  0.60003819203E+03 0.  0.
        -24    2    4    4    0    0 -0.23629520481E+03  0.33976595213E+02  0.62891612178E+02  0.25818976578E+03  0.75609307846E+02 0.  0.
         24    2    4    4    0    0  0.22892569296E+02 -0.57914592162E+03  0.26420594779E+03  0.64169296265E+03  0.77659559717E+02 0.  0.
         11    1    5    5    0    0 -0.42505147285E+02  0.18954758767E+02 -0.14844365523E+02  0.48850031867E+02  0.00000000000E+00 0. -1.
        -12    1    5    5    0    0 -0.19379005752E+03  0.15021836446E+02  0.77735977702E+02  0.20933973391E+03  0.00000000000E+00 0.  1.
         13    1    3    3    0    0  0.10033836758E+03  0.29082445169E+03 -0.52172723916E+03  0.60567810080E+03  0.00000000000E+00 0. -1.
        -14    1    3    3    0    0  0.11306426793E+03  0.25434487471E+03 -0.63180630257E+03  0.69040136728E+03  0.00000000000E+00 0.  1.
          2    1    6    6  502    0  0.29614134568E+02 -0.16082612173E+03  0.10341133623E+03  0.19348370179E+03  0.00000000000E+00 0. -1.
         -1    1    6    6    0  502 -0.67215652726E+01 -0.41831979989E+03  0.16079461156E+03  0.44820926086E+03  0.00000000000E+00 0.  1.
<mgrwt>
<rscale>  0 0.70440255E+03</rscale>
<asrwt>0</asrwt>
<pdfrwt beam="1">  1        1 0.23249217E+00 0.70440255E+03</pdfrwt>
<pdfrwt beam="2">  1       -2 0.10534817E+00 0.70440255E+03</pdfrwt>
<totfact> 0.42796617E+00</totfact>
</mgrwt>
</event>
<event>
12    3  0.2269558E-007  0.8622238E+03  0.7818608E-02  0.9474076E-01
          1   -1    0    0  501    0  0.00000000000E+00  0.00000000000E+00  0.12443128111E+04  0.12443128111E+04  0.00000000000E+00 0. -1.
         -2   -1    0    0    0  501 -0.00000000000E+00 -0.00000000000E+00 -0.72649034628E+03  0.72649034628E+03  0.00000000000E+00 0.  1.
        -24    2    1    2    0    0  0.71736255125E+03 -0.26764459355E+03 -0.15865276955E+03  0.78587110253E+03  0.78613167570E+02 0.  0.
    5000000    2    1    2    0    0 -0.71736255125E+03  0.26764459355E+03  0.67647523436E+03  0.11849320548E+04  0.60016878750E+03 0.  0.
        -24    2    4    4    0    0 -0.57515733369E+03  0.44551292469E+03  0.49293445936E+03  0.88200951435E+03  0.75290621036E+02 0.  0.
         24    2    4    4    0    0 -0.14220521756E+03 -0.17786833114E+03  0.18354077500E+03  0.30292254049E+03  0.78837696070E+02 0.  0.
         11    1    3    3    0    0  0.36223655692E+03 -0.15011852222E+03 -0.11865671731E+03  0.40967097828E+03  0.00000000000E+00 0. -1.
        -12    1    3    3    0    0  0.35512599433E+03 -0.11752607133E+03 -0.39996052240E+02  0.37620012425E+03  0.00000000000E+00 0.  1.
         13    1    5    5    0    0 -0.10317704666E+03  0.10947474823E+03  0.78704480943E+02  0.16977814576E+03  0.00000000000E+00 0. -1.
        -14    1    5    5    0    0 -0.47198028703E+03  0.33603817646E+03  0.41422997841E+03  0.71223136859E+03  0.00000000000E+00 0.  1.
          4    1    6    6  502    0 -0.99459673280E+02 -0.13712714495E+03  0.17447038933E+03  0.24317894079E+03  0.00000000000E+00 0. -1.
         -3    1    6    6    0  502 -0.42745544281E+02 -0.40741186197E+02  0.90703856709E+01  0.59743599697E+02  0.00000000000E+00 0.  1.
<mgrwt>
<rscale>  0 0.86222376E+03</rscale>
<asrwt>0</asrwt>
<pdfrwt beam="1">  1        1 0.19143274E+00 0.86222376E+03</pdfrwt>
<pdfrwt beam="2">  1       -2 0.11176775E+00 0.86222376E+03</pdfrwt>
<totfact> 0.55751888E+00</totfact>
</mgrwt>
</event>
<event>
12    3  0.2269558E-007  0.1415942E+04  0.7818608E-02  0.8942359E-01
         -2   -1    0    0    0  501 -0.00000000000E+00  0.00000000000E+00  0.16278592586E+04  0.16278592586E+04  0.00000000000E+00 0.  1.
          1   -1    0    0  501    0  0.00000000000E+00 -0.00000000000E+00 -0.12687733380E+04  0.12687733380E+04  0.00000000000E+00 0. -1.
        -24    2    1    2    0    0  0.13587375605E+04  0.74683627584E+02 -0.14874035475E+02  0.13632313161E+04  0.80205872270E+02 0.  0.
    5000000    2    1    2    0    0 -0.13587375605E+04 -0.74683627584E+02  0.37395995602E+03  0.15334012805E+04  0.59977332039E+03 0.  0.
        -24    2    4    4    0    0 -0.13316638901E+04 -0.18167154420E+03  0.30521956089E+03  0.13805835093E+04  0.80737720055E+02 0.  0.
         24    2    4    4    0    0 -0.27073670324E+02  0.10698791662E+03  0.68740395129E+02  0.15281777122E+03  0.80303370737E+02 0.  0.
         11    1    3    3    0    0  0.58087701611E+03  0.42860205350E+02  0.31788375755E+02  0.58332290018E+03  0.00000000000E+00 0. -1.
        -12    1    3    3    0    0  0.77786054435E+03  0.31823422234E+02 -0.46662411230E+02  0.77990841596E+03  0.00000000000E+00 0.  1.
         11    1    5    5    0    0 -0.46007018316E+03 -0.99875905969E+02  0.11844045333E+03  0.48545639456E+03  0.00000000000E+00 0. -1.
        -12    1    5    5    0    0 -0.87159370697E+03 -0.81795638232E+02  0.18677910755E+03  0.89512711471E+03  0.00000000000E+00 0.  1.
          2    1    6    6  502    0 -0.45309282086E+02  0.83152581420E+02  0.21911733357E+02  0.97197772087E+02  0.00000000000E+00 0. -1.
         -1    1    6    6    0  502  0.18235611762E+02  0.23835335196E+02  0.46828661773E+02  0.55619999134E+02  0.00000000000E+00 0.  1.
<mgrwt>
<rscale>  0 0.14159419E+04</rscale>
<asrwt>0</asrwt>
<pdfrwt beam="1">  1        1 0.19519590E+00 0.14159419E+04</pdfrwt>
<pdfrwt beam="2">  1       -2 0.25043989E+00 0.14159419E+04</pdfrwt>
<totfact> 0.50806763E-01</totfact>
</mgrwt>
</event>
<event>
12    3  0.2269558E-007  0.7612883E+03  0.7818608E-02  0.9617805E-01
          1   -1    0    0  501    0  0.00000000000E+00  0.00000000000E+00  0.76027138921E+03  0.76027138921E+03  0.00000000000E+00 0. -1.
         -2   -1    0    0    0  501 -0.00000000000E+00 -0.00000000000E+00 -0.11120456796E+04  0.11120456796E+04  0.00000000000E+00 0.  1.
        -24    2    1    2    0    0  0.50799203855E+03 -0.48354410227E+03  0.27398500943E+03  0.75725762498E+03  0.80625772106E+02 0.  0.
    5000000    2    1    2    0    0 -0.50799203855E+03  0.48354410227E+03 -0.62575929981E+03  0.11150594438E+04  0.59992670543E+03 0.  0.
        -24    2    4    4    0    0 -0.97374437790E+02 -0.57328045668E+02 -0.35274342924E+03  0.37899752749E+03  0.80267758267E+02 0.  0.
         24    2    4    4    0    0 -0.41061760076E+03  0.54087214794E+03 -0.27301587056E+03  0.73606191633E+03  0.78102398301E+02 0.  0.
         11    1    5    5    0    0 -0.72571934993E+02 -0.77008764823E+02 -0.24959680398E+03  0.27110071960E+03  0.00000000000E+00 0. -1.
        -12    1    5    5    0    0 -0.24802502798E+02  0.19680719155E+02 -0.10314662526E+03  0.10789680789E+03  0.00000000000E+00 0.  1.
         13    1    3    3    0    0  0.23125117162E+03 -0.26249415718E+03  0.10811316547E+03  0.36615398875E+03  0.00000000000E+00 0. -1.
        -14    1    3    3    0    0  0.27674086693E+03 -0.22104994509E+03  0.16587184396E+03  0.39110363623E+03  0.00000000000E+00 0.  1.
          4    1    6    6  502    0 -0.24302174513E+03  0.27710720827E+03 -0.11648377041E+03  0.38654423065E+03  0.00000000000E+00 0. -1.
         -3    1    6    6    0  502 -0.16759585563E+03  0.26376493967E+03 -0.15653210015E+03  0.34951768568E+03  0.00000000000E+00 0.  1.
<mgrwt>
<rscale>  0 0.76128825E+03</rscale>
<asrwt>0</asrwt>
<pdfrwt beam="1">  1        1 0.11696483E+00 0.76128825E+03</pdfrwt>
<pdfrwt beam="2">  1       -2 0.17108395E+00 0.76128825E+03</pdfrwt>
<totfact> 0.44993688E+00</totfact>
</mgrwt>
</event>
<event>
12    3  0.2269558E-007  0.9985289E+03  0.7818608E-02  0.9310160E-01
          1   -1    0    0  501    0  0.00000000000E+00  0.00000000000E+00  0.19138236240E+04  0.19138236240E+04  0.00000000000E+00 0. -1.
         -2   -1    0    0    0  501 -0.00000000000E+00 -0.00000000000E+00 -0.88757089682E+03  0.88757089682E+03  0.00000000000E+00 0.  1.
        -24    2    1    2    0    0  0.89806448834E+03  0.35717898499E+03 -0.33624771264E+03  0.10264627949E+04  0.80415748267E+02 0.  0.
    5000000    2    1    2    0    0 -0.89806448834E+03 -0.35717898499E+03  0.13625004398E+04  0.17749317259E+04  0.59989876690E+03 0.  0.
        -24    2    4    4    0    0 -0.69800308093E+03 -0.40533898577E+03  0.13204086785E+04  0.15503380503E+04  0.92525658958E+02 0.  0.
         24    2    4    4    0    0 -0.20006140742E+03  0.48160000781E+02  0.42091761280E+02  0.22459367556E+03  0.79540243413E+02 0.  0.
         11    1    3    3    0    0  0.75464119532E+03  0.31608607097E+03 -0.25730785433E+03  0.85767188939E+03  0.00000000000E+00 0. -1.
        -12    1    3    3    0    0  0.14342329302E+03  0.41092914021E+02 -0.78939858312E+02  0.16879090554E+03  0.00000000000E+00 0.  1.
         13    1    5    5    0    0 -0.34056055799E+03 -0.15176670070E+03  0.56264513746E+03  0.67496975918E+03  0.00000000000E+00 0. -1.
        -14    1    5    5    0    0 -0.35744252294E+03 -0.25357228508E+03  0.75776354106E+03  0.87536829113E+03  0.00000000000E+00 0.  1.
          4    1    6    6  502    0 -0.22522146893E+02  0.33620991668E+02  0.19860071817E+02  0.45078161387E+02  0.00000000000E+00 0. -1.
         -3    1    6    6    0  502 -0.17753926053E+03  0.14539009113E+02  0.22231689462E+02  0.17951551418E+03  0.00000000000E+00 0.  1.
<mgrwt>
<rscale>  0 0.99852889E+03</rscale>
<asrwt>0</asrwt>
<pdfrwt beam="1">  1        1 0.29443440E+00 0.99852889E+03</pdfrwt>
<pdfrwt beam="2">  1       -2 0.13654937E+00 0.99852889E+03</pdfrwt>
<totfact> 0.11497355E+00</totfact>
</mgrwt>
</event>
<event>
12    3  0.2269558E-007  0.6362305E+03  0.7818608E-02  0.9832965E-01
         -2   -1    0    0    0  501 -0.00000000000E+00  0.00000000000E+00  0.47588762786E+03  0.47588762786E+03  0.00000000000E+00 0.  1.
          1   -1    0    0  501    0  0.00000000000E+00 -0.00000000000E+00 -0.12801427412E+04  0.12801427412E+04  0.00000000000E+00 0. -1.
        -24    2    1    2    0    0 -0.42666443971E+03  0.31741285510E+03  0.10094200938E+03  0.54683253512E+03  0.77737169466E+02 0.  0.
    5000000    2    1    2    0    0  0.42666443971E+03 -0.31741285510E+03 -0.90519712272E+03  0.12091978339E+04  0.59998675479E+03 0.  0.
        -24    2    4    4    0    0  0.22300960693E+03 -0.43462756849E+03 -0.79754367359E+03  0.93871515956E+03  0.80472550784E+02 0.  0.
         24    2    4    4    0    0  0.20365483278E+03  0.11721471338E+03 -0.10765344914E+03  0.27048267439E+03  0.79730998259E+02 0.  0.
         11    1    5    5    0    0  0.19171191783E+03 -0.37559310866E+03 -0.73397957180E+03  0.84649256023E+03  0.00000000000E+00 0. -1.
        -12    1    5    5    0    0  0.31297689099E+02 -0.59034459824E+02 -0.63564101792E+02  0.92222599325E+02  0.00000000000E+00 0.  1.
         13    1    3    3    0    0 -0.12875950300E+03  0.58417892399E+02  0.10002582681E+02  0.14174523423E+03  0.00000000000E+00 0. -1.
        -14    1    3    3    0    0 -0.29790493670E+03  0.25899496270E+03  0.90939426698E+02  0.40508730089E+03  0.00000000000E+00 0.  1.
          4    1    6    6  502    0  0.73928889909E+02  0.87825622328E+02 -0.56770293480E+02  0.12806907090E+03  0.00000000000E+00 0. -1.
         -3    1    6    6    0  502  0.12972594287E+03  0.29389091056E+02 -0.50883155655E+02  0.14241360348E+03  0.00000000000E+00 0.  1.
<mgrwt>
<rscale>  0 0.63623054E+03</rscale>
<asrwt>0</asrwt>
<pdfrwt beam="1">  1        1 0.19694503E+00 0.63623054E+03</pdfrwt>
<pdfrwt beam="2">  1       -2 0.73213483E-01 0.63623054E+03</pdfrwt>
<totfact> 0.14411608E+01</totfact>
</mgrwt>
</event>
<event>
12    3  0.2269558E-007  0.5169623E+03  0.7818608E-02  0.1009444E+00
          1   -1    0    0  501    0  0.00000000000E+00  0.00000000000E+00  0.53079641875E+03  0.53079641875E+03  0.00000000000E+00 0. -1.
         -2   -1    0    0    0  501 -0.00000000000E+00 -0.00000000000E+00 -0.66234607538E+03  0.66234607538E+03  0.00000000000E+00 0.  1.
        -24    2    1    2    0    0 -0.30130566289E+03 -0.17168411088E+03 -0.31615794285E+03  0.47597924418E+03  0.79623235583E+02 0.  0.
    5000000    2    1    2    0    0  0.30130566289E+03  0.17168411088E+03  0.18460828623E+03  0.71716324995E+03  0.59998530926E+03 0.  0.
        -24    2    4    4    0    0  0.46056184085E+03  0.19944532362E+03  0.17074128349E+03  0.53674718132E+03  0.83960135767E+02 0.  0.
         24    2    4    4    0    0 -0.15925617797E+03 -0.27761212741E+02  0.13867002735E+02  0.18041606864E+03  0.78895176686E+02 0.  0.
         11    1    3    3    0    0 -0.29960775551E+02 -0.94968480078E+01 -0.39542621966E+01  0.31677663791E+02  0.00000000000E+00 0. -1.
        -12    1    3    3    0    0 -0.27134488734E+03 -0.16218726287E+03 -0.31220368065E+03  0.44430158039E+03  0.00000000000E+00 0.  1.
         11    1    5    5    0    0  0.29820421759E+03  0.16538134009E+03  0.92425124858E+02  0.35329753288E+03  0.00000000000E+00 0. -1.
        -12    1    5    5    0    0  0.16235762327E+03  0.34063983528E+02  0.78316158633E+02  0.18344964843E+03  0.00000000000E+00 0.  1.
          2    1    6    6  502    0 -0.61949791225E+02  0.27282116614E+02 -0.55829919754E+00  0.67693442945E+02  0.00000000000E+00 0. -1.
         -1    1    6    6    0  502 -0.97306386741E+02 -0.55043329355E+02  0.14425301933E+02  0.11272262569E+03  0.00000000000E+00 0.  1.
<mgrwt>
<rscale>  0 0.51696231E+03</rscale>
<asrwt>0</asrwt>
<pdfrwt beam="1">  1        1 0.81660987E-01 0.51696231E+03</pdfrwt>
<pdfrwt beam="2">  1       -2 0.10189940E+00 0.51696231E+03</pdfrwt>
<totfact> 0.29337434E+01</totfact>
</mgrwt>
</event>
<event>
12    3  0.2269558E-007  0.5115220E+03  0.7818608E-02  0.1010814E+00
         -2   -1    0    0    0  501 -0.00000000000E+00  0.00000000000E+00  0.11291616085E+04  0.11291616085E+04  0.00000000000E+00 0.  1.
          1   -1    0    0  501    0  0.00000000000E+00 -0.00000000000E+00 -0.29843411384E+03  0.29843411384E+03  0.00000000000E+00 0. -1.
        -24    2    1    2    0    0  0.32692104931E+03  0.22362034437E+03  0.47961956485E+03  0.62710386870E+03  0.79629794972E+02 0.  0.
    5000000    2    1    2    0    0 -0.32692104931E+03 -0.22362034437E+03  0.35110792978E+03  0.80049185361E+03  0.60052227139E+03 0.  0.
        -24    2    4    4    0    0 -0.24740520588E+03 -0.37056348198E+03  0.40510031229E+03  0.60734957604E+03  0.78997559598E+02 0.  0.
         24    2    4    4    0    0 -0.79515843432E+02  0.14694313761E+03 -0.53992382501E+02  0.19314227757E+03  0.80459349796E+02 0.  0.
         11    1    3    3    0    0  0.81041456505E+02  0.46270205662E+02  0.66101844864E+02  0.11435953611E+03  0.00000000000E+00 0. -1.
        -12    1    3    3    0    0  0.24587959281E+03  0.17735013871E+03  0.41351771999E+03  0.51274433259E+03  0.00000000000E+00 0.  1.
         11    1    5    5    0    0 -0.95356912158E+02 -0.15323209393E+03  0.21667509623E+03  0.28199488051E+03  0.00000000000E+00 0. -1.
        -12    1    5    5    0    0 -0.15204829372E+03 -0.21733138805E+03  0.18842521605E+03  0.32535469553E+03  0.00000000000E+00 0.  1.
          2    1    6    6  502    0 -0.17836944852E+01  0.74693546406E+02 -0.43611865491E+02  0.86511861917E+02  0.00000000000E+00 0. -1.
         -1    1    6    6    0  502 -0.77732148947E+02  0.72249591205E+02 -0.10380517010E+02  0.10663041565E+03  0.00000000000E+00 0.  1.
<mgrwt>
<rscale>  0 0.51152202E+03</rscale>
<asrwt>0</asrwt>
<pdfrwt beam="1">  1        1 0.45912941E-01 0.51152202E+03</pdfrwt>
<pdfrwt beam="2">  1       -2 0.17371717E+00 0.51152202E+03</pdfrwt>
<totfact> 0.16147647E+01</totfact>
</mgrwt>
</event>
<event>
12    3  0.2269558E-007  0.4083668E+03  0.7818608E-02  0.1040920E+00
          1   -1    0    0  501    0  0.00000000000E+00  0.00000000000E+00  0.76361033537E+03  0.76361033537E+03  0.00000000000E+00 0. -1.
         -2   -1    0    0    0  501 -0.00000000000E+00 -0.00000000000E+00 -0.26384577639E+03  0.26384577639E+03  0.00000000000E+00 0.  1.
        -24    2    1    2    0    0  0.23208429131E+02 -0.19794536222E+03 -0.11124654330E+02  0.21496571366E+03  0.79784099358E+02 0.  0.
    5000000    2    1    2    0    0 -0.23208429131E+02  0.19794536222E+03  0.51088921331E+03  0.81249039810E+03  0.59950968392E+03 0.  0.
        -24    2    4    4    0    0 -0.94106597329E+02  0.39106382705E+03  0.35038028714E+03  0.53948367970E+03  0.80556356453E+02 0.  0.
         24    2    4    4    0    0  0.70898168198E+02 -0.19311846483E+03  0.16050892617E+03  0.27300671840E+03  0.80301065961E+02 0.  0.
         11    1    5    5    0    0 -0.10196062223E+03  0.30117772172E+03  0.24974705731E+03  0.40432360948E+03  0.00000000000E+00 0. -1.
        -12    1    5    5    0    0  0.78540248966E+01  0.89886105329E+02  0.10063322983E+03  0.13516007023E+03  0.00000000000E+00 0.  1.
         11    1    3    3    0    0  0.23552216053E+02 -0.68518041807E+02 -0.39417935792E+02  0.82481528818E+02  0.00000000000E+00 0. -1.
        -12    1    3    3    0    0 -0.34378692190E+00 -0.12942732041E+03  0.28293281462E+02  0.13248418485E+03  0.00000000000E+00 0.  1.
          2    1    6    6  502    0  0.61859695490E+02 -0.18256632201E+03  0.11285393473E+03  0.22336762174E+03  0.00000000000E+00 0. -1.
         -1    1    6    6    0  502  0.90384727081E+01 -0.10552142825E+02  0.47654991449E+02  0.49639096659E+02  0.00000000000E+00 0.  1.
<mgrwt>
<rscale>  0 0.40836676E+03</rscale>
<asrwt>0</asrwt>
<pdfrwt beam="1">  1        1 0.11747851E+00 0.40836676E+03</pdfrwt>
<pdfrwt beam="2">  1       -2 0.40591658E-01 0.40836676E+03</pdfrwt>
<totfact> 0.12516299E+02</totfact>
</mgrwt>
</event>
<event>
12    3  0.2269558E-007  0.7830537E+03  0.7818608E-02  0.9584875E-01
          1   -1    0    0  501    0  0.00000000000E+00  0.00000000000E+00  0.25894129838E+04  0.25894129838E+04  0.00000000000E+00 0. -1.
         -2   -1    0    0    0  501 -0.00000000000E+00 -0.00000000000E+00 -0.24085459256E+03  0.24085459256E+03  0.00000000000E+00 0.  1.
        -24    2    1    2    0    0  0.65510170142E+03 -0.14799586165E+03  0.10856223293E+04  0.12790884302E+04  0.80189501814E+02 0.  0.
    5000000    2    1    2    0    0 -0.65510170142E+03  0.14799586165E+03  0.12629360619E+04  0.15511791461E+04  0.60007352261E+03 0.  0.
        -24    2    4    4    0    0 -0.12570054530E+03  0.30459113122E+03  0.54867068215E+03  0.64493935382E+03  0.79566754111E+02 0.  0.
         24    2    4    4    0    0 -0.52940115613E+03 -0.15659526957E+03  0.71426537975E+03  0.90623979226E+03  0.79422073814E+02 0.  0.
         11    1    3    3    0    0  0.89938855521E+02  0.74029573679E+01  0.14487434294E+03  0.17068209265E+03  0.00000000000E+00 0. -1.
        -12    1    3    3    0    0  0.56516284590E+03 -0.15539881902E+03  0.94074798638E+03  0.11084063376E+04  0.00000000000E+00 0.  1.
         11    1    5    5    0    0  0.52424609732E+01  0.45464339221E+02  0.49036339743E+02  0.67074974120E+02  0.00000000000E+00 0. -1.
        -12    1    5    5    0    0 -0.13094300627E+03  0.25912679200E+03  0.49963434240E+03  0.57786437970E+03  0.00000000000E+00 0.  1.
          4    1    6    6  502    0 -0.20643196482E+03 -0.82240023191E+02  0.34170506178E+03  0.40760265794E+03  0.00000000000E+00 0. -1.
         -3    1    6    6    0  502 -0.32296919131E+03 -0.74355246375E+02  0.37256031797E+03  0.49863713432E+03  0.00000000000E+00 0.  1.
<mgrwt>
<rscale>  0 0.78305368E+03</rscale>
<asrwt>0</asrwt>
<pdfrwt beam="1">  1        1 0.39837121E+00 0.78305368E+03</pdfrwt>
<pdfrwt beam="2">  1       -2 0.37054554E-01 0.78305368E+03</pdfrwt>
<totfact> 0.74181031E+00</totfact>
</mgrwt>
</event>
<event>
12    3  0.2269558E-007  0.6904766E+03  0.7818608E-02  0.9733658E-01
          1   -1    0    0  501    0  0.00000000000E+00  0.00000000000E+00  0.18921405857E+04  0.18921405857E+04  0.00000000000E+00 0. -1.
         -2   -1    0    0    0  501 -0.00000000000E+00 -0.00000000000E+00 -0.26492971577E+03  0.26492971577E+03  0.00000000000E+00 0.  1.
        -24    2    1    2    0    0 -0.20073337553E+03 -0.52941989071E+03  0.49596541983E+03  0.75709022893E+03  0.81391696943E+02 0.  0.
    5000000    2    1    2    0    0  0.20073337553E+03  0.52941989071E+03  0.11312454501E+04  0.13999800725E+04  0.59970711720E+03 0.  0.
        -24    2    4    4    0    0  0.29609592798E+02 -0.12088234396E+03  0.20756942814E+03  0.25463160997E+03  0.79138614048E+02 0.  0.
         24    2    4    4    0    0  0.17112378273E+03  0.65030223468E+03  0.92367602192E+03  0.11453484625E+04  0.80432342510E+02 0.  0.
         11    1    3    3    0    0 -0.59529202237E+02 -0.26735861144E+03  0.22303052848E+03  0.35322368220E+03  0.00000000000E+00 0. -1.
        -12    1    3    3    0    0 -0.14120417330E+03 -0.26206127927E+03  0.27293489135E+03  0.40386654673E+03  0.00000000000E+00 0.  1.
         13    1    5    5    0    0 -0.69951375672E+01 -0.84413821333E+02  0.78026944437E+02  0.11516435751E+03  0.00000000000E+00 0. -1.
        -14    1    5    5    0    0  0.36604730366E+02 -0.36468522630E+02  0.12954248370E+03  0.13946725247E+03  0.00000000000E+00 0.  1.
          4    1    6    6  502    0  0.43322418132E+02  0.21474997163E+03  0.24266387884E+03  0.32692528248E+03  0.00000000000E+00 0. -1.
         -3    1    6    6    0  502  0.12780136460E+03  0.43555226305E+03  0.68101214308E+03  0.81842318006E+03  0.00000000000E+00 0.  1.
<mgrwt>
<rscale>  0 0.69047660E+03</rscale>
<asrwt>0</asrwt>
<pdfrwt beam="1">  1        1 0.29109854E+00 0.69047660E+03</pdfrwt>
<pdfrwt beam="2">  1       -2 0.40758419E-01 0.69047660E+03</pdfrwt>
<totfact> 0.18452796E+01</totfact>
</mgrwt>
</event>
<event>
12    3  0.2269558E-007  0.4364486E+03  0.7818608E-02  0.1031842E+00
          1   -1    0    0  501    0  0.00000000000E+00  0.00000000000E+00  0.83692135564E+03  0.83692135564E+03  0.00000000000E+00 0. -1.
         -2   -1    0    0    0  501 -0.00000000000E+00 -0.00000000000E+00 -0.40463952372E+03  0.40463952372E+03  0.00000000000E+00 0.  1.
        -24    2    1    2    0    0  0.19930037477E+02  0.33456452743E+03 -0.11508513138E+03  0.36301718495E+03  0.78779817811E+02 0.  0.
    5000000    2    1    2    0    0 -0.19930037477E+02 -0.33456452743E+03  0.54736696330E+03  0.87854369441E+03  0.59991482818E+03 0.  0.
        -24    2    4    4    0    0  0.18794956842E+03 -0.12659226888E+03  0.51956929705E+03  0.57245084599E+03  0.79981709358E+02 0.  0.
         24    2    4    4    0    0 -0.20787960590E+03 -0.20797225855E+03  0.27797666254E+02  0.30609284842E+03  0.80335115168E+02 0.  0.
         11    1    5    5    0    0  0.97949232553E+02 -0.10421056539E+03  0.25890532484E+03  0.29578008947E+03  0.00000000000E+00 0. -1.
        -12    1    5    5    0    0  0.90000335871E+02 -0.22381703492E+02  0.26066397220E+03  0.27667075652E+03  0.00000000000E+00 0.  1.
         13    1    3    3    0    0  0.18991324439E+02  0.10160243581E+03 -0.72345950166E+02  0.12616521657E+03  0.00000000000E+00 0. -1.
        -14    1    3    3    0    0  0.93871303759E+00  0.23296209162E+03 -0.42739181216E+02  0.23685196838E+03  0.00000000000E+00 0.  1.
          2    1    6    6  502    0 -0.89961517387E+01 -0.38437342859E+02  0.20895709500E+02  0.44665319295E+02  0.00000000000E+00 0. -1.
         -1    1    6    6    0  502 -0.19888345416E+03 -0.16953491569E+03  0.69019567538E+01  0.26142752913E+03  0.00000000000E+00 0.  1.
<mgrwt>
<rscale>  0 0.43644863E+03</rscale>
<asrwt>0</asrwt>
<pdfrwt beam="1">  1        1 0.12875713E+00 0.43644863E+03</pdfrwt>
<pdfrwt beam="2">  1       -2 0.62252235E-01 0.43644863E+03</pdfrwt>
<totfact> 0.45516486E+01</totfact>
</mgrwt>
</event>
<event>
12    3  0.2269558E-007  0.4902027E+03  0.7818608E-02  0.1016368E+00
          1   -1    0    0  501    0  0.00000000000E+00  0.00000000000E+00  0.99217449808E+03  0.99217449808E+03  0.00000000000E+00 0. -1.
         -2   -1    0    0    0  501 -0.00000000000E+00 -0.00000000000E+00 -0.46139672204E+03  0.46139672204E+03  0.00000000000E+00 0.  1.
        -24    2    1    2    0    0  0.31111272605E+03 -0.18725112281E+03 -0.21491381784E+03  0.42984617448E+03  0.82010202457E+02 0.  0.
    5000000    2    1    2    0    0 -0.31111272605E+03  0.18725112281E+03  0.74569159389E+03  0.10237250456E+04  0.60008574768E+03 0.  0.
        -24    2    4    4    0    0 -0.34596717866E+03 -0.62931769176E+02  0.18904938693E+03  0.40719112596E+03  0.80070257116E+02 0.  0.
         24    2    4    4    0    0  0.34854452612E+02  0.25018289199E+03  0.55664220696E+03  0.61653391968E+03  0.80356799586E+02 0.  0.
         11    1    3    3    0    0  0.11826518239E+03 -0.83455935529E+02 -0.13128669112E+03  0.19541684116E+03  0.00000000000E+00 0. -1.
        -12    1    3    3    0    0  0.19284754366E+03 -0.10379518729E+03 -0.83627126723E+02  0.23442933332E+03  0.00000000000E+00 0.  1.
         13    1    5    5    0    0 -0.98405476877E+02 -0.17872339646E+02  0.14764904936E+02  0.10109926222E+03  0.00000000000E+00 0. -1.
        -14    1    5    5    0    0 -0.24756170179E+03 -0.45059429529E+02  0.17428448199E+03  0.30609186373E+03  0.00000000000E+00 0.  1.
          2    1    6    6  502    0 -0.17138645730E+02  0.15996997296E+03  0.34452153264E+03  0.38023573199E+03  0.00000000000E+00 0. -1.
         -1    1    6    6    0  502  0.51993098342E+02  0.90212919026E+02  0.21212067432E+03  0.23629818770E+03  0.00000000000E+00 0.  1.
<mgrwt>
<rscale>  0 0.49020272E+03</rscale>
<asrwt>0</asrwt>
<pdfrwt beam="1">  1        1 0.15264223E+00 0.49020272E+03</pdfrwt>
<pdfrwt beam="2">  1       -2 0.70984112E-01 0.49020272E+03</pdfrwt>
<totfact> 0.25628539E+01</totfact>
</mgrwt>
</event>
<event>
12    3  0.2269558E-007  0.1126262E+04  0.7818608E-02  0.9179966E-01
          1   -1    0    0  501    0  0.00000000000E+00  0.00000000000E+00  0.10942396608E+04  0.10942396608E+04  0.00000000000E+00 0. -1.
         -2   -1    0    0    0  501 -0.00000000000E+00 -0.00000000000E+00 -0.13589640547E+04  0.13589640547E+04  0.00000000000E+00 0.  1.
        -24    2    1    2    0    0 -0.56686107576E+02  0.10649478587E+04  0.29218899679E+03  0.11086324308E+04  0.79775937510E+02 0.  0.
    5000000    2    1    2    0    0  0.56686107576E+02 -0.10649478587E+04 -0.55691339075E+03  0.13445712847E+04  0.60032670962E+03 0.  0.
        -24    2    4    4    0    0  0.28026289421E+03 -0.59479387650E+03 -0.15044946620E+03  0.67915212444E+03  0.79281276816E+02 0.  0.
         24    2    4    4    0    0 -0.22357678663E+03 -0.47015398221E+03 -0.40646392455E+03  0.66541916027E+03  0.80860314003E+02 0.  0.
         11    1    3    3    0    0  0.13676499435E+02  0.39097103595E+03  0.89322010204E+02  0.40127773312E+03  0.00000000000E+00 0. -1.
        -12    1    3    3    0    0 -0.70362607011E+02  0.67397682276E+03  0.20286698658E+03  0.70735469768E+03  0.00000000000E+00 0.  1.
         13    1    5    5    0    0  0.51905885501E+02 -0.97435722303E+02  0.40884611610E+01  0.11047468690E+03  0.00000000000E+00 0. -1.
        -14    1    5    5    0    0  0.22835700871E+03 -0.49735815420E+03 -0.15453792736E+03  0.56867743754E+03  0.00000000000E+00 0.  1.
          2    1    6    6  502    0 -0.52416133558E+02 -0.50513141643E+02 -0.43656461117E+02  0.84881771501E+02  0.00000000000E+00 0. -1.
         -1    1    6    6    0  502 -0.17116065307E+03 -0.41964084057E+03 -0.36280746343E+03  0.58053738877E+03  0.00000000000E+00 0.  1.
<mgrwt>
<rscale>  0 0.11262625E+04</rscale>
<asrwt>0</asrwt>
<pdfrwt beam="1">  1        1 0.16834456E+00 0.11262625E+04</pdfrwt>
<pdfrwt beam="2">  1       -2 0.20907139E+00 0.11262625E+04</pdfrwt>
<totfact> 0.12811208E+00</totfact>
</mgrwt>
</event>
<event>
12    3  0.2269558E-007  0.9650769E+03  0.7818608E-02  0.9347700E-01
          1   -1    0    0  501    0  0.00000000000E+00  0.00000000000E+00  0.81261043074E+03  0.81261043074E+03  0.00000000000E+00 0. -1.
         -2   -1    0    0    0  501 -0.00000000000E+00 -0.00000000000E+00 -0.12677249054E+04  0.12677249054E+04  0.00000000000E+00 0.  1.
        -24    2    1    2    0    0 -0.91131161510E+03  0.38451587566E+02 -0.36155821877E+03  0.98463135331E+03  0.82505587427E+02 0.  0.
    5000000    2    1    2    0    0  0.91131161510E+03 -0.38451587566E+02 -0.93556255907E+02  0.10957039828E+04  0.59987253697E+03 0.  0.
        -24    2    4    4    0    0  0.20612628968E+03 -0.19896660370E+03  0.14452944869E+03  0.32998280347E+03  0.76968385479E+02 0.  0.
         24    2    4    4    0    0  0.70518532542E+03  0.16051501613E+03 -0.23808570460E+03  0.76572117938E+03  0.81195493855E+02 0.  0.
         11    1    5    5    0    0  0.82013432247E+02 -0.85798236437E+02  0.18788307768E+02  0.12016880191E+03  0.00000000000E+00 0. -1.
        -12    1    5    5    0    0  0.12411285743E+03 -0.11316836726E+03  0.12574114092E+03  0.20981400156E+03  0.00000000000E+00 0.  1.
         11    1    3    3    0    0 -0.43287772229E+03 -0.22870497875E+02 -0.16812882068E+03  0.46494460151E+03  0.00000000000E+00 0. -1.
        -12    1    3    3    0    0 -0.47843389281E+03  0.61322085441E+02 -0.19342939810E+03  0.51968675180E+03  0.00000000000E+00 0.  1.
          2    1    6    6  502    0  0.49115095744E+03  0.14930949517E+03 -0.16232200466E+03  0.53839671390E+03  0.00000000000E+00 0. -1.
         -1    1    6    6    0  502  0.21403436798E+03  0.11205520965E+02 -0.75763699938E+02  0.22732446547E+03  0.00000000000E+00 0.  1.
<mgrwt>
<rscale>  0 0.96507688E+03</rscale>
<asrwt>0</asrwt>
<pdfrwt beam="1">  1        1 0.12501699E+00 0.96507688E+03</pdfrwt>
<pdfrwt beam="2">  1       -2 0.19503460E+00 0.96507688E+03</pdfrwt>
<totfact> 0.27113808E+00</totfact>
</mgrwt>
</event>
<event>
12    3  0.2269558E-007  0.6364712E+03  0.7818608E-02  0.9832501E-01
          1   -1    0    0  501    0  0.00000000000E+00  0.00000000000E+00  0.66892827916E+03  0.66892827916E+03  0.00000000000E+00 0. -1.
         -2   -1    0    0    0  501 -0.00000000000E+00 -0.00000000000E+00 -0.83034986656E+03  0.83034986656E+03  0.00000000000E+00 0.  1.
        -24    2    1    2    0    0  0.59556611052E+03  0.17484837562E+03 -0.10141478398E+03  0.63389244858E+03  0.79143739483E+02 0.  0.
    5000000    2    1    2    0    0 -0.59556611052E+03 -0.17484837562E+03 -0.60006803430E+02  0.86538569714E+03  0.60001720134E+03 0.  0.
        -24    2    4    4    0    0 -0.18480824565E+03 -0.12466423798E+03 -0.29857903202E+03  0.38110031615E+03  0.79954691622E+02 0.  0.
         24    2    4    4    0    0 -0.41075786487E+03 -0.50184137640E+02  0.23857222859E+03  0.48428538100E+03  0.79844541266E+02 0.  0.
         13    1    5    5    0    0 -0.32821679516E+02 -0.65968846110E+02 -0.85483679512E+02  0.11285659381E+03  0.00000000000E+00 0. -1.
        -14    1    5    5    0    0 -0.15198656613E+03 -0.58695391873E+02 -0.21309535251E+03  0.26824372234E+03  0.00000000000E+00 0.  1.
         13    1    3    3    0    0  0.12195722941E+03  0.16501494908E+02  0.55219905880E+01  0.12319235982E+03  0.00000000000E+00 0. -1.
        -14    1    3    3    0    0  0.47360888111E+03  0.15834688072E+03 -0.10693677456E+03  0.51070008875E+03  0.00000000000E+00 0.  1.
          4    1    6    6  502    0 -0.28592127341E+02 -0.55041432748E+01  0.44922520690E+02  0.53533524115E+02  0.00000000000E+00 0. -1.
         -3    1    6    6    0  502 -0.38216573753E+03 -0.44679994365E+02  0.19364970790E+03  0.43075185688E+03  0.00000000000E+00 0.  1.
<mgrwt>
<rscale>  0 0.63647120E+03</rscale>
<asrwt>0</asrwt>
<pdfrwt beam="1">  1        1 0.10291204E+00 0.63647120E+03</pdfrwt>
<pdfrwt beam="2">  1       -2 0.12774613E+00 0.63647120E+03</pdfrwt>
<totfact> 0.11987770E+01</totfact>
</mgrwt>
</event>
<event>
12    3  0.2269558E-007  0.6959482E+03  0.7818608E-02  0.9724187E-01
         -2   -1    0    0    0  501 -0.00000000000E+00  0.00000000000E+00  0.28603987530E+03  0.28603987530E+03  0.00000000000E+00 0.  1.
          1   -1    0    0  501    0  0.00000000000E+00 -0.00000000000E+00 -0.23468056956E+04  0.23468056956E+04  0.00000000000E+00 0. -1.
        -24    2    1    2    0    0 -0.48436803632E+03  0.45214942031E+03 -0.12907565565E+04  0.14531422450E+04  0.80736628610E+02 0.  0.
    5000000    2    1    2    0    0  0.48436803632E+03 -0.45214942031E+03 -0.77000926376E+03  0.11797033258E+04  0.59977844063E+03 0.  0.
        -24    2    4    4    0    0  0.15613759574E+03  0.48283204438E+01  0.46035514053E+02  0.18528483793E+03  0.88368213362E+02 0.  0.
         24    2    4    4    0    0  0.32823044058E+03 -0.45697774075E+03 -0.81604477781E+03  0.99441848791E+03  0.79844674443E+02 0.  0.
         13    1    3    3    0    0 -0.20261373629E+03  0.20405361569E+03 -0.47719356514E+03  0.55713903365E+03  0.00000000000E+00 0. -1.
        -14    1    3    3    0    0 -0.28175430003E+03  0.24809580462E+03 -0.81356299137E+03  0.89600321137E+03  0.00000000000E+00 0.  1.
         13    1    5    5    0    0  0.53677121860E+02  0.28293746400E+02 -0.16622520686E+02  0.62913255284E+02  0.00000000000E+00 0. -1.
        -14    1    5    5    0    0  0.10246047388E+03 -0.23465425956E+02  0.62658034740E+02  0.12237158265E+03  0.00000000000E+00 0.  1.
          4    1    6    6  502    0  0.21045168300E+03 -0.27337603160E+03 -0.43320867188E+03  0.55379971011E+03  0.00000000000E+00 0. -1.
         -3    1    6    6    0  502  0.11777875758E+03 -0.18360170915E+03 -0.38283610593E+03  0.44061877779E+03  0.00000000000E+00 0.  1.
<mgrwt>
<rscale>  0 0.69594816E+03</rscale>
<asrwt>0</asrwt>
<pdfrwt beam="1">  1        1 0.36104703E+00 0.69594816E+03</pdfrwt>
<pdfrwt beam="2">  1       -2 0.44006135E-01 0.69594816E+03</pdfrwt>
<totfact> 0.78677566E+00</totfact>
</mgrwt>
</event>
<event>
12    3  0.2269558E-007  0.4854670E+03  0.7818608E-02  0.1017643E+00
          1   -1    0    0  501    0  0.00000000000E+00  0.00000000000E+00  0.11691214880E+04  0.11691214880E+04  0.00000000000E+00 0. -1.
         -2   -1    0    0    0  501 -0.00000000000E+00 -0.00000000000E+00 -0.22613309024E+03  0.22613309024E+03  0.00000000000E+00 0.  1.
        -24    2    1    2    0    0  0.31096506139E+03 -0.70572504675E+02  0.44291014059E+03  0.55157706772E+03  0.79925722843E+02 0.  0.
    5000000    2    1    2    0    0 -0.31096506139E+03  0.70572504675E+02  0.50007825713E+03  0.84367751048E+03  0.60002810819E+03 0.  0.
        -24    2    4    4    0    0 -0.25158261435E+03  0.30278205438E+03  0.19193560433E+03  0.44483421849E+03  0.77893654641E+02 0.  0.
         24    2    4    4    0    0 -0.59382447044E+02 -0.23220954970E+03  0.30814265280E+03  0.39884329199E+03  0.81710018369E+02 0.  0.
         11    1    3    3    0    0  0.64360379861E+02  0.17555471227E+02  0.96662077286E+02  0.11744790441E+03  0.00000000000E+00 0. -1.
        -12    1    3    3    0    0  0.24660468153E+03 -0.88127975902E+02  0.34624806330E+03  0.43412916330E+03  0.00000000000E+00 0.  1.
         11    1    5    5    0    0 -0.16088437113E+03  0.20389146686E+03  0.16578930954E+03  0.30812595848E+03  0.00000000000E+00 0. -1.
        -12    1    5    5    0    0 -0.90698243225E+02  0.98890587517E+02  0.26146294787E+02  0.13670826001E+03  0.00000000000E+00 0.  1.
          2    1    6    6  502    0  0.59947922952E+01 -0.10717000177E+03  0.17217886974E+03  0.20289630356E+03  0.00000000000E+00 0. -1.
         -1    1    6    6    0  502 -0.65377239340E+02 -0.12503954793E+03  0.13596378306E+03  0.19594698843E+03  0.00000000000E+00 0.  1.
<mgrwt>
<rscale>  0 0.48546701E+03</rscale>
<asrwt>0</asrwt>
<pdfrwt beam="1">  1        1 0.17986484E+00 0.48546701E+03</pdfrwt>
<pdfrwt beam="2">  1       -2 0.34789707E-01 0.48546701E+03</pdfrwt>
<totfact> 0.80242781E+01</totfact>
</mgrwt>
</event>
<event>
12    3  0.2269558E-007  0.5824244E+03  0.7818608E-02  0.9942556E-01
          1   -1    0    0  501    0  0.00000000000E+00  0.00000000000E+00  0.11892169565E+04  0.11892169565E+04  0.00000000000E+00 0. -1.
         -2   -1    0    0    0  501 -0.00000000000E+00 -0.00000000000E+00 -0.54264949399E+03  0.54264949399E+03  0.00000000000E+00 0.  1.
        -24    2    1    2    0    0 -0.44366582398E+03 -0.34841509195E+03 -0.14681740394E+03  0.58831293752E+03  0.79525610278E+02 0.  0.
    5000000    2    1    2    0    0  0.44366582398E+03  0.34841509195E+03  0.79338486648E+03  0.11435535130E+04  0.60001887559E+03 0.  0.
        -24    2    4    4    0    0  0.13803893924E+03  0.38115662209E+02 -0.66899849624E+02  0.17673309481E+03  0.79066076603E+02 0.  0.
         24    2    4    4    0    0  0.30562688474E+03  0.31029942974E+03  0.86028471611E+03  0.96682041819E+03  0.70415903635E+02 0.  0.
         11    1    5    5    0    0  0.14191444098E+03  0.48693123613E+02 -0.69216738419E+02  0.16523221757E+03  0.00000000000E+00 0. -1.
        -12    1    5    5    0    0 -0.38755017446E+01 -0.10577461404E+02  0.23168887941E+01  0.11500877237E+02  0.00000000000E+00 0.  1.
         13    1    3    3    0    0 -0.48865424327E+02 -0.14961390811E+02 -0.27118983104E+02  0.57854231948E+02  0.00000000000E+00 0. -1.
        -14    1    3    3    0    0 -0.39480039965E+03 -0.33345370114E+03 -0.11969842084E+03  0.53045870557E+03  0.00000000000E+00 0.  1.
          4    1    6    6  502    0  0.20953981041E+03  0.21965910258E+03  0.52494995248E+03  0.60640704655E+03  0.00000000000E+00 0. -1.
         -3    1    6    6    0  502  0.96087074322E+02  0.90640327163E+02  0.33533476362E+03  0.36041337164E+03  0.00000000000E+00 0.  1.
<mgrwt>
<rscale>  0 0.58242440E+03</rscale>
<asrwt>0</asrwt>
<pdfrwt beam="1">  1        1 0.18295645E+00 0.58242440E+03</pdfrwt>
<pdfrwt beam="2">  1       -2 0.83484538E-01 0.58242440E+03</pdfrwt>
<totfact> 0.12586966E+01</totfact>
</mgrwt>
</event>
<event>
12    3  0.2269558E-007  0.8329752E+03  0.7818608E-02  0.9513476E-01
          3   -1    0    0  501    0  0.00000000000E+00  0.00000000000E+00  0.15284022610E+04  0.15284022610E+04  0.00000000000E+00 0. -1.
         -4   -1    0    0    0  501 -0.00000000000E+00 -0.00000000000E+00 -0.54540704664E+03  0.54540704664E+03  0.00000000000E+00 0.  1.
        -24    2    1    2    0    0  0.44061874530E+03 -0.67478595300E+03  0.55612414910E+03  0.98222547359E+03  0.77536124930E+02 0.  0.
    5000000    2    1    2    0    0 -0.44061874530E+03  0.67478595300E+03  0.42687106528E+03  0.10915838341E+04  0.59987948735E+03 0.  0.
        -24    2    4    4    0    0 -0.16370371907E+03  0.67051915532E+02  0.36850408027E+03  0.41639421734E+03  0.79334860231E+02 0.  0.
         24    2    4    4    0    0 -0.27691502623E+03  0.60773403747E+03  0.58366985008E+02  0.67518961672E+03  0.80322609154E+02 0.  0.
         11    1    3    3    0    0  0.21261550749E+03 -0.28108934729E+03  0.20683539242E+03  0.40865322065E+03  0.00000000000E+00 0. -1.
        -12    1    3    3    0    0  0.22800323781E+03 -0.39369660571E+03  0.34928875668E+03  0.57357225294E+03  0.00000000000E+00 0.  1.
         13    1    5    5    0    0  0.71383432887E+01  0.24046355053E+01  0.38299488572E+02  0.39033178729E+02  0.00000000000E+00 0. -1.
        -14    1    5    5    0    0 -0.17084206236E+03  0.64647280027E+02  0.33020459170E+03  0.37736103862E+03  0.00000000000E+00 0.  1.
          4    1    6    6  502    0 -0.12144872492E+02  0.42171258550E+02  0.23414494349E+02  0.49740843591E+02  0.00000000000E+00 0. -1.
         -3    1    6    6    0  502 -0.26477015374E+03  0.56556277892E+03  0.34952490659E+02  0.62544877313E+03  0.00000000000E+00 0.  1.
<mgrwt>
<rscale>  0 0.83297524E+03</rscale>
<asrwt>0</asrwt>
<pdfrwt beam="1">  1        3 0.23513881E+00 0.83297524E+03</pdfrwt>
<pdfrwt beam="2">  1       -4 0.83908777E-01 0.83297524E+03</pdfrwt>
<totfact> 0.25309178E-01</totfact>
</mgrwt>
</event>
<event>
12    3  0.2269558E-007  0.6074086E+03  0.7818608E-02  0.9890154E-01
          1   -1    0    0  501    0  0.00000000000E+00  0.00000000000E+00  0.11173939617E+04  0.11173939617E+04  0.00000000000E+00 0. -1.
         -2   -1    0    0    0  501 -0.00000000000E+00 -0.00000000000E+00 -0.34254796270E+03  0.34254796270E+03  0.00000000000E+00 0.  1.
        -24    2    1    2    0    0  0.40365887429E+03  0.23280918170E+03  0.35588353931E+03  0.59246207903E+03  0.84956575169E+02 0.  0.
    5000000    2    1    2    0    0 -0.40365887429E+03 -0.23280918170E+03  0.41896245968E+03  0.86747984535E+03  0.59987593517E+03 0.  0.
        -24    2    4    4    0    0 -0.12912561899E+03 -0.39973495885E+03  0.22733156805E+03  0.48425211123E+03  0.79743354543E+02 0.  0.
         24    2    4    4    0    0 -0.27453325529E+03  0.16692577715E+03  0.19163089163E+03  0.38322773412E+03  0.83116630300E+02 0.  0.
         11    1    3    3    0    0  0.95765494694E+02  0.32380016499E+02  0.42832528589E+02  0.10979126080E+03  0.00000000000E+00 0. -1.
        -12    1    3    3    0    0  0.30789337960E+03  0.20042916520E+03  0.31305101072E+03  0.48267081823E+03  0.00000000000E+00 0.  1.
         13    1    5    5    0    0  0.42216301657E+01 -0.36587214015E+01 -0.37221688767E+01  0.67128939137E+01  0.00000000000E+00 0. -1.
        -14    1    5    5    0    0 -0.13334724916E+03 -0.39607623745E+03  0.23105373693E+03  0.47753921732E+03  0.00000000000E+00 0.  1.
          4    1    6    6  502    0 -0.88541084659E+02  0.37021010436E+02  0.99870031313E+02  0.13850668591E+03  0.00000000000E+00 0. -1.
         -3    1    6    6    0  502 -0.18599217064E+03  0.12990476671E+03  0.91760860315E+02  0.24472104821E+03  0.00000000000E+00 0.  1.
<mgrwt>
<rscale>  0 0.60740862E+03</rscale>
<asrwt>0</asrwt>
<pdfrwt beam="1">  1        1 0.17190676E+00 0.60740862E+03</pdfrwt>
<pdfrwt beam="2">  1       -2 0.52699687E-01 0.60740862E+03</pdfrwt>
<totfact> 0.38088246E+01</totfact>
</mgrwt>
</event>
<event>
12    3  0.2269558E-007  0.4090729E+03  0.7818608E-02  0.1040683E+00
          3   -1    0    0  501    0  0.00000000000E+00  0.00000000000E+00  0.11970895869E+04  0.11970895869E+04  0.00000000000E+00 0. -1.
         -4   -1    0    0    0  501 -0.00000000000E+00 -0.00000000000E+00 -0.16698563315E+03  0.16698563315E+03  0.00000000000E+00 0.  1.
        -24    2    1    2    0    0 -0.19474771421E+03  0.11407540134E+03  0.17932997808E+03  0.29888978442E+03  0.78968302566E+02 0.  0.
    5000000    2    1    2    0    0  0.19474771421E+03 -0.11407540134E+03  0.85077397569E+03  0.10651854356E+04  0.59988647695E+03 0.  0.
        -24    2    4    4    0    0  0.30844579430E+03 -0.24602843592E+03  0.74376635376E+03  0.84556145175E+03  0.78211127049E+02 0.  0.
         24    2    4    4    0    0 -0.11369808010E+03  0.13195303458E+03  0.10700762193E+03  0.21962398390E+03  0.80282042832E+02 0.  0.
         11    1    5    5    0    0  0.55508726935E+02 -0.17892920015E+02  0.15141041674E+03  0.16225439794E+03  0.00000000000E+00 0. -1.
        -12    1    5    5    0    0  0.25293706737E+03 -0.22813551590E+03  0.59235593701E+03  0.68330705380E+03  0.00000000000E+00 0.  1.
         11    1    3    3    0    0 -0.57537675756E+02  0.73622308766E+02  0.49656353652E+02  0.10581390238E+03  0.00000000000E+00 0. -1.
        -12    1    3    3    0    0 -0.13721003845E+03  0.40453092575E+02  0.12967362443E+03  0.19307588204E+03  0.00000000000E+00 0.  1.
          2    1    6    6  502    0  0.60547099550E+01  0.10703326919E+02  0.30373426514E+02  0.32768365202E+02  0.00000000000E+00 0. -1.
         -1    1    6    6    0  502 -0.11975279005E+03  0.12124970766E+03  0.76634195418E+02  0.18685561870E+03  0.00000000000E+00 0.  1.
<mgrwt>
<rscale>  0 0.40907287E+03</rscale>
<asrwt>0</asrwt>
<pdfrwt beam="1">  1        3 0.18416762E+00 0.40907287E+03</pdfrwt>
<pdfrwt beam="2">  1       -4 0.25690098E-01 0.40907287E+03</pdfrwt>
<totfact> 0.61394394E+00</totfact>
</mgrwt>
</event>
<event>
12    3  0.2269558E-007  0.4995967E+03  0.7818608E-02  0.1013884E+00
         -2   -1    0    0    0  501 -0.00000000000E+00  0.00000000000E+00  0.20661067410E+03  0.20661067410E+03  0.00000000000E+00 0.  1.
          1   -1    0    0  501    0  0.00000000000E+00 -0.00000000000E+00 -0.18237817673E+04  0.18237817673E+04  0.00000000000E+00 0. -1.
        -24    2    1    2    0    0  0.28456317009E+03 -0.25096008801E+03 -0.18001490629E+03  0.42744767372E+03  0.79680510389E+02 0.  0.
    5000000    2    1    2    0    0 -0.28456317009E+03  0.25096008801E+03 -0.14371561869E+04  0.16029447677E+04  0.60004738072E+03 0.  0.
        -24    2    4    4    0    0 -0.42298623797E+03  0.16382588532E+03 -0.66043216664E+03  0.80522295651E+03  0.80355987559E+02 0.  0.
         24    2    4    4    0    0  0.13842306789E+03  0.87134202693E+02 -0.77672402026E+03  0.79772181116E+03  0.79413911587E+02 0.  0.
         13    1    3    3    0    0  0.15366720412E+03 -0.12810226751E+03 -0.51243268224E+02  0.20651797283E+03  0.00000000000E+00 0. -1.
        -14    1    3    3    0    0  0.13089596597E+03 -0.12285782051E+03 -0.12877163806E+03  0.22092970089E+03  0.00000000000E+00 0.  1.
         13    1    5    5    0    0 -0.24712101388E+03  0.11389400864E+03 -0.33123234940E+03  0.42866713193E+03  0.00000000000E+00 0. -1.
        -14    1    5    5    0    0 -0.17586522409E+03  0.49931876683E+02 -0.32919981724E+03  0.37655582458E+03  0.00000000000E+00 0.  1.
          2    1    6    6  502    0  0.12601944183E+03  0.72045610120E+02 -0.50922686211E+03  0.52951248026E+03  0.00000000000E+00 0. -1.
         -1    1    6    6    0  502  0.12403626059E+02  0.15088592573E+02 -0.26749715815E+03  0.26820933090E+03  0.00000000000E+00 0.  1.
<mgrwt>
<rscale>  0 0.49959670E+03</rscale>
<asrwt>0</asrwt>
<pdfrwt beam="1">  1        1 0.28058183E+00 0.49959670E+03</pdfrwt>
<pdfrwt beam="2">  1       -2 0.31786255E-01 0.49959670E+03</pdfrwt>
<totfact> 0.33941964E+01</totfact>
</mgrwt>
</event>
<event>
12    3  0.2269558E-007  0.9480430E+03  0.7818608E-02  0.9367441E-01
          1   -1    0    0  501    0  0.00000000000E+00  0.00000000000E+00  0.66350104297E+03  0.66350104297E+03  0.00000000000E+00 0. -1.
         -2   -1    0    0    0  501 -0.00000000000E+00 -0.00000000000E+00 -0.34598369749E+04  0.34598369749E+04  0.00000000000E+00 0.  1.
        -24    2    1    2    0    0  0.47060430493E+03  0.71468746898E+03 -0.29449080047E+04  0.30677557415E+04  0.79972139602E+02 0.  0.
    5000000    2    1    2    0    0 -0.47060430493E+03 -0.71468746898E+03  0.14857207269E+03  0.10555822765E+04  0.59994474033E+03 0.  0.
        -24    2    4    4    0    0  0.13075661025E+03 -0.14797760793E+03  0.47635815723E+02  0.21820921450E+03  0.79695839168E+02 0.  0.
         24    2    4    4    0    0 -0.60136091518E+03 -0.56670986105E+03  0.10093625697E+03  0.83737306196E+03  0.90611809355E+02 0.  0.
         13    1    3    3    0    0  0.21716054797E+03  0.27534570431E+03 -0.11138382644E+04  0.11677369737E+04  0.00000000000E+00 0. -1.
        -14    1    3    3    0    0  0.25344375696E+03  0.43934176467E+03 -0.18310697403E+04  0.19000187678E+04  0.00000000000E+00 0.  1.
         13    1    5    5    0    0  0.29868045895E+02 -0.22499592364E+01 -0.10399735575E+02  0.31706734019E+02  0.00000000000E+00 0. -1.
        -14    1    5    5    0    0  0.10088856436E+03 -0.14572764869E+03  0.58035551298E+02  0.18650248048E+03  0.00000000000E+00 0.  1.
          4    1    6    6  502    0 -0.57834203032E+03 -0.51498781345E+03  0.99279198209E+02  0.78073574994E+03  0.00000000000E+00 0. -1.
         -3    1    6    6    0  502 -0.23018884863E+02 -0.51722047609E+02  0.16570587603E+01  0.56637312020E+02  0.00000000000E+00 0.  1.
<mgrwt>
<rscale>  0 0.94804296E+03</rscale>
<asrwt>0</asrwt>
<pdfrwt beam="1">  1        1 0.10207709E+00 0.94804296E+03</pdfrwt>
<pdfrwt beam="2">  1       -2 0.53228259E+00 0.94804296E+03</pdfrwt>
<totfact> 0.27862305E-02</totfact>
</mgrwt>
</event>
<event>
12    3  0.2269558E-007  0.4928719E+03  0.7818608E-02  0.1015656E+00
          1   -1    0    0  501    0  0.00000000000E+00  0.00000000000E+00  0.32283616843E+03  0.32283616843E+03  0.00000000000E+00 0. -1.
         -2   -1    0    0    0  501 -0.00000000000E+00 -0.00000000000E+00 -0.86648608394E+03  0.86648608394E+03  0.00000000000E+00 0.  1.
        -24    2    1    2    0    0 -0.19085389739E+03  0.26583584002E+03 -0.33409018507E+03  0.47440318556E+03  0.79675759969E+02 0.  0.
    5000000    2    1    2    0    0  0.19085389739E+03 -0.26583584002E+03 -0.20955973044E+03  0.71491906682E+03  0.60008340044E+03 0.  0.
        -24    2    4    4    0    0  0.66501293721E+02  0.17480132507E+03 -0.13911769555E+03  0.24595177312E+03  0.78489592762E+02 0.  0.
         24    2    4    4    0    0  0.12435260366E+03 -0.44063716509E+03 -0.70442034889E+02  0.46896729370E+03  0.73099664726E+02 0.  0.
         13    1    3    3    0    0 -0.85257525573E+02  0.56920644808E+02 -0.94058504057E+02  0.13912515106E+03  0.00000000000E+00 0. -1.
        -14    1    3    3    0    0 -0.10559637181E+03  0.20891519521E+03 -0.24003168101E+03  0.33527803450E+03  0.00000000000E+00 0.  1.
         13    1    5    5    0    0  0.53763169100E+02  0.13577723025E+03 -0.62125131054E+02  0.15869929588E+03  0.00000000000E+00 0. -1.
        -14    1    5    5    0    0  0.12738124621E+02  0.39024094820E+02 -0.76992564500E+02  0.87252477235E+02  0.00000000000E+00 0.  1.
          2    1    6    6  502    0  0.46844245949E+02 -0.75997943838E+02  0.15733220314E+01  0.89289115733E+02  0.00000000000E+00 0. -1.
         -1    1    6    6    0  502  0.77508357715E+02 -0.36463922125E+03 -0.72015356920E+02  0.37967817796E+03  0.00000000000E+00 0.  1.
<mgrwt>
<rscale>  0 0.49287192E+03</rscale>
<asrwt>0</asrwt>
<pdfrwt beam="1">  1        1 0.49667102E-01 0.49287192E+03</pdfrwt>
<pdfrwt beam="2">  1       -2 0.13330555E+00 0.49287192E+03</pdfrwt>
<totfact> 0.29453240E+01</totfact>
</mgrwt>
</event>
<event>
12    3  0.2269558E-007  0.7226827E+03  0.7818608E-02  0.9679209E-01
         -2   -1    0    0    0  501 -0.00000000000E+00  0.00000000000E+00  0.19903289482E+03  0.19903289482E+03  0.00000000000E+00 0.  1.
          1   -1    0    0  501    0  0.00000000000E+00 -0.00000000000E+00 -0.31269551645E+04  0.31269551645E+04  0.00000000000E+00 0. -1.
        -24    2    1    2    0    0 -0.50389044814E+02  0.66460528642E+03 -0.14384664131E+04  0.15874172828E+04  0.80428636462E+02 0.  0.
    5000000    2    1    2    0    0  0.50389044814E+02 -0.66460528642E+03 -0.14894558566E+04  0.17385707765E+04  0.59992529010E+03 0.  0.
        -24    2    4    4    0    0  0.15106578121E+03 -0.69663180957E+02 -0.76383227801E+02  0.19974150174E+03  0.79927723547E+02 0.  0.
         24    2    4    4    0    0 -0.10067673640E+03 -0.59494210546E+03 -0.14130726288E+04  0.15388292748E+04  0.84435588676E+02 0.  0.
         11    1    5    5    0    0  0.11740359560E+02  0.34841752468E+01 -0.34928066450E+02  0.37012772737E+02  0.00000000000E+00 0. -1.
        -12    1    5    5    0    0  0.13932542165E+03 -0.73147356204E+02 -0.41455161351E+02  0.16272872900E+03  0.00000000000E+00 0.  1.
         11    1    3    3    0    0 -0.37485983957E+02  0.10325799754E+03 -0.23613585911E+03  0.26043724198E+03  0.00000000000E+00 0. -1.
        -12    1    3    3    0    0 -0.12903060857E+02  0.56134728888E+03 -0.12023305540E+04  0.13269800409E+04  0.00000000000E+00 0.  1.
          2    1    6    6  502    0 -0.13223059326E+02 -0.17285546529E+03 -0.49805177419E+03  0.52736081666E+03  0.00000000000E+00 0. -1.
         -1    1    6    6    0  502 -0.87453677075E+02 -0.42208664017E+03 -0.91502085457E+03  0.10114684581E+04  0.00000000000E+00 0.  1.
<mgrwt>
<rscale>  0 0.72268273E+03</rscale>
<asrwt>0</asrwt>
<pdfrwt beam="1">  1        1 0.48107001E+00 0.72268273E+03</pdfrwt>
<pdfrwt beam="2">  1       -2 0.30620446E-01 0.72268273E+03</pdfrwt>
<totfact> 0.44854780E+00</totfact>
</mgrwt>
</event>
<event>
12    3  0.2381155E-007  0.8621949E+03  0.7818608E-02  0.9474114E-01
         -2   -1    0    0    0  501 -0.00000000000E+00  0.00000000000E+00  0.39328276414E+03  0.39328276414E+03  0.00000000000E+00 0.  1.
          1   -1    0    0  501    0  0.00000000000E+00 -0.00000000000E+00 -0.27541140158E+04  0.27541140158E+04  0.00000000000E+00 0. -1.
        -24    2    1    2    0    0 -0.34828174214E+03 -0.68578537193E+03 -0.23476009877E+03  0.80819170836E+03  0.80372789102E+02 0.  0.
    5000000    2    1    2    0    0  0.34828174214E+03  0.68578537193E+03 -0.21260711529E+04  0.23392050716E+04  0.60008338712E+03 0.  0.
        -24    2    4    4    0    0 -0.14808641022E+03  0.11240685578E+03 -0.59031790597E+03  0.62435620584E+03  0.82344128766E+02 0.  0.
         24    2    4    4    0    0  0.49636815235E+03  0.57337851615E+03 -0.15357532469E+04  0.17148488657E+04  0.83811284773E+02 0.  0.
         11    1    3    3    0    0 -0.11613967197E+03 -0.28290792683E+03 -0.12540226390E+03  0.33053146032E+03  0.00000000000E+00 0. -1.
        -12    1    3    3    0    0 -0.23214207017E+03 -0.40287744509E+03 -0.10935783487E+03  0.47766024804E+03  0.00000000000E+00 0.  1.
         13    1    5    5    0    0 -0.93042126595E+02  0.33854131930E+02 -0.21063208563E+03  0.23274194953E+03  0.00000000000E+00 0. -1.
        -14    1    5    5    0    0 -0.55044283624E+02  0.78552723849E+02 -0.37968582034E+03  0.39161425631E+03  0.00000000000E+00 0.  1.
          2    1    6    6  502    0  0.29582179669E+03  0.35723340530E+03 -0.84799462723E+03  0.96655115181E+03  0.00000000000E+00 0. -1.
         -1    1    6    6    0  502  0.20054635566E+03  0.21614511085E+03 -0.68775861966E+03  0.74829771390E+03  0.00000000000E+00 0.  1.
<mgrwt>
<rscale>  0 0.86219485E+03</rscale>
<asrwt>0</asrwt>
<pdfrwt beam="1">  1        1 0.42370984E+00 0.86219485E+03</pdfrwt>
<pdfrwt beam="2">  1       -2 0.60505041E-01 0.86219485E+03</pdfrwt>
<totfact> 0.20921183E+00</totfact>
</mgrwt>
</event>
<event>
12    3  0.2269558E-007  0.1287954E+04  0.7818608E-02  0.9039173E-01
          1   -1    0    0  501    0  0.00000000000E+00  0.00000000000E+00  0.13260996474E+04  0.13260996474E+04  0.00000000000E+00 0. -1.
         -2   -1    0    0    0  501 -0.00000000000E+00 -0.00000000000E+00 -0.14980507898E+04  0.14980507898E+04  0.00000000000E+00 0.  1.
        -24    2    1    2    0    0 -0.12223820981E+04  0.34787960037E+01  0.47826174467E+03  0.13151565953E+04  0.81685236876E+02 0.  0.
    5000000    2    1    2    0    0  0.12223820981E+04 -0.34787960037E+01 -0.65021288699E+03  0.15089938419E+04  0.60004626539E+03 0.  0.
        -24    2    4    4    0    0  0.12274347640E+04  0.90465530085E+02 -0.62506026031E+03  0.13824742109E+04  0.75858438500E+02 0.  0.
         24    2    4    4    0    0 -0.50526659169E+01 -0.93944326089E+02 -0.25152626680E+02  0.12651963098E+03  0.80768165497E+02 0.  0.
         11    1    5    5    0    0  0.11079793360E+04  0.85568285132E+02 -0.58830971293E+03  0.12573974943E+04  0.00000000000E+00 0. -1.
        -12    1    5    5    0    0  0.11945542802E+03  0.48972449531E+01 -0.36750547377E+02  0.12507671656E+03  0.00000000000E+00 0.  1.
         13    1    3    3    0    0 -0.85212131067E+03 -0.37022805903E+01  0.37274084084E+03  0.93008610860E+03  0.00000000000E+00 0. -1.
        -14    1    3    3    0    0 -0.37026078745E+03  0.71810765941E+01  0.10552090383E+03  0.38507048670E+03  0.00000000000E+00 0.  1.
          2    1    6    6  502    0 -0.28881977837E+02 -0.94461613691E+02 -0.12592371772E+02  0.99577773281E+02  0.00000000000E+00 0. -1.
         -1    1    6    6    0  502  0.23829311920E+02  0.51728760140E+00 -0.12560254908E+02  0.26941857701E+02  0.00000000000E+00 0.  1.
<mgrwt>
<rscale>  0 0.12879537E+04</rscale>
<asrwt>0</asrwt>
<pdfrwt beam="1">  1        1 0.20401533E+00 0.12879537E+04</pdfrwt>
<pdfrwt beam="2">  1       -2 0.23046935E+00 0.12879537E+04</pdfrwt>
<totfact> 0.62266799E-01</totfact>
</mgrwt>
</event>
<event>
12    3  0.2269558E-007  0.1054500E+04  0.7818608E-02  0.9250710E-01
         -2   -1    0    0    0  501 -0.00000000000E+00  0.00000000000E+00  0.10990116885E+04  0.10990116885E+04  0.00000000000E+00 0.  1.
          1   -1    0    0  501    0  0.00000000000E+00 -0.00000000000E+00 -0.13018305403E+04  0.13018305403E+04  0.00000000000E+00 0. -1.
        -24    2    1    2    0    0  0.45493977569E+03  0.87114067910E+03  0.44259468545E+03  0.10808311702E+04  0.80309903247E+02 0.  0.
    5000000    2    1    2    0    0 -0.45493977569E+03 -0.87114067910E+03 -0.64541353728E+03  0.13200110587E+04  0.60001189873E+03 0.  0.
        -24    2    4    4    0    0 -0.24946442946E+03 -0.39400042405E+02 -0.39706183828E+02  0.26768045756E+03  0.79318228806E+02 0.  0.
         24    2    4    4    0    0 -0.20547534623E+03 -0.83174063670E+03 -0.60570735345E+03  0.10523306011E+04  0.80657866080E+02 0.  0.
         13    1    5    5    0    0 -0.22596723735E+03 -0.59592267162E+02 -0.33469570732E+02  0.23607762034E+03  0.00000000000E+00 0. -1.
        -14    1    5    5    0    0 -0.23497192107E+02  0.20192224756E+02 -0.62366130965E+01  0.31602837222E+02  0.00000000000E+00 0.  1.
         13    1    3    3    0    0  0.22340858340E+03  0.37909685829E+03  0.16193389894E+03  0.46887995343E+03  0.00000000000E+00 0. -1.
        -14    1    3    3    0    0  0.23153119229E+03  0.49204382081E+03  0.28066078651E+03  0.61195121675E+03  0.00000000000E+00 0.  1.
          2    1    6    6  502    0 -0.13432517418E+03 -0.37671846872E+03 -0.27697656867E+03  0.48649365534E+03  0.00000000000E+00 0. -1.
         -1    1    6    6    0  502 -0.71150172051E+02 -0.45502216798E+03 -0.32873078478E+03  0.56583694577E+03  0.00000000000E+00 0.  1.
<mgrwt>
<rscale>  0 0.10545004E+04</rscale>
<asrwt>0</asrwt>
<pdfrwt beam="1">  1        1 0.20028162E+00 0.10545004E+04</pdfrwt>
<pdfrwt beam="2">  1       -2 0.16907872E+00 0.10545004E+04</pdfrwt>
<totfact> 0.16948363E+00</totfact>
</mgrwt>
</event>
<event>
12    3  0.2269558E-007  0.5343015E+03  0.7818608E-02  0.1005194E+00
          1   -1    0    0  501    0  0.00000000000E+00  0.00000000000E+00  0.88417408499E+03  0.88417408499E+03  0.00000000000E+00 0. -1.
         -2   -1    0    0    0  501 -0.00000000000E+00 -0.00000000000E+00 -0.51688247002E+03  0.51688247002E+03  0.00000000000E+00 0.  1.
        -24    2    1    2    0    0  0.10470282036E+02  0.49602940045E+03 -0.70598410886E+02  0.50770377007E+03  0.81389124605E+02 0.  0.
    5000000    2    1    2    0    0 -0.10470282036E+02 -0.49602940045E+03  0.43789002585E+03  0.89335278495E+03  0.60014725753E+03 0.  0.
        -24    2    4    4    0    0  0.21944015350E+02  0.28141923540E+02 -0.10306839522E+03  0.13519011080E+03  0.79873426715E+02 0.  0.
         24    2    4    4    0    0 -0.32414297386E+02 -0.52417132399E+03  0.54095842108E+03  0.75816267415E+03  0.79802027356E+02 0.  0.
         11    1    3    3    0    0 -0.25457202499E+02  0.87868342758E+02 -0.28444273375E+02  0.95801834565E+02  0.00000000000E+00 0. -1.
        -12    1    3    3    0    0  0.35927484535E+02  0.40816105769E+03 -0.42154137512E+02  0.41190193550E+03  0.00000000000E+00 0.  1.
         13    1    5    5    0    0  0.24411747762E+02  0.22613616998E+02 -0.13624448524E+01  0.33304134256E+02  0.00000000000E+00 0. -1.
        -14    1    5    5    0    0 -0.24677324120E+01  0.55283065412E+01 -0.10170595037E+03  0.10188597655E+03  0.00000000000E+00 0.  1.
          2    1    6    6  502    0  0.12705580911E+02 -0.44953796279E+02  0.74186742164E+02  0.87669540315E+02  0.00000000000E+00 0. -1.
         -3    1    6    6    0  502 -0.45119878296E+02 -0.47921752771E+03  0.46677167891E+03  0.67049313383E+03  0.00000000000E+00 0.  1.
<mgrwt>
<rscale>  0 0.53430155E+03</rscale>
<asrwt>0</asrwt>
<pdfrwt beam="1">  1        1 0.13602678E+00 0.53430155E+03</pdfrwt>
<pdfrwt beam="2">  1       -2 0.79520380E-01 0.53430155E+03</pdfrwt>
<totfact> 0.24122925E+01</totfact>
</mgrwt>
</event>
<event>
12    3  0.2269558E-007  0.8334848E+03  0.7818608E-02  0.9512775E-01
         -2   -1    0    0    0  501 -0.00000000000E+00  0.00000000000E+00  0.18408818034E+03  0.18408818034E+03  0.00000000000E+00 0.  1.
          3   -1    0    0  501    0  0.00000000000E+00 -0.00000000000E+00 -0.43521764274E+04  0.43521764274E+04  0.00000000000E+00 0. -1.
        -24    2    1    2    0    0  0.49617748191E+03 -0.57824020692E+03 -0.13035869931E+04  0.15120442984E+04  0.79906702778E+02 0.  0.
    5000000    2    1    2    0    0 -0.49617748191E+03  0.57824020692E+03 -0.28645012539E+04  0.30242203094E+04  0.59998934597E+03 0.  0.
        -24    2    4    4    0    0 -0.26925276459E+03  0.61183803660E+03 -0.15863555180E+04  0.17232736414E+04  0.79406418415E+02 0.  0.
         24    2    4    4    0    0 -0.22692471732E+03 -0.33597829682E+02 -0.12781457359E+04  0.13009466679E+04  0.78626135413E+02 0.  0.
         13    1    5    5    0    0 -0.17909763518E+03  0.30961966870E+03 -0.82846595885E+03  0.90238359202E+03  0.00000000000E+00 0. -1.
        -14    1    5    5    0    0 -0.90155129407E+02  0.30221836790E+03 -0.75788955920E+03  0.82089004939E+03  0.00000000000E+00 0.  1.
         13    1    3    3    0    0  0.34000075594E+03 -0.35270410485E+03 -0.88565882661E+03  0.10121226491E+04  0.00000000000E+00 0. -1.
        -14    1    3    3    0    0  0.15617672596E+03 -0.22553610207E+03 -0.41792816650E+03  0.49992164929E+03  0.00000000000E+00 0.  1.
          4    1    6    6  502    0 -0.16037690988E+03 -0.18557715320E+02 -0.67904820024E+03  0.69797679064E+03  0.00000000000E+00 0. -1.
         -3    1    6    6    0  502 -0.66547807433E+02 -0.15040114362E+02 -0.59909753564E+03  0.60296987730E+03  0.00000000000E+00 0.  1.
<mgrwt>
<rscale>  0 0.83348484E+03</rscale>
<asrwt>0</asrwt>
<pdfrwt beam="1">  1        3 0.66956565E+00 0.83348484E+03</pdfrwt>
<pdfrwt beam="2">  1       -2 0.28321257E-01 0.83348484E+03</pdfrwt>
<totfact> 0.24652992E-02</totfact>
</mgrwt>
</event>
<event>
12    3  0.2269558E-007  0.1206839E+04  0.7818608E-02  0.9106891E-01
          1   -1    0    0  501    0  0.00000000000E+00  0.00000000000E+00  0.27468980342E+04  0.27468980342E+04  0.00000000000E+00 0. -1.
         -2   -1    0    0    0  501 -0.00000000000E+00 -0.00000000000E+00 -0.13481767525E+04  0.13481767525E+04  0.00000000000E+00 0.  1.
        -24    2    1    2    0    0  0.43017644843E+02  0.11877020298E+04 -0.86280329927E+03  0.14707953467E+04  0.79515970094E+02 0.  0.
    5000000    2    1    2    0    0 -0.43017644843E+02 -0.11877020298E+04  0.22615245810E+04  0.26242794400E+04  0.59988542159E+03 0.  0.
        -24    2    4    4    0    0 -0.13834025997E+03 -0.29240076229E+03  0.11185928658E+04  0.11672036651E+04  0.80487037930E+02 0.  0.
         24    2    4    4    0    0  0.95322615124E+02 -0.89530126748E+03  0.11429317153E+04  0.14570757748E+04  0.78269708431E+02 0.  0.
         11    1    5    5    0    0 -0.17950867253E+02 -0.50907040660E+02  0.31298298206E+03  0.31760369564E+03  0.00000000000E+00 0. -1.
        -12    1    5    5    0    0 -0.12038939271E+03 -0.24149372163E+03  0.80560988370E+03  0.84959996950E+03  0.00000000000E+00 0.  1.
         13    1    3    3    0    0  0.19288266883E+02  0.12535235941E+03 -0.11723286603E+03  0.17271015062E+03  0.00000000000E+00 0. -1.
        -14    1    3    3    0    0  0.23729377960E+02  0.10623496704E+04 -0.74557043324E+03  0.12980851961E+04  0.00000000000E+00 0.  1.
          2    1    6    6  502    0  0.27273199141E+02 -0.30114056858E+03  0.44432258423E+03  0.53744955883E+03  0.00000000000E+00 0. -1.
         -1    1    6    6    0  502  0.68049415983E+02 -0.59416069890E+03  0.69860913106E+03  0.91962621599E+03  0.00000000000E+00 0.  1.
<mgrwt>
<rscale>  0 0.12068390E+04</rscale>
<asrwt>0</asrwt>
<pdfrwt beam="1">  1        1 0.42259970E+00 0.12068390E+04</pdfrwt>
<pdfrwt beam="2">  1       -2 0.20741181E+00 0.12068390E+04</pdfrwt>
<totfact> 0.93112758E-02</totfact>
</mgrwt>
</event>
<event>
12    3  0.2269558E-007  0.7610128E+03  0.7818608E-02  0.9618230E-01
         -2   -1    0    0    0  501 -0.00000000000E+00  0.00000000000E+00  0.15561481874E+04  0.15561481874E+04  0.00000000000E+00 0.  1.
          1   -1    0    0  501    0  0.00000000000E+00 -0.00000000000E+00 -0.43164243741E+03  0.43164243741E+03  0.00000000000E+00 0. -1.
        -24    2    1    2    0    0  0.68111674244E+03  0.18446073816E+03  0.42889986148E+03  0.82946817264E+03  0.78208551270E+02 0.  0.
    5000000    2    1    2    0    0 -0.68111674244E+03 -0.18446073816E+03  0.69560588851E+03  0.11583224522E+04  0.59991463583E+03 0.  0.
        -24    2    4    4    0    0 -0.61589607272E+03 -0.28924742767E+03  0.31559892857E+03  0.75433214548E+03  0.80138974209E+02 0.  0.
         24    2    4    4    0    0 -0.65220669716E+02  0.10478668951E+03  0.38000695994E+03  0.40399030667E+03  0.59740206102E+02 0.  0.
         11    1    3    3    0    0  0.53436393120E+03  0.17651925073E+03  0.34876724627E+03  0.66207435301E+03  0.00000000000E+00 0. -1.
        -12    1    3    3    0    0  0.14675281124E+03  0.79414874297E+01  0.80132615210E+02  0.16739381963E+03  0.00000000000E+00 0.  1.
         13    1    5    5    0    0 -0.40184217961E+03 -0.22728135878E+03  0.22792392843E+03  0.51486238017E+03  0.00000000000E+00 0. -1.
        -14    1    5    5    0    0 -0.21405389311E+03 -0.61966068889E+02  0.87675000132E+02  0.23946976531E+03  0.00000000000E+00 0.  1.
          2    1    6    6  502    0 -0.61136916350E+02  0.70748796503E+02  0.20039966928E+03  0.22114054851E+03  0.00000000000E+00 0. -1.
         -1    1    6    6    0  502 -0.40837533660E+01  0.34037893008E+02  0.17960729066E+03  0.18284975816E+03  0.00000000000E+00 0.  1.
<mgrwt>
<rscale>  0 0.76101282E+03</rscale>
<asrwt>0</asrwt>
<pdfrwt beam="1">  1        1 0.66406530E-01 0.76101282E+03</pdfrwt>
<pdfrwt beam="2">  1       -2 0.23940741E+00 0.76101282E+03</pdfrwt>
<totfact> 0.36468052E+00</totfact>
</mgrwt>
</event>
<event>
12    3  0.2813694E-007  0.1479202E+04  0.7818608E-02  0.8898402E-01
          1   -1    0    0  501    0  0.00000000000E+00  0.00000000000E+00  0.22625995566E+04  0.22625995566E+04  0.00000000000E+00 0. -1.
         -2   -1    0    0    0  501 -0.00000000000E+00 -0.00000000000E+00 -0.15602107043E+04  0.15602107043E+04  0.00000000000E+00 0.  1.
        -24    2    1    2    0    0  0.85029347829E+03  0.12028960241E+04 -0.76231985085E+03  0.16605221842E+04  0.79022308438E+02 0.  0.
    5000000    2    1    2    0    0 -0.85029347829E+03 -0.12028960241E+04  0.14647087031E+04  0.21622880767E+04  0.60013356653E+03 0.  0.
        -24    2    4    4    0    0 -0.47924585814E+03 -0.59414819422E+03  0.11413891601E+04  0.13755262838E+04  0.81330642936E+02 0.  0.
         24    2    4    4    0    0 -0.37104762014E+03 -0.60874782991E+03  0.32331954307E+03  0.78676179293E+03  0.78792988626E+02 0.  0.
         11    1    3    3    0    0  0.40024224276E+03  0.53422553566E+03 -0.38451276064E+03  0.77035111406E+03  0.00000000000E+00 0. -1.
        -12    1    3    3    0    0  0.45005123553E+03  0.66867048847E+03 -0.37780709021E+03  0.89017107017E+03  0.00000000000E+00 0.  1.
         13    1    5    5    0    0 -0.18311471090E+03 -0.29100683165E+03  0.50293866317E+03  0.60923170660E+03  0.00000000000E+00 0. -1.
        -14    1    5    5    0    0 -0.29613114725E+03 -0.30314136258E+03  0.63845049689E+03  0.76629457720E+03  0.00000000000E+00 0.  1.
          4    1    6    6  502    0 -0.20027498371E+03 -0.40178748278E+03  0.20158278909E+03  0.49211672525E+03  0.00000000000E+00 0. -1.
         -3    1    6    6    0  502 -0.17077263643E+03 -0.20696034713E+03  0.12173675398E+03  0.29464506768E+03  0.00000000000E+00 0.  1.
<mgrwt>
<rscale>  0 0.14792025E+04</rscale>
<asrwt>0</asrwt>
<pdfrwt beam="1">  1        1 0.34809224E+00 0.14792025E+04</pdfrwt>
<pdfrwt beam="2">  1       -2 0.24003242E+00 0.14792025E+04</pdfrwt>
<totfact> 0.12078349E-01</totfact>
</mgrwt>
</event>
<event>
12    3  0.2269558E-007  0.1566705E+04  0.7818608E-02  0.8841267E-01
          1   -1    0    0  501    0  0.00000000000E+00  0.00000000000E+00  0.25061131521E+04  0.25061131521E+04  0.00000000000E+00 0. -1.
         -2   -1    0    0    0  501 -0.00000000000E+00 -0.00000000000E+00 -0.11358288968E+04  0.11358288968E+04  0.00000000000E+00 0.  1.
        -24    2    1    2    0    0 -0.27447568080E+03 -0.15191459675E+04  0.12379550649E+04  0.19803844873E+04  0.79048119750E+02 0.  0.
    5000000    2    1    2    0    0  0.27447568080E+03  0.15191459675E+04  0.13232919044E+03  0.16615575615E+04  0.60010094635E+03 0.  0.
        -24    2    4    4    0    0  0.30894639457E+03  0.68059295929E+03 -0.16148106611E+03  0.76868603775E+03  0.78405605438E+02 0.  0.
         24    2    4    4    0    0 -0.34470713769E+02  0.83855300817E+03  0.29381025655E+03  0.89287152377E+03  0.80843759762E+02 0.  0.
         11    1    3    3    0    0 -0.10261445199E+03 -0.62975326517E+03  0.55971800334E+03  0.84876565907E+03  0.00000000000E+00 0. -1.
        -12    1    3    3    0    0 -0.17186122881E+03 -0.88939270229E+03  0.67823706153E+03  0.11316188283E+04  0.00000000000E+00 0.  1.
         11    1    5    5    0    0  0.28838199602E+03  0.64373487153E+03 -0.13310446113E+03  0.71782696942E+03  0.00000000000E+00 0. -1.
        -12    1    5    5    0    0  0.20564398548E+02  0.36858087761E+02 -0.28376604983E+02  0.50859068330E+02  0.00000000000E+00 0.  1.
          2    1    6    6  502    0 -0.53643678950E+02  0.51114856351E+03  0.15580141403E+03  0.53705174693E+03  0.00000000000E+00 0. -1.
         -1    1    6    6    0  502  0.19172965181E+02  0.32740444465E+03  0.13800884252E+03  0.35581977684E+03  0.00000000000E+00 0.  1.
<mgrwt>
<rscale>  0 0.15667052E+04</rscale>
<asrwt>0</asrwt>
<pdfrwt beam="1">  1        1 0.38555587E+00 0.15667052E+04</pdfrwt>
<pdfrwt beam="2">  1       -2 0.17474291E+00 0.15667052E+04</pdfrwt>
<totfact> 0.21754297E-01</totfact>
</mgrwt>
</event>
<event>
12    3  0.2269558E-007  0.8043519E+03  0.7818608E-02  0.9553739E-01
         -4   -1    0    0    0  501 -0.00000000000E+00  0.00000000000E+00  0.91055695747E+03  0.91055695747E+03  0.00000000000E+00 0.  1.
          1   -1    0    0  501    0  0.00000000000E+00 -0.00000000000E+00 -0.14781590760E+04  0.14781590760E+04  0.00000000000E+00 0. -1.
        -24    2    1    2    0    0 -0.63025166623E+03 -0.44751155485E+03  0.51275072785E+03  0.93101997177E+03  0.80007027271E+02 0.  0.
    5000000    2    1    2    0    0  0.63025166623E+03  0.44751155485E+03 -0.10803528463E+04  0.14576960617E+04  0.60019311982E+03 0.  0.
        -24    2    4    4    0    0  0.12696021970E+03 -0.30948229770E+02  0.18692366589E+02  0.15525243261E+03  0.81714276292E+02 0.  0.
         24    2    4    4    0    0  0.50329144653E+03  0.47845978462E+03 -0.10990452129E+04  0.13024436291E+04  0.78949231473E+02 0.  0.
         11    1    5    5    0    0  0.79239874891E+02 -0.43326465411E+02 -0.20099263428E+02  0.92520920705E+02  0.00000000000E+00 0. -1.
        -12    1    5    5    0    0  0.47720344806E+02  0.12378235641E+02  0.38791630017E+02  0.62731511901E+02  0.00000000000E+00 0.  1.
         13    1    3    3    0    0 -0.30323887671E+03 -0.24415187580E+03  0.29653822021E+03  0.48938621849E+03  0.00000000000E+00 0. -1.
        -14    1    3    3    0    0 -0.32701278952E+03 -0.20335967905E+03  0.21621250764E+03  0.44163375328E+03  0.00000000000E+00 0.  1.
          2    1    6    6  502    0  0.41033131832E+03  0.40019851343E+03 -0.84807553862E+03  0.10236028332E+04  0.00000000000E+00 0. -1.
         -1    1    6    6    0  502  0.92960128218E+02  0.78261271194E+02 -0.25096967432E+03  0.27884079586E+03  0.00000000000E+00 0.  1.
<mgrwt>
<rscale>  0 0.80435193E+03</rscale>
<asrwt>0</asrwt>
<pdfrwt beam="1">  1        1 0.22740909E+00 0.80435193E+03</pdfrwt>
<pdfrwt beam="2">  1       -4 0.14008569E+00 0.80435193E+03</pdfrwt>
<totfact> 0.11751129E+00</totfact>
</mgrwt>
</event>
<event>
12    3  0.2269558E-007  0.5402494E+03  0.7818608E-02  0.1003776E+00
         -2   -1    0    0    0  501 -0.00000000000E+00  0.00000000000E+00  0.28777055632E+03  0.28777055632E+03  0.00000000000E+00 0.  1.
          1   -1    0    0  501    0  0.00000000000E+00 -0.00000000000E+00 -0.10464273414E+04  0.10464273414E+04  0.00000000000E+00 0. -1.
        -24    2    1    2    0    0  0.33529710966E+03  0.17744596331E+03 -0.25965454414E+03  0.46641261903E+03  0.78797381028E+02 0.  0.
    5000000    2    1    2    0    0 -0.33529710966E+03 -0.17744596331E+03 -0.49900224092E+03  0.86778527866E+03  0.60011401564E+03 0.  0.
        -24    2    4    4    0    0 -0.47937302986E+03 -0.21074103367E+03 -0.44258209110E+03  0.69056202896E+03  0.82381572291E+02 0.  0.
         24    2    4    4    0    0  0.14407592019E+03  0.33295070361E+02 -0.56420149819E+02  0.17722324970E+03  0.79739666661E+02 0.  0.
         13    1    3    3    0    0  0.27155903495E+03  0.12013796582E+03 -0.23038860849E+03  0.37584085889E+03  0.00000000000E+00 0. -1.
        -14    1    3    3    0    0  0.63738074719E+02  0.57307997493E+02 -0.29265935650E+02  0.90571760141E+02  0.00000000000E+00 0.  1.
         13    1    5    5    0    0 -0.18611586549E+03 -0.39542916118E+02 -0.16917034149E+03  0.25460039678E+03  0.00000000000E+00 0. -1.
        -14    1    5    5    0    0 -0.29325716436E+03 -0.17119811755E+03 -0.27341174961E+03  0.43596163217E+03  0.00000000000E+00 0.  1.
          2    1    6    6  502    0  0.58823988996E+02  0.54453653462E+02 -0.26225445261E+02  0.84340002584E+02  0.00000000000E+00 0. -1.
         -1    1    6    6    0  502  0.85251931196E+02 -0.21158583101E+02 -0.30194704558E+02  0.92883247116E+02  0.00000000000E+00 0.  1.
<mgrwt>
<rscale>  0 0.54024937E+03</rscale>
<asrwt>0</asrwt>
<pdfrwt beam="1">  1        1 0.16098882E+00 0.54024937E+03</pdfrwt>
<pdfrwt beam="2">  1       -2 0.44272393E-01 0.54024937E+03</pdfrwt>
<totfact> 0.61593629E+01</totfact>
</mgrwt>
</event>
<event>
12    3  0.2269558E-007  0.6600815E+03  0.7818608E-02  0.9788044E-01
          1   -1    0    0  501    0  0.00000000000E+00  0.00000000000E+00  0.82708199080E+03  0.82708199080E+03  0.00000000000E+00 0. -1.
         -2   -1    0    0    0  501 -0.00000000000E+00 -0.00000000000E+00 -0.84988376235E+03  0.84988376235E+03  0.00000000000E+00 0.  1.
        -24    2    1    2    0    0  0.59479195028E+03  0.58718455420E+02 -0.42649220205E+03  0.73870351661E+03  0.81005962299E+02 0.  0.
    5000000    2    1    2    0    0 -0.59479195028E+03 -0.58718455420E+02  0.40369043050E+03  0.93826223653E+03  0.60012060430E+03 0.  0.
        -24    2    4    4    0    0 -0.62215473168E+03  0.18965223687E+02  0.48808609890E+03  0.79530166544E+03  0.82707371220E+02 0.  0.
         24    2    4    4    0    0  0.27362781404E+02 -0.77683679107E+02 -0.84395668404E+02  0.14296057109E+03  0.80818439945E+02 0.  0.
         13    1    5    5    0    0 -0.27639281895E+03  0.13424331284E+02  0.26909555056E+03  0.38598655206E+03  0.00000000000E+00 0. -1.
        -14    1    5    5    0    0 -0.34576191273E+03  0.55408924030E+01  0.21899054834E+03  0.40931511338E+03  0.00000000000E+00 0.  1.
         13    1    3    3    0    0  0.29884448871E+03  0.18850557776E+02 -0.26140964648E+03  0.39749009451E+03  0.00000000000E+00 0. -1.
        -14    1    3    3    0    0  0.29594746156E+03  0.39867897644E+02 -0.16508255556E+03  0.34121342210E+03  0.00000000000E+00 0.  1.
          4    1    6    6  502    0  0.30635543084E+02 -0.10603240754E+02  0.32062174729E+01  0.32576756208E+02  0.00000000000E+00 0. -1.
         -3    1    6    6    0  502 -0.32727616807E+01 -0.67080438353E+02 -0.87601885876E+02  0.11038381488E+03  0.00000000000E+00 0.  1.
<mgrwt>
<rscale>  0 0.66008147E+03</rscale>
<asrwt>0</asrwt>
<pdfrwt beam="1">  1        1 0.12724338E+00 0.66008147E+03</pdfrwt>
<pdfrwt beam="2">  1       -2 0.13075135E+00 0.66008147E+03</pdfrwt>
<totfact> 0.81237999E+00</totfact>
</mgrwt>
</event>
<event>
12    3  0.2269558E-007  0.6219110E+03  0.7818608E-02  0.9860962E-01
          1   -1    0    0  501    0  0.00000000000E+00  0.00000000000E+00  0.53395588973E+03  0.53395588973E+03  0.00000000000E+00 0. -1.
         -2   -1    0    0    0  501 -0.00000000000E+00 -0.00000000000E+00 -0.94010049436E+03  0.94010049436E+03  0.00000000000E+00 0.  1.
        -24    2    1    2    0    0  0.48913514157E+03 -0.22189473253E+03 -0.39025084786E+03  0.66860078241E+03  0.78998879279E+02 0.  0.
    5000000    2    1    2    0    0 -0.48913514157E+03  0.22189473253E+03 -0.15893756767E+02  0.80545560168E+03  0.60001304630E+03 0.  0.
        -24    2    4    4    0    0 -0.30254489233E+03  0.35815463194E+03  0.16236645451E+03  0.50281249112E+03  0.81543751556E+02 0.  0.
         24    2    4    4    0    0 -0.18659024924E+03 -0.13625989941E+03 -0.17826021128E+03  0.30264311056E+03  0.80208903160E+02 0.  0.
         11    1    5    5    0    0 -0.18245166813E+03  0.23734660712E+03  0.14172758778E+03  0.33122308532E+03  0.00000000000E+00 0. -1.
        -12    1    5    5    0    0 -0.12009322420E+03  0.12080802482E+03  0.20638866732E+02  0.17158940579E+03  0.00000000000E+00 0.  1.
         11    1    3    3    0    0  0.27683847674E+03 -0.16741000443E+03 -0.22384316704E+03  0.39340998362E+03  0.00000000000E+00 0. -1.
        -12    1    3    3    0    0  0.21229666483E+03 -0.54484728108E+02 -0.16640768083E+03  0.27519079878E+03  0.00000000000E+00 0.  1.
          4    1    6    6  502    0 -0.55077469159E+02 -0.33024948016E+02 -0.98043466537E+02  0.11720365238E+03  0.00000000000E+00 0. -1.
         -3    1    6    6    0  502 -0.13151278008E+03 -0.10323495139E+03 -0.80216744744E+02  0.18543945818E+03  0.00000000000E+00 0.  1.
<mgrwt>
<rscale>  0 0.62191098E+03</rscale>
<asrwt>0</asrwt>
<pdfrwt beam="1">  1        1 0.82147061E-01 0.62191098E+03</pdfrwt>
<pdfrwt beam="2">  1       -2 0.14463084E+00 0.62191098E+03</pdfrwt>
<totfact> 0.12071074E+01</totfact>
</mgrwt>
</event>
<event>
12    3  0.2269558E-007  0.9294219E+03  0.7818608E-02  0.9389532E-01
          1   -1    0    0  501    0  0.00000000000E+00  0.00000000000E+00  0.17809572630E+04  0.17809572630E+04  0.00000000000E+00 0. -1.
         -2   -1    0    0    0  501 -0.00000000000E+00 -0.00000000000E+00 -0.67879775836E+03  0.67879775836E+03  0.00000000000E+00 0.  1.
        -24    2    1    2    0    0 -0.42581508711E+03  0.71675729262E+03 -0.13867453957E+03  0.84890956307E+03  0.79732762426E+02 0.  0.
    5000000    2    1    2    0    0  0.42581508711E+03 -0.71675729262E+03  0.12408340442E+04  0.16108454583E+04  0.60007871170E+03 0.  0.
        -24    2    4    4    0    0 -0.96841942266E+02 -0.38526828703E+03  0.49703807723E+03  0.64116181396E+03  0.78940526340E+02 0.  0.
         24    2    4    4    0    0  0.52265702938E+03 -0.33148900559E+03  0.74379596695E+03  0.96968364429E+03  0.63234471302E+02 0.  0.
         11    1    3    3    0    0 -0.16885232788E+03  0.21695349807E+03 -0.30528944867E+02  0.27660792727E+03  0.00000000000E+00 0. -1.
        -12    1    3    3    0    0 -0.25696275923E+03  0.49980379456E+03 -0.10814559470E+03  0.57230163580E+03  0.00000000000E+00 0.  1.
         13    1    5    5    0    0 -0.10152781012E+03 -0.28349936794E+03  0.39796469919E+03  0.49905479625E+03  0.00000000000E+00 0. -1.
        -14    1    5    5    0    0  0.46858678562E+01 -0.10176891909E+03  0.99073378036E+02  0.14210701772E+03  0.00000000000E+00 0.  1.
          4    1    6    6  502    0  0.36442455257E+03 -0.23329360698E+03  0.47331818963E+03  0.64129655403E+03  0.00000000000E+00 0. -1.
         -3    1    6    6    0  502  0.15823247681E+03 -0.98195398612E+02  0.27047777732E+03  0.32838709026E+03  0.00000000000E+00 0.  1.
<mgrwt>
<rscale>  0 0.92942195E+03</rscale>
<asrwt>0</asrwt>
<pdfrwt beam="1">  1        1 0.27399342E+00 0.92942195E+03</pdfrwt>
<pdfrwt beam="2">  1       -2 0.10443043E+00 0.92942195E+03</pdfrwt>
<totfact> 0.27767220E+00</totfact>
</mgrwt>
</event>
<event>
12    3  0.2269558E-007  0.4290996E+03  0.7818608E-02  0.1034145E+00
         -2   -1    0    0    0  501 -0.00000000000E+00  0.00000000000E+00  0.46380062225E+03  0.46380062225E+03  0.00000000000E+00 0.  1.
          1   -1    0    0  501    0  0.00000000000E+00 -0.00000000000E+00 -0.67931977555E+03  0.67931977555E+03  0.00000000000E+00 0. -1.
        -24    2    1    2    0    0 -0.11241369321E+03  0.36196060196E+03 -0.19344983698E+03  0.43310914823E+03  0.80674525478E+02 0.  0.
    5000000    2    1    2    0    0  0.11241369321E+03 -0.36196060196E+03 -0.22069316316E+02  0.71001124957E+03  0.59998050302E+03 0.  0.
        -24    2    4    4    0    0  0.24334158124E+02  0.13530699432E+02  0.22750651237E+03  0.24370935467E+03  0.82823941613E+02 0.  0.
         24    2    4    4    0    0  0.88079535090E+02 -0.37549130139E+03 -0.24957582869E+03  0.46630189490E+03  0.79985254895E+02 0.  0.
         11    1    3    3    0    0 -0.11352187190E+03  0.24492400693E+03 -0.14505046680E+03  0.30645492734E+03  0.00000000000E+00 0. -1.
        -12    1    3    3    0    0  0.11081786885E+01  0.11703659503E+03 -0.48399370176E+02  0.12665422089E+03  0.00000000000E+00 0.  1.
         13    1    5    5    0    0  0.46578553515E+02  0.29343345998E+02  0.10915002584E+03  0.12224697028E+03  0.00000000000E+00 0. -1.
        -14    1    5    5    0    0 -0.22244395391E+02 -0.15812646567E+02  0.11835648654E+03  0.12146238440E+03  0.00000000000E+00 0.  1.
          2    1    6    6  502    0  0.11879828019E+02 -0.15727308777E+03 -0.65337780762E+02  0.17071900904E+03  0.00000000000E+00 0. -1.
         -1    1    6    6    0  502  0.76199707070E+02 -0.21821821362E+03 -0.18423804793E+03  0.29558288586E+03  0.00000000000E+00 0.  1.
<mgrwt>
<rscale>  0 0.42909961E+03</rscale>
<asrwt>0</asrwt>
<pdfrwt beam="1">  1        1 0.10451073E+00 0.42909961E+03</pdfrwt>
<pdfrwt beam="2">  1       -2 0.71353942E-01 0.42909961E+03</pdfrwt>
<totfact> 0.46827706E+01</totfact>
</mgrwt>
</event>
<event>
12    3  0.2269558E-007  0.6096555E+03  0.7818608E-02  0.9885574E-01
          3   -1    0    0  501    0  0.00000000000E+00  0.00000000000E+00  0.73621607924E+03  0.73621607924E+03  0.00000000000E+00 0. -1.
         -4   -1    0    0    0  501 -0.00000000000E+00 -0.00000000000E+00 -0.88849987344E+03  0.88849987344E+03  0.00000000000E+00 0.  1.
        -24    2    1    2    0    0 -0.15368661835E+03 -0.57340497086E+03  0.29695244534E+03  0.66845273344E+03  0.78964959178E+02 0.  0.
    5000000    2    1    2    0    0  0.15368661835E+03  0.57340497086E+03 -0.44923623954E+03  0.95626321924E+03  0.60017773058E+03 0.  0.
        -24    2    4    4    0    0 -0.37170339294E+02  0.10883859015E+03  0.12663000493E+03  0.18804651935E+03  0.78095214084E+02 0.  0.
         24    2    4    4    0    0  0.19085695764E+03  0.46456638071E+03 -0.57586624447E+03  0.76821669989E+03  0.79288499154E+02 0.  0.
         11    1    3    3    0    0 -0.10429502850E+03 -0.48648688921E+03  0.22998332018E+03  0.54812341120E+03  0.00000000000E+00 0. -1.
        -12    1    3    3    0    0 -0.49391589848E+02 -0.86918081652E+02  0.66969125158E+02  0.12032932224E+03  0.00000000000E+00 0.  1.
         11    1    5    5    0    0 -0.80785123051E+01  0.12776995270E+02 -0.10283962690E+02  0.18283157764E+02  0.00000000000E+00 0. -1.
        -12    1    5    5    0    0 -0.29091826989E+02  0.96061594884E+02  0.13691396762E+03  0.16976336159E+03  0.00000000000E+00 0.  1.
          4    1    6    6  502    0  0.33593489729E+02  0.16057101048E+03 -0.15438142271E+03  0.22526694306E+03  0.00000000000E+00 0. -1.
         -3    1    6    6    0  502  0.15726346791E+03  0.30399537023E+03 -0.42148482176E+03  0.54294975683E+03  0.00000000000E+00 0.  1.
<mgrwt>
<rscale>  0 0.60965554E+03</rscale>
<asrwt>0</asrwt>
<pdfrwt beam="1">  1        3 0.11326401E+00 0.60965554E+03</pdfrwt>
<pdfrwt beam="2">  1       -4 0.13669229E+00 0.60965554E+03</pdfrwt>
<totfact> 0.56018387E-01</totfact>
</mgrwt>
</event>
<event>
12    3  0.2269558E-007  0.1766765E+04  0.7818608E-02  0.8724176E-01
          1   -1    0    0  501    0  0.00000000000E+00  0.00000000000E+00  0.17405286173E+04  0.17405286173E+04  0.00000000000E+00 0. -1.
         -2   -1    0    0    0  501 -0.00000000000E+00 -0.00000000000E+00 -0.19212031756E+04  0.19212031756E+04  0.00000000000E+00 0.  1.
        -24    2    1    2    0    0  0.34123933654E+03 -0.16930894599E+04  0.33684155002E+03  0.17614947999E+04  0.80034342999E+02 0.  0.
    5000000    2    1    2    0    0 -0.34123933654E+03  0.16930894599E+04 -0.51751610832E+03  0.19002369930E+04  0.60006791531E+03 0.  0.
        -24    2    4    4    0    0 -0.26820731592E+02  0.12780685947E+04 -0.49498458697E+03  0.13731853304E+04  0.80308939300E+02 0.  0.
         24    2    4    4    0    0 -0.31441860495E+03  0.41502086521E+03 -0.22531521349E+02  0.52705166261E+03  0.78577400782E+02 0.  0.
         11    1    3    3    0    0  0.49649316678E+02 -0.21124370987E+03  0.16451722628E+02  0.21762265227E+03  0.00000000000E+00 0. -1.
        -12    1    3    3    0    0  0.29159001986E+03 -0.14818457501E+04  0.32038982739E+03  0.15438721476E+04  0.00000000000E+00 0.  1.
         11    1    5    5    0    0 -0.25560850507E+02  0.12503783293E+03 -0.41857283295E+02  0.13431250466E+03  0.00000000000E+00 0. -1.
        -12    1    5    5    0    0 -0.12598810853E+01  0.11530307618E+04 -0.45312730368E+03  0.12388728257E+04  0.00000000000E+00 0.  1.
          4    1    6    6  502    0 -0.20593294124E+03  0.32446286205E+03 -0.30547497162E+02  0.38550962986E+03  0.00000000000E+00 0. -1.
         -3    1    6    6    0  502 -0.10848566371E+03  0.90558003164E+02  0.80159758132E+01  0.14154203275E+03  0.00000000000E+00 0.  1.
<mgrwt>
<rscale>  0 0.17667647E+04</rscale>
<asrwt>0</asrwt>
<pdfrwt beam="1">  1        1 0.26777363E+00 0.17667647E+04</pdfrwt>
<pdfrwt beam="2">  1       -2 0.29556972E+00 0.17667647E+04</pdfrwt>
<totfact> 0.12129605E-01</totfact>
</mgrwt>
</event>
<event>
12    3  0.2269558E-007  0.5235090E+03  0.7818608E-02  0.1007819E+00
          1   -1    0    0  501    0  0.00000000000E+00  0.00000000000E+00  0.63617166135E+03  0.63617166135E+03  0.00000000000E+00 0. -1.
         -2   -1    0    0    0  501 -0.00000000000E+00 -0.00000000000E+00 -0.54690528866E+03  0.54690528866E+03  0.00000000000E+00 0.  1.
        -24    2    1    2    0    0  0.35557092906E+03 -0.20885383831E+02  0.28003565945E+03  0.45994431075E+03  0.79132253675E+02 0.  0.
    5000000    2    1    2    0    0 -0.35557092906E+03  0.20885383831E+02 -0.19076928676E+03  0.72313263926E+03  0.59971744042E+03 0.  0.
        -24    2    4    4    0    0 -0.50701205504E+03 -0.39738251337E+02 -0.15610113693E+03  0.53793986293E+03  0.79820915810E+02 0.  0.
         24    2    4    4    0    0  0.15144112598E+03  0.60623635168E+02 -0.34668149833E+02  0.18519277633E+03  0.80528529191E+02 0.  0.
         11    1    5    5    0    0 -0.25664223739E+03  0.13907868324E+02 -0.56218633963E+02  0.26309542303E+03  0.00000000000E+00 0. -1.
        -12    1    5    5    0    0 -0.25036981765E+03 -0.53646119660E+02 -0.99882502964E+02  0.27484443990E+03  0.00000000000E+00 0.  1.
         13    1    3    3    0    0  0.26455583389E+03  0.52310100328E+01  0.16879571596E+03  0.31386166767E+03  0.00000000000E+00 0. -1.
        -14    1    3    3    0    0  0.91015095172E+02 -0.26116393864E+02  0.11123994350E+03  0.14608264307E+03  0.00000000000E+00 0.  1.
          4    1    6    6  502    0  0.53772213651E+02 -0.92491368761E+01 -0.35511825011E+02  0.65100593004E+02  0.00000000000E+00 0. -1.
         -3    1    6    6    0  502  0.97668912331E+02  0.69872772044E+02  0.84367517817E+00  0.12009218333E+03  0.00000000000E+00 0.  1.
<mgrwt>
<rscale>  0 0.52350903E+03</rscale>
<asrwt>0</asrwt>
<pdfrwt beam="1">  1        1 0.97872563E-01 0.52350903E+03</pdfrwt>
<pdfrwt beam="2">  1       -2 0.84139276E-01 0.52350903E+03</pdfrwt>
<totfact> 0.35343863E+01</totfact>
</mgrwt>
</event>
<event>
12    3  0.2269558E-007  0.4320785E+03  0.7818608E-02  0.1033205E+00
          1   -1    0    0  501    0  0.00000000000E+00  0.00000000000E+00  0.39427811729E+03  0.39427811729E+03  0.00000000000E+00 0. -1.
         -2   -1    0    0    0  501 -0.00000000000E+00 -0.00000000000E+00 -0.57780358988E+03  0.57780358988E+03  0.00000000000E+00 0.  1.
        -24    2    1    2    0    0 -0.15278101496E+02  0.24917540865E+03 -0.18835065022E+03  0.32214444668E+03  0.77325755294E+02 0.  0.
    5000000    2    1    2    0    0  0.15278101496E+02 -0.24917540865E+03  0.48251776341E+01  0.64993726049E+03  0.60006112653E+03 0.  0.
        -24    2    4    4    0    0 -0.26341049803E+03 -0.16004351087E+03  0.96530221855E+02  0.33287085715E+03  0.80535134957E+02 0.  0.
         24    2    4    4    0    0  0.27868859953E+03 -0.89131897776E+02 -0.91705044220E+02  0.31706640334E+03  0.80681213930E+02 0.  0.
         11    1    3    3    0    0  0.12146402356E+02  0.16297213287E+03 -0.15640797657E+03  0.22620987228E+03  0.00000000000E+00 0. -1.
        -12    1    3    3    0    0 -0.27424503852E+02  0.86203275774E+02 -0.31942673648E+02  0.95934574401E+02  0.00000000000E+00 0.  1.
         11    1    5    5    0    0 -0.22407579328E+03 -0.16396718495E+03  0.94455185874E+02  0.29328651693E+03  0.00000000000E+00 0. -1.
        -12    1    5    5    0    0 -0.39334704750E+02  0.39236740807E+01  0.20750359807E+01  0.39584340217E+02  0.00000000000E+00 0.  1.
          2    1    6    6  502    0  0.24386290008E+03 -0.71993955768E+02 -0.48258450429E+02  0.25880711300E+03  0.00000000000E+00 0. -1.
         -1    1    6    6    0  502  0.34825699451E+02 -0.17137942008E+02 -0.43446593792E+02  0.58259290337E+02  0.00000000000E+00 0.  1.
<mgrwt>
<rscale>  0 0.43207851E+03</rscale>
<asrwt>0</asrwt>
<pdfrwt beam="1">  1        1 0.60658172E-01 0.43207851E+03</pdfrwt>
<pdfrwt beam="2">  1       -2 0.88892860E-01 0.43207851E+03</pdfrwt>
<totfact> 0.60513016E+01</totfact>
</mgrwt>
</event>
<event>
12    3  0.2269558E-007  0.5707185E+03  0.7818608E-02  0.9968090E-01
          1   -1    0    0  501    0  0.00000000000E+00  0.00000000000E+00  0.98855941817E+03  0.98855941817E+03  0.00000000000E+00 0. -1.
         -2   -1    0    0    0  501 -0.00000000000E+00 -0.00000000000E+00 -0.45326280615E+03  0.45326280615E+03  0.00000000000E+00 0.  1.
        -24    2    1    2    0    0 -0.25337796027E+02 -0.48743650859E+03  0.44080090416E+03  0.66277943640E+03  0.82065768741E+02 0.  0.
    5000000    2    1    2    0    0  0.25337796027E+02  0.48743650859E+03  0.94495707864E+02  0.77904278791E+03  0.59978485541E+03 0.  0.
        -24    2    4    4    0    0 -0.18353320727E+03  0.17331189717E+03  0.24836492453E+03  0.36316707316E+03  0.80521645646E+02 0.  0.
         24    2    4    4    0    0  0.20887100329E+03  0.31412461141E+03 -0.15386921667E+03  0.41587571475E+03  0.83519499362E+02 0.  0.
         13    1    5    5    0    0 -0.16684528094E+03  0.11213168619E+03  0.17880725639E+03  0.26904069908E+03  0.00000000000E+00 0. -1.
        -14    1    5    5    0    0 -0.16687926322E+02  0.61180210980E+02  0.69557668139E+02  0.94126374080E+02  0.00000000000E+00 0.  1.
         13    1    3    3    0    0  0.20387820600E+02 -0.33402900071E+03  0.28890541084E+03  0.44210561290E+03  0.00000000000E+00 0. -1.
        -14    1    3    3    0    0 -0.45725616627E+02 -0.15340750788E+03  0.15189549331E+03  0.22067382350E+03  0.00000000000E+00 0.  1.
          4    1    6    6  502    0  0.17467646488E+03  0.21268435064E+03 -0.13724849609E+03  0.30754454973E+03  0.00000000000E+00 0. -1.
         -3    1    6    6    0  502  0.34194538415E+02  0.10144026077E+03 -0.16620720572E+02  0.10833116502E+03  0.00000000000E+00 0.  1.
<mgrwt>
<rscale>  0 0.57071851E+03</rscale>
<asrwt>0</asrwt>
<pdfrwt beam="1">  1        1 0.15208606E+00 0.57071851E+03</pdfrwt>
<pdfrwt beam="2">  1       -2 0.69732739E-01 0.57071851E+03</pdfrwt>
<totfact> 0.26504158E+01</totfact>
</mgrwt>
</event>
<event>
12    3  0.2269558E-007  0.9113307E+03  0.7818608E-02  0.9411527E-01
          1   -1    0    0  501    0  0.00000000000E+00  0.00000000000E+00  0.84700742603E+03  0.84700742603E+03  0.00000000000E+00 0. -1.
         -2   -1    0    0    0  501 -0.00000000000E+00 -0.00000000000E+00 -0.10779637534E+04  0.10779637534E+04  0.00000000000E+00 0.  1.
        -24    2    1    2    0    0  0.70226379806E+03 -0.42489099683E+03  0.15193758045E+03  0.83852919030E+03  0.79620182040E+02 0.  0.
    5000000    2    1    2    0    0 -0.70226379806E+03  0.42489099683E+03 -0.38289390777E+03  0.10864419891E+04  0.60003470716E+03 0.  0.
        -24    2    4    4    0    0 -0.74252287673E+03  0.20221052546E+03 -0.32859193813E+03  0.84056155868E+03  0.79635124424E+02 0.  0.
         24    2    4    4    0    0  0.40259078675E+02  0.22268047137E+03 -0.54301969634E+02  0.24588043041E+03  0.79379445754E+02 0.  0.
         11    1    3    3    0    0  0.33036619508E+03 -0.24562157470E+03  0.83285358989E+02  0.42000979969E+03  0.00000000000E+00 0. -1.
        -12    1    3    3    0    0  0.37189760298E+03 -0.17926942213E+03  0.68652221459E+02  0.41851939061E+03  0.00000000000E+00 0.  1.
         13    1    5    5    0    0 -0.36104128821E+03  0.12683080239E+03 -0.19426169306E+03  0.42915553080E+03  0.00000000000E+00 0. -1.
        -14    1    5    5    0    0 -0.38148158852E+03  0.75379723079E+02 -0.13433024508E+03  0.41140602788E+03  0.00000000000E+00 0.  1.
          4    1    6    6  502    0  0.11782119459E+02  0.98900415185E+02  0.15737995819E+02  0.10083548470E+03  0.00000000000E+00 0. -1.
         -3    1    6    6    0  502  0.28476959216E+02  0.12378005618E+03 -0.70039965452E+02  0.14504494571E+03  0.00000000000E+00 0.  1.
<mgrwt>
<rscale>  0 0.91133073E+03</rscale>
<asrwt>0</asrwt>
<pdfrwt beam="1">  1        1 0.13030883E+00 0.91133073E+03</pdfrwt>
<pdfrwt beam="2">  1       -2 0.16584058E+00 0.91133073E+03</pdfrwt>
<totfact> 0.40513576E+00</totfact>
</mgrwt>
</event>
<event>
12    3  0.2269558E-007  0.7700402E+03  0.7818608E-02  0.9604425E-01
          1   -1    0    0  501    0  0.00000000000E+00  0.00000000000E+00  0.33922703660E+03  0.33922703660E+03  0.00000000000E+00 0. -1.
         -2   -1    0    0    0  501 -0.00000000000E+00 -0.00000000000E+00 -0.21028350265E+04  0.21028350265E+04  0.00000000000E+00 0.  1.
        -24    2    1    2    0    0  0.64990206185E+03 -0.13044618687E+03 -0.12341264971E+04  0.14031605329E+04  0.80014827941E+02 0.  0.
    5000000    2    1    2    0    0 -0.64990206185E+03  0.13044618687E+03 -0.52948149290E+03  0.10389015303E+04  0.59964726347E+03 0.  0.
        -24    2    4    4    0    0 -0.74380656805E+03  0.13963674487E+03 -0.39857100587E+03  0.85894287816E+03  0.78596374195E+02 0.  0.
         24    2    4    4    0    0  0.93904506200E+02 -0.91905579981E+01 -0.13091048702E+03  0.17995865209E+03  0.79655748124E+02 0.  0.
         11    1    5    5    0    0 -0.30978403307E+03  0.97439353740E+02 -0.16503987319E+03  0.36427837507E+03  0.00000000000E+00 0. -1.
        -12    1    5    5    0    0 -0.43402253498E+03  0.42197391128E+02 -0.23353113268E+03  0.49466450310E+03  0.00000000000E+00 0.  1.
         11    1    3    3    0    0  0.41720706078E+03 -0.84779595409E+02 -0.70948593203E+03  0.82741742737E+03  0.00000000000E+00 0. -1.
        -12    1    3    3    0    0  0.23269500107E+03 -0.45666591461E+02 -0.52464056503E+03  0.57574310553E+03  0.00000000000E+00 0.  1.
          2    1    6    6  502    0  0.71704751735E+02  0.24736988176E+02 -0.11188158869E+03  0.13517018863E+03  0.00000000000E+00 0. -1.
         -1    1    6    6    0  502  0.22199754465E+02 -0.33927546175E+02 -0.19028898329E+02  0.44788463463E+02  0.00000000000E+00 0.  1.
<mgrwt>
<rscale>  0 0.77004021E+03</rscale>
<asrwt>0</asrwt>
<pdfrwt beam="1">  1        1 0.52188774E-01 0.77004021E+03</pdfrwt>
<pdfrwt beam="2">  1       -2 0.32351309E+00 0.77004021E+03</pdfrwt>
<totfact> 0.15565560E+00</totfact>
</mgrwt>
</event>
<event>
12    3  0.2269558E-007  0.1607613E+04  0.7818608E-02  0.8815885E-01
          1   -1    0    0  501    0  0.00000000000E+00  0.00000000000E+00  0.19313429444E+04  0.19313429444E+04  0.00000000000E+00 0. -1.
         -2   -1    0    0    0  501 -0.00000000000E+00 -0.00000000000E+00 -0.14983840014E+04  0.14983840014E+04  0.00000000000E+00 0.  1.
        -24    2    1    2    0    0  0.65937251254E+03  0.14422260131E+04  0.65916955576E+03  0.17191904386E+04  0.79519041400E+02 0.  0.
    5000000    2    1    2    0    0 -0.65937251254E+03 -0.14422260131E+04 -0.22621061284E+03  0.17105365072E+04  0.59997993125E+03 0.  0.
        -24    2    4    4    0    0  0.39081830790E+02 -0.23732549014E+02 -0.76541442649E+02  0.12036080991E+03  0.80854862187E+02 0.  0.
         24    2    4    4    0    0 -0.69845434333E+03 -0.14184934641E+04 -0.14966917019E+03  0.15901756972E+04  0.79345512386E+02 0.  0.
         11    1    5    5    0    0  0.35534048394E+02 -0.15535832816E+02  0.43072278438E+01  0.39020288418E+02  0.00000000000E+00 0. -1.
        -12    1    5    5    0    0  0.35477823957E+01 -0.81967161978E+01 -0.80848670492E+02  0.81340521493E+02  0.00000000000E+00 0.  1.
         11    1    3    3    0    0  0.31367244074E+03  0.64419087790E+03  0.25934384026E+03  0.76199180753E+03  0.00000000000E+00 0. -1.
        -12    1    3    3    0    0  0.34570007180E+03  0.79803513516E+03  0.39982571550E+03  0.95719863110E+03  0.00000000000E+00 0.  1.
          2    1    6    6  502    0 -0.11516426281E+03 -0.25514002360E+03  0.23404725506E+01  0.27993698734E+03  0.00000000000E+00 0. -1.
         -1    1    6    6    0  502 -0.58329008052E+03 -0.11633534405E+04 -0.15200964274E+03  0.13102387099E+04  0.00000000000E+00 0.  1.
<mgrwt>
<rscale>  0 0.16076131E+04</rscale>
<asrwt>0</asrwt>
<pdfrwt beam="1">  1        1 0.29712968E+00 0.16076131E+04</pdfrwt>
<pdfrwt beam="2">  1       -2 0.23052062E+00 0.16076131E+04</pdfrwt>
<totfact> 0.22956162E-01</totfact>
</mgrwt>
</event>
<event>
12    3  0.2269558E-007  0.6388139E+03  0.7818608E-02  0.9827998E-01
         -2   -1    0    0    0  501 -0.00000000000E+00  0.00000000000E+00  0.27681223349E+03  0.27681223349E+03  0.00000000000E+00 0.  1.
          1   -1    0    0  501    0  0.00000000000E+00 -0.00000000000E+00 -0.15083617512E+04  0.15083617512E+04  0.00000000000E+00 0. -1.
        -24    2    1    2    0    0 -0.49795584879E+03 -0.12316455546E+02 -0.58170357823E+03  0.77007297721E+03  0.80756516002E+02 0.  0.
    5000000    2    1    2    0    0  0.49795584879E+03  0.12316455546E+02 -0.64984593945E+03  0.10151010074E+04  0.60001548969E+03 0.  0.
        -24    2    4    4    0    0  0.19845770386E+03  0.29142306554E+03 -0.33022795048E+03  0.48947892590E+03  0.78906630123E+02 0.  0.
         24    2    4    4    0    0  0.29949814494E+03 -0.27910660999E+03 -0.31961798897E+03  0.52562208154E+03  0.80766794970E+02 0.  0.
         11    1    3    3    0    0 -0.85574809846E+02  0.24931522787E+02 -0.82013222248E+02  0.12112306771E+03  0.00000000000E+00 0. -1.
        -12    1    3    3    0    0 -0.41238103895E+03 -0.37247978334E+02 -0.49969035598E+03  0.64894990950E+03  0.00000000000E+00 0.  1.
         13    1    5    5    0    0 -0.54945350777E+01  0.18065179067E+00 -0.75055145120E+01  0.93035100300E+01  0.00000000000E+00 0. -1.
        -14    1    5    5    0    0  0.20395223894E+03  0.29124241375E+03 -0.32272243597E+03  0.48017541587E+03  0.00000000000E+00 0.  1.
          4    1    6    6  502    0  0.48189702421E+02 -0.19270995697E+02 -0.66377930215E+02  0.84259410835E+02  0.00000000000E+00 0. -1.
         -3    1    6    6    0  502  0.25130844252E+03 -0.25983561429E+03 -0.25324005875E+03  0.44136267071E+03  0.00000000000E+00 0.  1.
<mgrwt>
<rscale>  0 0.63881390E+03</rscale>
<asrwt>0</asrwt>
<pdfrwt beam="1">  1        1 0.23205565E+00 0.63881390E+03</pdfrwt>
<pdfrwt beam="2">  1       -2 0.42586498E-01 0.63881390E+03</pdfrwt>
<totfact> 0.30880433E+01</totfact>
</mgrwt>
</event>
<event>
12    3  0.2269558E-007  0.7421546E+03  0.7818608E-02  0.9647740E-01
          1   -1    0    0  501    0  0.00000000000E+00  0.00000000000E+00  0.55167695173E+03  0.55167695173E+03  0.00000000000E+00 0. -1.
         -2   -1    0    0    0  501 -0.00000000000E+00 -0.00000000000E+00 -0.13736413023E+04  0.13736413023E+04  0.00000000000E+00 0.  1.
        -24    2    1    2    0    0 -0.46028429408E+02  0.70346206137E+03 -0.34913020348E+02  0.71008107997E+03  0.77580493941E+02 0.  0.
    5000000    2    1    2    0    0  0.46028429408E+02 -0.70346206137E+03 -0.78705133023E+03  0.12152371741E+04  0.60031167296E+03 0.  0.
        -24    2    4    4    0    0 -0.90043102550E+01 -0.87094902125E+01  0.72016680115E+02  0.10504097067E+03  0.75433881521E+02 0.  0.
         24    2    4    4    0    0  0.55032739663E+02 -0.69475257116E+03 -0.85906801035E+03  0.11101962034E+04  0.93957575840E+02 0.  0.
         11    1    5    5    0    0  0.31269660634E+02 -0.16615767357E+02  0.32346357701E+02  0.47960006855E+02  0.00000000000E+00 0. -1.
        -12    1    5    5    0    0 -0.40273970889E+02  0.79062771441E+01  0.39670322414E+02  0.57080963814E+02  0.00000000000E+00 0.  1.
         13    1    3    3    0    0 -0.14360737120E+02  0.23745155088E+03  0.24885532475E+02  0.23918352684E+03  0.00000000000E+00 0. -1.
        -14    1    3    3    0    0 -0.31667692287E+02  0.46601051049E+03 -0.59798552822E+02  0.47089755313E+03  0.00000000000E+00 0.  1.
          2    1    6    6  502    0 -0.25470144258E+02 -0.20219364600E+03 -0.23340493783E+03  0.30985297115E+03  0.00000000000E+00 0. -1.
         -1    1    6    6    0  502  0.80502883920E+02 -0.49255892516E+03 -0.62566307252E+03  0.80034323224E+03  0.00000000000E+00 0.  1.
<mgrwt>
<rscale>  0 0.74215460E+03</rscale>
<asrwt>0</asrwt>
<pdfrwt beam="1">  1        1 0.84873378E-01 0.74215460E+03</pdfrwt>
<pdfrwt beam="2">  1       -2 0.21132943E+00 0.74215460E+03</pdfrwt>
<totfact> 0.39048380E+00</totfact>
</mgrwt>
</event>
<event>
12    3  0.2269558E-007  0.1624622E+04  0.7818608E-02  0.8805563E-01
         -2   -1    0    0    0  501 -0.00000000000E+00  0.00000000000E+00  0.10716120247E+04  0.10716120247E+04  0.00000000000E+00 0.  1.
          1   -1    0    0  501    0  0.00000000000E+00 -0.00000000000E+00 -0.26507827283E+04  0.26507827283E+04  0.00000000000E+00 0. -1.
        -24    2    1    2    0    0 -0.34334619861E+03 -0.15332313677E+04 -0.12486988733E+04  0.20084458292E+04  0.76946303799E+02 0.  0.
    5000000    2    1    2    0    0  0.34334619861E+03  0.15332313677E+04 -0.33047183028E+03  0.17139489238E+04  0.59977015925E+03 0.  0.
        -24    2    4    4    0    0  0.49939916434E+03  0.10455133104E+04 -0.27180560726E+03  0.11925249580E+04  0.75761993519E+02 0.  0.
         24    2    4    4    0    0 -0.15605296573E+03  0.48771805725E+03 -0.58666223025E+02  0.52142396584E+03  0.78865676580E+02 0.  0.
         13    1    3    3    0    0 -0.19500983764E+03 -0.72293212958E+03 -0.56804904889E+03  0.93986138483E+03  0.00000000000E+00 0. -1.
        -14    1    3    3    0    0 -0.14833636097E+03 -0.81029923809E+03 -0.68064982439E+03  0.10685844443E+04  0.00000000000E+00 0.  1.
         13    1    5    5    0    0  0.98979385950E+02  0.26642793687E+03 -0.87496516227E+02  0.29738258984E+03  0.00000000000E+00 0. -1.
        -14    1    5    5    0    0  0.40041977839E+03  0.77908537355E+03 -0.18430909103E+03  0.89514236814E+03  0.00000000000E+00 0.  1.
          4    1    6    6  502    0 -0.32939641197E+01  0.96279090554E+02 -0.26972872105E+02  0.10004023844E+03  0.00000000000E+00 0. -1.
         -3    1    6    6    0  502 -0.15275900161E+03  0.39143896670E+03 -0.31693350920E+02  0.42138372740E+03  0.00000000000E+00 0.  1.
<mgrwt>
<rscale>  0 0.16246222E+04</rscale>
<asrwt>0</asrwt>
<pdfrwt beam="1">  1        1 0.40781272E+00 0.16246222E+04</pdfrwt>
<pdfrwt beam="2">  1       -2 0.16486339E+00 0.16246222E+04</pdfrwt>
<totfact> 0.20180561E-01</totfact>
</mgrwt>
</event>
<event>
12    3  0.2269558E-007  0.3383732E+03  0.7818608E-02  0.1067491E+00
          1   -1    0    0  501    0  0.00000000000E+00  0.00000000000E+00  0.13153305201E+04  0.13153305201E+04  0.00000000000E+00 0. -1.
         -2   -1    0    0    0  501 -0.00000000000E+00 -0.00000000000E+00 -0.20009074088E+03  0.20009074088E+03  0.00000000000E+00 0.  1.
        -24    2    1    2    0    0 -0.26232319525E+03  0.11679813528E+03  0.12633940017E+03  0.32363246279E+03  0.79505117869E+02 0.  0.
    5000000    2    1    2    0    0  0.26232319525E+03 -0.11679813528E+03  0.98890037904E+03  0.11917887982E+04  0.59998443033E+03 0.  0.
        -24    2    4    4    0    0  0.27712646588E+03 -0.94474970542E+02  0.13309719199E+03  0.33182940761E+03  0.81677996370E+02 0.  0.
         24    2    4    4    0    0 -0.14803270626E+02 -0.22323164734E+02  0.85580318705E+03  0.85995939057E+03  0.80084942137E+02 0.  0.
         11    1    3    3    0    0 -0.20409250244E+02 -0.10091299345E+02  0.20616591523E+02  0.30715072262E+02  0.00000000000E+00 0. -1.
        -12    1    3    3    0    0 -0.24191394501E+03  0.12688943462E+03  0.10572280864E+03  0.29291739053E+03  0.00000000000E+00 0.  1.
         13    1    5    5    0    0  0.10964805229E+03 -0.78008877650E+02  0.45084632858E+02  0.14191794983E+03  0.00000000000E+00 0. -1.
        -14    1    5    5    0    0  0.16747841358E+03 -0.16466092893E+02  0.88012559128E+02  0.18991145778E+03  0.00000000000E+00 0.  1.
          2    1    6    6  502    0 -0.40046901743E+02 -0.31648269294E+02  0.38234770159E+03  0.38573972080E+03  0.00000000000E+00 0. -1.
         -1    1    6    6    0  502  0.25243631117E+02  0.93251045606E+01  0.47345548546E+03  0.47421966977E+03  0.00000000000E+00 0.  1.
<mgrwt>
<rscale>  0 0.33837317E+03</rscale>
<asrwt>0</asrwt>
<pdfrwt beam="1">  1        1 0.20235854E+00 0.33837317E+03</pdfrwt>
<pdfrwt beam="2">  1       -2 0.30783192E-01 0.33837317E+03</pdfrwt>
<totfact> 0.81401372E+01</totfact>
</mgrwt>
</event>
<event>
12    3  0.2269558E-007  0.1629044E+04  0.7818608E-02  0.8802901E-01
         -2   -1    0    0    0  501 -0.00000000000E+00  0.00000000000E+00  0.15678965013E+04  0.15678965013E+04  0.00000000000E+00 0.  1.
          1   -1    0    0  501    0  0.00000000000E+00 -0.00000000000E+00 -0.23803683200E+04  0.23803683200E+04  0.00000000000E+00 0. -1.
        -24    2    1    2    0    0  0.15321257340E+04  0.38177213552E+03  0.65454334627E+03  0.17111165333E+04  0.79583729494E+02 0.  0.
    5000000    2    1    2    0    0 -0.15321257340E+04 -0.38177213552E+03 -0.14670151650E+04  0.22371482880E+04  0.59961632697E+03 0.  0.
        -24    2    4    4    0    0 -0.39602289220E+03  0.14447290288E+03 -0.44958077446E+03  0.62185438424E+03  0.82906282184E+02 0.  0.
         24    2    4    4    0    0 -0.11361028418E+04 -0.52624503840E+03 -0.10174343906E+04  0.16152939037E+04  0.79612490369E+02 0.  0.
         11    1    5    5    0    0 -0.35361104329E+03  0.14326395038E+03 -0.36896408524E+03  0.53075401611E+03  0.00000000000E+00 0. -1.
        -12    1    5    5    0    0 -0.42411848909E+02  0.12089524998E+01 -0.80616689218E+02  0.91100368136E+02  0.00000000000E+00 0.  1.
         13    1    3    3    0    0  0.23986859469E+03  0.89413478422E+02  0.10003733482E+03  0.27484392153E+03  0.00000000000E+00 0. -1.
        -14    1    3    3    0    0  0.12922571394E+04  0.29235865710E+03  0.55450601145E+03  0.14362726118E+04  0.00000000000E+00 0.  1.
          2    1    6    6  502    0 -0.35757359690E+03 -0.13828069054E+03 -0.27689221187E+03  0.47291619085E+03  0.00000000000E+00 0. -1.
         -1    1    6    6    0  502 -0.77852924495E+03 -0.38796434786E+03 -0.74054217870E+03  0.11423777129E+04  0.00000000000E+00 0.  1.
<mgrwt>
<rscale>  0 0.16290443E+04</rscale>
<asrwt>0</asrwt>
<pdfrwt beam="1">  1        1 0.36621051E+00 0.16290443E+04</pdfrwt>
<pdfrwt beam="2">  1       -2 0.24121485E+00 0.16290443E+04</pdfrwt>
<totfact> 0.96878626E-02</totfact>
</mgrwt>
</event>
<event>
12    3  0.2269558E-007  0.6330451E+03  0.7818608E-02  0.9839124E-01
          1   -1    0    0  501    0  0.00000000000E+00  0.00000000000E+00  0.20362019177E+04  0.20362019177E+04  0.00000000000E+00 0. -1.
         -2   -1    0    0    0  501 -0.00000000000E+00 -0.00000000000E+00 -0.28480069988E+03  0.28480069988E+03  0.00000000000E+00 0.  1.
        -24    2    1    2    0    0 -0.57096793526E+03 -0.24635445255E+03  0.50914880495E+03  0.80773946574E+03  0.80719511547E+02 0.  0.
    5000000    2    1    2    0    0  0.57096793526E+03  0.24635445255E+03  0.12422524129E+04  0.15132631519E+04  0.60006617141E+03 0.  0.
        -24    2    4    4    0    0  0.38991114758E+03  0.11754225680E+03  0.12019853665E+04  0.12735160138E+04  0.10595909980E+03 0.  0.
         24    2    4    4    0    0  0.18105678768E+03  0.12881219575E+03  0.40267046342E+02  0.23974713808E+03  0.80517780998E+02 0.  0.
         13    1    5    5    0    0  0.46390335500E+02  0.26737873720E+02  0.28717705259E+03  0.29212606295E+03  0.00000000000E+00 0. -1.
        -14    1    5    5    0    0  0.34352081208E+03  0.90804383078E+02  0.91480831395E+03  0.98138995083E+03  0.00000000000E+00 0.  1.
         13    1    3    3    0    0 -0.23495303452E+03 -0.95178128059E+02  0.15770561295E+03  0.29855127675E+03  0.00000000000E+00 0. -1.
        -14    1    3    3    0    0 -0.33601490074E+03 -0.15117632449E+03  0.35144319200E+03  0.50918818899E+03  0.00000000000E+00 0.  1.
          2    1    6    6  502    0  0.46233282058E+02  0.79010605131E+02  0.45926541008E+01  0.91658521506E+02  0.00000000000E+00 0. -1.
         -1    1    6    6    0  502  0.13482350562E+03  0.49801590617E+02  0.35674392241E+02  0.14808861657E+03  0.00000000000E+00 0.  1.
<mgrwt>
<rscale>  0 0.63304515E+03</rscale>
<asrwt>0</asrwt>
<pdfrwt beam="1">  1        1 0.31326182E+00 0.63304515E+03</pdfrwt>
<pdfrwt beam="2">  1       -2 0.43815494E-01 0.63304515E+03</pdfrwt>
<totfact> 0.12949057E+01</totfact>
</mgrwt>
</event>
<event>
12    3  0.2269558E-007  0.8587245E+03  0.7818608E-02  0.9478701E-01
          1   -1    0    0  501    0  0.00000000000E+00  0.00000000000E+00  0.18004579145E+04  0.18004579145E+04  0.00000000000E+00 0. -1.
         -2   -1    0    0    0  501 -0.00000000000E+00 -0.00000000000E+00 -0.57231092716E+03  0.57231092716E+03  0.00000000000E+00 0.  1.
        -24    2    1    2    0    0 -0.41229243889E+03  0.65481309163E+03  0.11526258851E+04  0.13906599074E+04  0.81383702281E+02 0.  0.
    5000000    2    1    2    0    0  0.41229243889E+03 -0.65481309163E+03  0.75521102259E+02  0.98210893424E+03  0.60005773198E+03 0.  0.
        -24    2    4    4    0    0 -0.11202906184E+03 -0.20236237345E+03  0.13925792186E+03  0.28185075391E+03  0.80907587978E+02 0.  0.
         24    2    4    4    0    0  0.52432150073E+03 -0.45245071817E+03 -0.63736819603E+02  0.70025818033E+03  0.81697297644E+02 0.  0.
         11    1    5    5    0    0 -0.73074679015E+02 -0.52431890186E+02  0.45724652917E+02  0.10089477541E+03  0.00000000000E+00 0. -1.
        -12    1    5    5    0    0 -0.38954382828E+02 -0.14993048327E+03  0.93533268945E+02  0.18095597850E+03  0.00000000000E+00 0.  1.
         13    1    3    3    0    0 -0.20532018830E+03  0.37338096071E+03  0.57632479618E+03  0.71674262621E+03  0.00000000000E+00 0. -1.
        -14    1    3    3    0    0 -0.20697225059E+03  0.28143213092E+03  0.57630108892E+03  0.67391728121E+03  0.00000000000E+00 0.  1.
          4    1    6    6  502    0  0.14082345819E+03 -0.77185747030E+02 -0.75549104931E+01  0.16076679568E+03  0.00000000000E+00 0. -1.
         -3    1    6    6    0  502  0.38349804255E+03 -0.37526497114E+03 -0.56181909110E+02  0.53949138465E+03  0.00000000000E+00 0.  1.
<mgrwt>
<rscale>  0 0.85872448E+03</rscale>
<asrwt>0</asrwt>
<pdfrwt beam="1">  1        1 0.27699352E+00 0.85872448E+03</pdfrwt>
<pdfrwt beam="2">  1       -2 0.88047836E-01 0.85872448E+03</pdfrwt>
<totfact> 0.40621196E+00</totfact>
</mgrwt>
</event>
<event>
12    3  0.2269558E-007  0.6997810E+03  0.7818608E-02  0.9717607E-01
         -4   -1    0    0    0  501 -0.00000000000E+00  0.00000000000E+00  0.19172006792E+03  0.19172006792E+03  0.00000000000E+00 0.  1.
          1   -1    0    0  501    0  0.00000000000E+00 -0.00000000000E+00 -0.31934053639E+04  0.31934053639E+04  0.00000000000E+00 0. -1.
        -24    2    1    2    0    0 -0.18989934429E+03 -0.58320442877E+03 -0.18375412304E+04  0.19388876488E+04  0.80860215602E+02 0.  0.
    5000000    2    1    2    0    0  0.18989934429E+03  0.58320442877E+03 -0.11641440655E+04  0.14462377830E+04  0.60015260806E+03 0.  0.
        -24    2    4    4    0    0 -0.13237349546E+03  0.64148910832E+02 -0.53196761416E+02  0.17592301783E+03  0.80505824114E+02 0.  0.
         24    2    4    4    0    0  0.32227283976E+03  0.51905551793E+03 -0.11109473041E+04  0.12703147652E+04  0.78849705928E+02 0.  0.
         13    1    3    3    0    0 -0.69629144628E+02 -0.33570185711E+03 -0.97583400159E+03  0.10343094089E+04  0.00000000000E+00 0. -1.
        -14    1    3    3    0    0 -0.12027019966E+03 -0.24750257166E+03 -0.86170722885E+03  0.90457823993E+03  0.00000000000E+00 0.  1.
         13    1    5    5    0    0 -0.11149330523E+03  0.83366342148E+02 -0.41947924347E+02  0.14539715428E+03  0.00000000000E+00 0. -1.
        -14    1    5    5    0    0 -0.20880190231E+02 -0.19217431316E+02 -0.11248837070E+02  0.30525863557E+02  0.00000000000E+00 0.  1.
          2    1    6    6  502    0  0.11957979145E+03  0.14014752765E+03 -0.38277449071E+03  0.42480226785E+03  0.00000000000E+00 0. -1.
         -1    1    6    6    0  502  0.20269304831E+03  0.37890799029E+03 -0.72817281341E+03  0.84551249732E+03  0.00000000000E+00 0.  1.
<mgrwt>
<rscale>  0 0.69978100E+03</rscale>
<asrwt>0</asrwt>
<pdfrwt beam="1">  1        1 0.49129315E+00 0.69978100E+03</pdfrwt>
<pdfrwt beam="2">  1       -4 0.29495394E-01 0.69978100E+03</pdfrwt>
<totfact> 0.25112148E+00</totfact>
</mgrwt>
</event>
<event>
12    3  0.2269558E-007  0.1131764E+04  0.7818608E-02  0.9174774E-01
          1   -1    0    0  501    0  0.00000000000E+00  0.00000000000E+00  0.15762664211E+04  0.15762664211E+04  0.00000000000E+00 0. -1.
         -2   -1    0    0    0  501 -0.00000000000E+00 -0.00000000000E+00 -0.10316773028E+04  0.10316773028E+04  0.00000000000E+00 0.  1.
        -24    2    1    2    0    0 -0.10895377039E+04  0.13020150257E+02  0.77920278235E+03  0.13418799777E+04  0.78885777459E+02 0.  0.
    5000000    2    1    2    0    0  0.10895377039E+04 -0.13020150257E+02 -0.23461366405E+03  0.12660637462E+04  0.60050970471E+03 0.  0.
        -24    2    4    4    0    0  0.58983154335E+03 -0.21421847628E+03 -0.33025200840E+03  0.71361527204E+03  0.79934737910E+02 0.  0.
         24    2    4    4    0    0  0.49970616054E+03  0.20119832603E+03  0.95638344356E+02  0.55244847411E+03  0.76587272819E+02 0.  0.
         13    1    5    5    0    0  0.45722888026E+03 -0.18715233035E+03 -0.22870321466E+03  0.54441657221E+03  0.00000000000E+00 0. -1.
        -14    1    5    5    0    0  0.13260266309E+03 -0.27066145932E+02 -0.10154879375E+03  0.16919869984E+03  0.00000000000E+00 0.  1.
         13    1    3    3    0    0 -0.66475167562E+03 -0.10637494132E+02  0.43340945708E+03  0.79363197013E+03  0.00000000000E+00 0. -1.
        -14    1    3    3    0    0 -0.42478602827E+03  0.23657644389E+02  0.34579332527E+03  0.54824800753E+03  0.00000000000E+00 0.  1.
          2    1    6    6  502    0  0.24274209636E+03  0.57547337186E+02  0.35600032171E+02  0.25199758660E+03  0.00000000000E+00 0. -1.
         -1    1    6    6    0  502  0.25696406418E+03  0.14365098884E+03  0.60038312186E+02  0.30045088751E+03  0.00000000000E+00 0.  1.
<mgrwt>
<rscale>  0 0.11317640E+04</rscale>
<asrwt>0</asrwt>
<pdfrwt beam="1">  1        1 0.24250253E+00 0.11317640E+04</pdfrwt>
<pdfrwt beam="2">  1       -2 0.15871958E+00 0.11317640E+04</pdfrwt>
<totfact> 0.12859111E+00</totfact>
</mgrwt>
</event>
<event>
12    3  0.2269558E-007  0.1046480E+04  0.7818608E-02  0.9258985E-01
          1   -1    0    0  501    0  0.00000000000E+00  0.00000000000E+00  0.28721512413E+04  0.28721512413E+04  0.00000000000E+00 0. -1.
         -2   -1    0    0    0  501 -0.00000000000E+00 -0.00000000000E+00 -0.53745087240E+03  0.53745087240E+03  0.00000000000E+00 0.  1.
        -24    2    1    2    0    0 -0.37093924798E+03  0.96119028416E+03  0.18569667096E+04  0.21251645971E+04  0.80724940581E+02 0.  0.
    5000000    2    1    2    0    0  0.37093924798E+03 -0.96119028416E+03  0.47773365930E+03  0.12844375166E+04  0.60005632805E+03 0.  0.
        -24    2    4    4    0    0  0.36260933276E+03 -0.67217132405E+03  0.58541163904E+03  0.96567049043E+03  0.80702489903E+02 0.  0.
         24    2    4    4    0    0  0.83299152138E+01 -0.28901896011E+03 -0.10767797974E+03  0.31876702619E+03  0.80103201429E+02 0.  0.
         13    1    5    5    0    0  0.17933603721E+03 -0.28892014992E+03  0.21731079275E+03  0.40355947259E+03  0.00000000000E+00 0. -1.
        -14    1    5    5    0    0  0.18327329556E+03 -0.38325117413E+03  0.36810084629E+03  0.56211101784E+03  0.00000000000E+00 0.  1.
         13    1    3    3    0    0 -0.25402019270E+03  0.62201014446E+03  0.12834502355E+04  0.14486778059E+04  0.00000000000E+00 0. -1.
        -14    1    3    3    0    0 -0.11691905528E+03  0.33918013970E+03  0.57351647407E+03  0.67648679121E+03  0.00000000000E+00 0.  1.
          4    1    6    6  502    0 -0.29105960830E+02 -0.17586130782E+03 -0.43870785915E+02  0.18357288035E+03  0.00000000000E+00 0. -1.
         -3    1    6    6    0  502  0.37435876044E+02 -0.11315765229E+03 -0.63807193825E+02  0.13519414584E+03  0.00000000000E+00 0.  1.
<mgrwt>
<rscale>  0 0.10464805E+04</rscale>
<asrwt>0</asrwt>
<pdfrwt beam="1">  1        1 0.44186941E+00 0.10464805E+04</pdfrwt>
<pdfrwt beam="2">  1       -2 0.82684751E-01 0.10464805E+04</pdfrwt>
<totfact> 0.84510581E-01</totfact>
</mgrwt>
</event>
<event>
12    3  0.2269558E-007  0.8104271E+03  0.7818608E-02  0.9545046E-01
          1   -1    0    0  501    0  0.00000000000E+00  0.00000000000E+00  0.28690032170E+04  0.28690032170E+04  0.00000000000E+00 0. -1.
         -2   -1    0    0    0  501 -0.00000000000E+00 -0.00000000000E+00 -0.25727897189E+03  0.25727897189E+03  0.00000000000E+00 0.  1.
        -24    2    1    2    0    0  0.40685361650E+03  0.60968928887E+03  0.14554828760E+04  0.16315117308E+04  0.78417034131E+02 0.  0.
    5000000    2    1    2    0    0 -0.40685361650E+03 -0.60968928887E+03  0.11562413692E+04  0.14947704581E+04  0.60016141535E+03 0.  0.
        -24    2    4    4    0    0 -0.99897784003E+02  0.63412296032E+02  0.31109839796E+02  0.14585153447E+03  0.79398749600E+02 0.  0.
         24    2    4    4    0    0 -0.30695583250E+03 -0.67310158490E+03  0.11251315294E+04  0.13489189237E+04  0.79835314854E+02 0.  0.
         11    1    5    5    0    0 -0.79082829006E+02  0.36362486288E+01  0.18829101268E+02  0.81374757771E+02  0.00000000000E+00 0. -1.
        -12    1    5    5    0    0 -0.20814954997E+02  0.59776047403E+02  0.12280738527E+02  0.64476776698E+02  0.00000000000E+00 0.  1.
         13    1    3    3    0    0  0.15913441601E+03  0.17709454290E+03  0.50078774108E+03  0.55450392343E+03  0.00000000000E+00 0. -1.
        -14    1    3    3    0    0  0.24771920050E+03  0.43259474596E+03  0.95469513488E+03  0.10770078073E+04  0.00000000000E+00 0.  1.
          2    1    6    6  502    0 -0.25883239980E+03 -0.51260074861E+03  0.91329800608E+03  0.10788266712E+04  0.00000000000E+00 0. -1.
         -1    1    6    6    0  502 -0.48123432698E+02 -0.16050083629E+03  0.21183352331E+03  0.27009225243E+03  0.00000000000E+00 0.  1.
<mgrwt>
<rscale>  0 0.81042714E+03</rscale>
<asrwt>0</asrwt>
<pdfrwt beam="1">  1        1 0.44138509E+00 0.81042714E+03</pdfrwt>
<pdfrwt beam="2">  1       -2 0.39581382E-01 0.81042714E+03</pdfrwt>
<totfact> 0.41489829E+00</totfact>
</mgrwt>
</event>
<event>
12    3  0.2269558E-007  0.5411120E+03  0.7818608E-02  0.1003572E+00
          1   -1    0    0  501    0  0.00000000000E+00  0.00000000000E+00  0.41282333779E+04  0.41282333779E+04  0.00000000000E+00 0. -1.
         -2   -1    0    0    0  501 -0.00000000000E+00 -0.00000000000E+00 -0.10484981956E+03  0.10484981956E+03  0.00000000000E+00 0.  1.
        -24    2    1    2    0    0  0.49242936556E+03 -0.62914349223E+02  0.20724752369E+04  0.21324454394E+04  0.75664053378E+02 0.  0.
    5000000    2    1    2    0    0 -0.49242936556E+03  0.62914349223E+02  0.19509083214E+04  0.21006377580E+04  0.60015899276E+03 0.  0.
        -24    2    4    4    0    0  0.22052921076E+02 -0.40937738628E+01  0.10832253436E+04  0.10862638040E+04  0.78030868240E+02 0.  0.
         24    2    4    4    0    0 -0.51448228663E+03  0.67008123086E+02  0.86768297776E+03  0.10143739541E+04  0.83058154217E+02 0.  0.
         11    1    3    3    0    0  0.11877997081E+03 -0.47828227195E+02  0.50523063075E+03  0.52120457695E+03  0.00000000000E+00 0. -1.
        -12    1    3    3    0    0  0.37364939475E+03 -0.15086122029E+02  0.15672446062E+04  0.16112408625E+04  0.00000000000E+00 0.  1.
         13    1    5    5    0    0 -0.18737793119E+02 -0.10225983531E+01  0.78740592670E+03  0.78762950935E+03  0.00000000000E+00 0. -1.
        -14    1    5    5    0    0  0.40790714195E+02 -0.30711755097E+01  0.29581941692E+03  0.29863429460E+03  0.00000000000E+00 0.  1.
          2    1    6    6  502    0 -0.15798711131E+03  0.96807166606E+00  0.20295700282E+03  0.25720110711E+03  0.00000000000E+00 0. -1.
         -1    1    6    6    0  502 -0.35649517532E+03  0.66040051420E+02  0.66472597493E+03  0.75717284696E+03  0.00000000000E+00 0.  1.
<mgrwt>
<rscale>  0 0.54111197E+03</rscale>
<asrwt>0</asrwt>
<pdfrwt beam="1">  1        1 0.63511270E+00 0.54111197E+03</pdfrwt>
<pdfrwt beam="2">  1       -2 0.16130745E-01 0.54111197E+03</pdfrwt>
<totfact> 0.23302063E+00</totfact>
</mgrwt>
</event>
<event>
12    3  0.2269558E-007  0.1128658E+04  0.7818608E-02  0.9177702E-01
          1   -1    0    0  501    0  0.00000000000E+00  0.00000000000E+00  0.39116218309E+03  0.39116218309E+03  0.00000000000E+00 0. -1.
         -2   -1    0    0    0  501 -0.00000000000E+00 -0.00000000000E+00 -0.35039621996E+04  0.35039621996E+04  0.00000000000E+00 0.  1.
        -24    2    1    2    0    0  0.10607769875E+04 -0.56655566024E+02 -0.18774498781E+04  0.21589903180E+04  0.89238321606E+02 0.  0.
    5000000    2    1    2    0    0 -0.10607769875E+04  0.56655566024E+02 -0.12353501384E+04  0.17361340646E+04  0.59967812670E+03 0.  0.
        -24    2    4    4    0    0 -0.11663270389E+03  0.20045286711E+03 -0.37964998386E+03  0.45177737227E+03  0.78639330479E+02 0.  0.
         24    2    4    4    0    0 -0.94414428363E+03 -0.14379730109E+03 -0.85570015451E+03  0.12843566924E+04  0.72548375017E+02 0.  0.
         13    1    3    3    0    0  0.29560123122E+03 -0.55946105968E+02 -0.52670544593E+03  0.60657125009E+03  0.00000000000E+00 0. -1.
        -14    1    3    3    0    0  0.76517575631E+03 -0.70946005660E+00 -0.13507444322E+04  0.15524190679E+04  0.00000000000E+00 0.  1.
         13    1    5    5    0    0 -0.92711376302E+02  0.11671187379E+03 -0.29400735469E+03  0.32963219714E+03  0.00000000000E+00 0. -1.
        -14    1    5    5    0    0 -0.23921327588E+02  0.83740993319E+02 -0.85642629168E+02  0.12214517513E+03  0.00000000000E+00 0.  1.
          2    1    6    6  502    0 -0.72425848469E+03 -0.11660355842E+03 -0.69619567559E+03  0.10113531338E+04  0.00000000000E+00 0. -1.
         -1    1    6    6    0  502 -0.21988579894E+03 -0.27193742671E+02 -0.15950447892E+03  0.27300355860E+03  0.00000000000E+00 0.  1.
<mgrwt>
<rscale>  0 0.11286577E+04</rscale>
<asrwt>0</asrwt>
<pdfrwt beam="1">  1        1 0.60178798E-01 0.11286577E+04</pdfrwt>
<pdfrwt beam="2">  1       -2 0.53907110E+00 0.11286577E+04</pdfrwt>
<totfact> 0.52032216E-02</totfact>
</mgrwt>
</event>
<event>
12    3  0.2269558E-007  0.6629065E+03  0.7818608E-02  0.9782858E-01
          1   -1    0    0  501    0  0.00000000000E+00  0.00000000000E+00  0.21969948183E+04  0.21969948183E+04  0.00000000000E+00 0. -1.
         -2   -1    0    0    0  501 -0.00000000000E+00 -0.00000000000E+00 -0.20849122160E+03  0.20849122160E+03  0.00000000000E+00 0.  1.
        -24    2    1    2    0    0  0.23152163647E+03  0.48798970601E+03  0.83500158689E+03  0.99742428606E+03  0.76755032273E+02 0.  0.
    5000000    2    1    2    0    0 -0.23152163647E+03 -0.48798970601E+03  0.11535020098E+04  0.14080617538E+04  0.60027893071E+03 0.  0.
        -24    2    4    4    0    0 -0.31774202170E+03 -0.38587508553E+02  0.35865151042E+03  0.48726973650E+03  0.79698820626E+02 0.  0.
         24    2    4    4    0    0  0.86220385223E+02 -0.44940219746E+03  0.79485049937E+03  0.92079201733E+03  0.81696590578E+02 0.  0.
         11    1    5    5    0    0 -0.21123807167E+02  0.10306102690E+02  0.55796556440E+02  0.60544914670E+02  0.00000000000E+00 0. -1.
        -12    1    5    5    0    0 -0.29661821453E+03 -0.48893611243E+02  0.30285495399E+03  0.42672482183E+03  0.00000000000E+00 0.  1.
         11    1    3    3    0    0  0.23436526098E+03  0.46444756169E+03  0.78049041558E+03  0.93797862552E+03  0.00000000000E+00 0. -1.
        -12    1    3    3    0    0 -0.28436245033E+01  0.23542144321E+02  0.54511171311E+02  0.59445660541E+02  0.00000000000E+00 0.  1.
          2    1    6    6  502    0  0.40361561620E+02 -0.24110875948E+03  0.50359367074E+03  0.55979377878E+03  0.00000000000E+00 0. -1.
         -3    1    6    6    0  502  0.45858823603E+02 -0.20829343798E+03  0.29125682863E+03  0.36099823855E+03  0.00000000000E+00 0.  1.
<mgrwt>
<rscale>  0 0.66290653E+03</rscale>
<asrwt>0</asrwt>
<pdfrwt beam="1">  1        1 0.33799919E+00 0.66290653E+03</pdfrwt>
<pdfrwt beam="2">  1       -2 0.32075574E-01 0.66290653E+03</pdfrwt>
<totfact> 0.18340971E+01</totfact>
</mgrwt>
</event>
<event>
12    3  0.2269558E-007  0.5694850E+03  0.7818608E-02  0.9970819E-01
         -2   -1    0    0    0  501 -0.00000000000E+00  0.00000000000E+00  0.93773390179E+03  0.93773390179E+03  0.00000000000E+00 0.  1.
          1   -1    0    0  501    0  0.00000000000E+00 -0.00000000000E+00 -0.40722040289E+03  0.40722040289E+03  0.00000000000E+00 0. -1.
        -24    2    1    2    0    0 -0.35978350085E+03 -0.26766873445E+03  0.57412287961E+02  0.45905079268E+03  0.79628767231E+02 0.  0.
    5000000    2    1    2    0    0  0.35978350085E+03  0.26766873445E+03  0.47310121094E+03  0.88590351200E+03  0.59992462685E+03 0.  0.
        -24    2    4    4    0    0  0.45950628719E+03  0.30374027608E+03  0.21583489934E+03  0.59644895498E+03  0.75910927064E+02 0.  0.
         24    2    4    4    0    0 -0.99722786343E+02 -0.36071541628E+02  0.25726631160E+03  0.28945455702E+03  0.79700660359E+02 0.  0.
         13    1    3    3    0    0 -0.12271932316E+03 -0.51176567917E+02  0.27215089731E+00  0.13296295517E+03  0.00000000000E+00 0. -1.
        -14    1    3    3    0    0 -0.23706417769E+03 -0.21649216653E+03  0.57140137064E+02  0.32608783752E+03  0.00000000000E+00 0.  1.
         13    1    5    5    0    0  0.15492285443E+03  0.12583768528E+03  0.45353260558E+02  0.20467811829E+03  0.00000000000E+00 0. -1.
        -14    1    5    5    0    0  0.30458343276E+03  0.17790259079E+03  0.17048163878E+03  0.39177083669E+03  0.00000000000E+00 0.  1.
          2    1    6    6  502    0 -0.90733185973E+02  0.47352636735E+01  0.17826376540E+03  0.20008224262E+03  0.00000000000E+00 0. -1.
         -1    1    6    6    0  502 -0.89896003705E+01 -0.40806805302E+02  0.79002546208E+02  0.89372314400E+02  0.00000000000E+00 0.  1.
<mgrwt>
<rscale>  0 0.56948499E+03</rscale>
<asrwt>0</asrwt>
<pdfrwt beam="1">  1        1 0.62649293E-01 0.56948499E+03</pdfrwt>
<pdfrwt beam="2">  1       -2 0.14426675E+00 0.56948499E+03</pdfrwt>
<totfact> 0.17623731E+01</totfact>
</mgrwt>
</event>
<event>
12    3  0.2269558E-007  0.7693868E+03  0.7818608E-02  0.9605417E-01
         -2   -1    0    0    0  501 -0.00000000000E+00  0.00000000000E+00  0.26828300142E+03  0.26828300142E+03  0.00000000000E+00 0.  1.
          1   -1    0    0  501    0  0.00000000000E+00 -0.00000000000E+00 -0.29480540716E+04  0.29480540716E+04  0.00000000000E+00 0. -1.
        -24    2    1    2    0    0 -0.42980033162E+03  0.50755290786E+03 -0.43278816490E+03  0.79739966186E+03  0.78754972661E+02 0.  0.
    5000000    2    1    2    0    0  0.42980033162E+03 -0.50755290786E+03 -0.22469829053E+04  0.24189374112E+04  0.59998978594E+03 0.  0.
        -24    2    4    4    0    0  0.10656277558E+03 -0.52558292625E+03 -0.16269503113E+04  0.17149031680E+04  0.79577149954E+02 0.  0.
         24    2    4    4    0    0  0.32323755604E+03  0.18030018396E+02 -0.62003259400E+03  0.70403424316E+03  0.80101178016E+02 0.  0.
         11    1    3    3    0    0 -0.55504469525E+02  0.44379497264E+02 -0.23681528014E+02  0.74907280579E+02  0.00000000000E+00 0. -1.
        -12    1    3    3    0    0 -0.37429586209E+03  0.46317341059E+03 -0.40910663689E+03  0.72249238128E+03  0.00000000000E+00 0.  1.
         13    1    5    5    0    0  0.18720790474E+02 -0.22510909748E+03 -0.59147491643E+03  0.63314070358E+03  0.00000000000E+00 0. -1.
        -14    1    5    5    0    0  0.87841985105E+02 -0.30047382877E+03 -0.10354753949E+04  0.10817624645E+04  0.00000000000E+00 0.  1.
          2    1    6    6  502    0  0.10269145103E+03  0.42959411898E+02 -0.21975355459E+03  0.24633852711E+03  0.00000000000E+00 0. -1.
         -1    1    6    6    0  502  0.22054610501E+03 -0.24929393502E+02 -0.40027903942E+03  0.45769571605E+03  0.00000000000E+00 0.  1.
<mgrwt>
<rscale>  0 0.76938679E+03</rscale>
<asrwt>0</asrwt>
<pdfrwt beam="1">  1        1 0.45354679E+00 0.76938679E+03</pdfrwt>
<pdfrwt beam="2">  1       -2 0.41274307E-01 0.76938679E+03</pdfrwt>
<totfact> 0.33831081E+00</totfact>
</mgrwt>
</event>
<event>
12    3  0.2269558E-007  0.4725860E+03  0.7818608E-02  0.1021193E+00
          1   -1    0    0  501    0  0.00000000000E+00  0.00000000000E+00  0.33370289564E+03  0.33370289564E+03  0.00000000000E+00 0. -1.
         -2   -1    0    0    0  501 -0.00000000000E+00 -0.00000000000E+00 -0.94481567830E+03  0.94481567830E+03  0.00000000000E+00 0.  1.
        -24    2    1    2    0    0 -0.33292919492E+03 -0.14712235912E+03 -0.41733421832E+02  0.37480616371E+03  0.79064179466E+02 0.  0.
    5000000    2    1    2    0    0  0.33292919492E+03  0.14712235912E+03 -0.56937936083E+03  0.90371241022E+03  0.60001368857E+03 0.  0.
        -24    2    4    4    0    0 -0.40708414801E+02 -0.10756432426E+03 -0.38533850868E+03  0.40989159737E+03  0.79360547085E+02 0.  0.
         24    2    4    4    0    0  0.37363760972E+03  0.25468668338E+03 -0.18404085215E+03  0.49382081285E+03  0.74280480971E+02 0.  0.
         13    1    5    5    0    0 -0.84562182207E+01 -0.69356251791E+02 -0.32042194048E+03  0.32795124216E+03  0.00000000000E+00 0. -1.
        -14    1    5    5    0    0 -0.32252196580E+02 -0.38208072470E+02 -0.64916568199E+02  0.81940355215E+02  0.00000000000E+00 0.  1.
         13    1    3    3    0    0 -0.24369978232E+03 -0.67789777253E+02 -0.32900598596E+02  0.25508329461E+03  0.00000000000E+00 0. -1.
        -14    1    3    3    0    0 -0.89229412604E+02 -0.79332581869E+02 -0.88328232362E+01  0.11972286910E+03  0.00000000000E+00 0.  1.
          4    1    6    6  502    0  0.31272248787E+03  0.20093583504E+03 -0.12073778102E+03  0.39083011141E+03  0.00000000000E+00 0. -1.
         -3    1    6    6    0  502  0.60915121856E+02  0.53750848342E+02 -0.63303071132E+02  0.10299070144E+03  0.00000000000E+00 0.  1.
<mgrwt>
<rscale>  0 0.47258595E+03</rscale>
<asrwt>0</asrwt>
<pdfrwt beam="1">  1        1 0.51338907E-01 0.47258595E+03</pdfrwt>
<pdfrwt beam="2">  1       -2 0.14535626E+00 0.47258595E+03</pdfrwt>
<totfact> 0.22658352E+01</totfact>
</mgrwt>
</event>
<event>
12    3  0.2269558E-007  0.7605179E+03  0.7818608E-02  0.9618992E-01
         -2   -1    0    0    0  501 -0.00000000000E+00  0.00000000000E+00  0.73031830487E+03  0.73031830487E+03  0.00000000000E+00 0.  1.
          1   -1    0    0  501    0  0.00000000000E+00 -0.00000000000E+00 -0.13974500791E+04  0.13974500791E+04  0.00000000000E+00 0. -1.
        -24    2    1    2    0    0  0.49502794567E+03  0.42450503357E+03  0.37753657616E+03  0.75790064071E+03  0.81377664768E+02 0.  0.
    5000000    2    1    2    0    0 -0.49502794567E+03 -0.42450503357E+03 -0.10446683504E+04  0.13698677433E+04  0.59995706615E+03 0.  0.
        -24    2    4    4    0    0 -0.21243973029E+03  0.12389934415E+03 -0.38103190770E+03  0.46033199466E+03  0.78984455031E+02 0.  0.
         24    2    4    4    0    0 -0.28258821539E+03 -0.54840437772E+03 -0.66363644274E+03  0.90953574866E+03  0.78984105771E+02 0.  0.
         11    1    5    5    0    0 -0.18457325678E+03  0.97041739878E+02 -0.26017708067E+03  0.33343140179E+03  0.00000000000E+00 0. -1.
        -12    1    5    5    0    0 -0.27866473506E+02  0.26857604272E+02 -0.12085482703E+03  0.12690059286E+03  0.00000000000E+00 0.  1.
         13    1    3    3    0    0  0.77075877282E+02  0.65510708423E+02  0.94765714336E+02  0.13861054935E+03  0.00000000000E+00 0. -1.
        -14    1    3    3    0    0  0.41795206839E+03  0.35899432515E+03  0.28277086183E+03  0.61929009136E+03  0.00000000000E+00 0.  1.
          4    1    6    6  502    0 -0.19705686156E+03 -0.45031235715E+03 -0.53564777532E+03  0.72700148892E+03  0.00000000000E+00 0. -1.
         -1    1    6    6    0  502 -0.85531353829E+02 -0.98092020573E+02 -0.12798866743E+03  0.18253425974E+03  0.00000000000E+00 0.  1.
<mgrwt>
<rscale>  0 0.76051794E+03</rscale>
<asrwt>0</asrwt>
<pdfrwt beam="1">  1        1 0.21499232E+00 0.76051794E+03</pdfrwt>
<pdfrwt beam="2">  1       -2 0.11235666E+00 0.76051794E+03</pdfrwt>
<totfact> 0.43493308E+00</totfact>
</mgrwt>
</event>
<event>
12    3  0.2269558E-007  0.6148206E+03  0.7818608E-02  0.9875126E-01
          1   -1    0    0  501    0  0.00000000000E+00  0.00000000000E+00  0.38148083378E+03  0.38148083378E+03  0.00000000000E+00 0. -1.
         -2   -1    0    0    0  501 -0.00000000000E+00 -0.00000000000E+00 -0.11192524933E+04  0.11192524933E+04  0.00000000000E+00 0.  1.
        -24    2    1    2    0    0 -0.49235339163E+03 -0.42733012439E+02 -0.14113136080E+03  0.52093403919E+03  0.84948452559E+02 0.  0.
    5000000    2    1    2    0    0  0.49235339163E+03  0.42733012439E+02 -0.59664029873E+03  0.97979928790E+03  0.59982416249E+03 0.  0.
        -24    2    4    4    0    0 -0.40522001341E+02  0.17998915167E+03 -0.83960863359E+02  0.22377122483E+03  0.94794552440E+02 0.  0.
         24    2    4    4    0    0  0.53287539297E+03 -0.13725613924E+03 -0.51267943537E+03  0.75602806307E+03  0.77089535684E+02 0.  0.
         13    1    3    3    0    0 -0.26192232873E+03 -0.13175353216E+02 -0.11764078270E+03  0.28743042632E+03  0.00000000000E+00 0. -1.
        -14    1    3    3    0    0 -0.23043106290E+03 -0.29557659223E+02 -0.23490578099E+02  0.23350361288E+03  0.00000000000E+00 0.  1.
         13    1    5    5    0    0 -0.28726154212E+02  0.13107431598E+03 -0.10319750068E+02  0.13458144556E+03  0.00000000000E+00 0. -1.
        -14    1    5    5    0    0 -0.11795847129E+02  0.48914835691E+02 -0.73641113291E+02  0.89189779274E+02  0.00000000000E+00 0.  1.
          2    1    6    6  502    0  0.28817816201E+03 -0.64901282366E+02 -0.22388419922E+03  0.37065207968E+03  0.00000000000E+00 0. -1.
         -1    1    6    6    0  502  0.24469723096E+03 -0.72354856869E+02 -0.28879523615E+03  0.38537598339E+03  0.00000000000E+00 0.  1.
<mgrwt>
<rscale>  0 0.61482063E+03</rscale>
<asrwt>0</asrwt>
<pdfrwt beam="1">  1        1 0.58689359E-01 0.61482063E+03</pdfrwt>
<pdfrwt beam="2">  1       -2 0.17219269E+00 0.61482063E+03</pdfrwt>
<totfact> 0.11884911E+01</totfact>
</mgrwt>
</event>
<event>
12    3  0.2269558E-007  0.2392526E+03  0.7818608E-02  0.1120292E+00
          3   -1    0    0  501    0  0.00000000000E+00  0.00000000000E+00  0.14767475467E+03  0.14767475467E+03  0.00000000000E+00 0. -1.
         -4   -1    0    0    0  501 -0.00000000000E+00 -0.00000000000E+00 -0.12942978366E+04  0.12942978366E+04  0.00000000000E+00 0.  1.
        -24    2    1    2    0    0 -0.98457638330E+02 -0.19607179464E+03 -0.23268273628E+03  0.32702870924E+03  0.68326171449E+02 0.  0.
    5000000    2    1    2    0    0  0.98457638330E+02  0.19607179464E+03 -0.91394034564E+03  0.11149438820E+04  0.59972898001E+03 0.  0.
        -24    2    4    4    0    0  0.31472069674E+02  0.70921984346E+02 -0.94139863044E+03  0.94802409674E+03  0.80609475766E+02 0.  0.
         24    2    4    4    0    0  0.66985568656E+02  0.12514981029E+03  0.27458284795E+02  0.16691978528E+03  0.83418918048E+02 0.  0.
         13    1    5    5    0    0 -0.22790114452E+02  0.47530545209E+02 -0.42554742803E+03  0.42879966832E+03  0.00000000000E+00 0. -1.
        -14    1    5    5    0    0  0.54262184125E+02  0.23391439137E+02 -0.51585120240E+03  0.51922442842E+03  0.00000000000E+00 0.  1.
         13    1    3    3    0    0 -0.70238105812E+01 -0.62367521222E+01  0.39420809269E+01  0.10186804904E+02  0.00000000000E+00 0. -1.
        -14    1    3    3    0    0 -0.91433827748E+02 -0.18983504252E+03 -0.23662481720E+03  0.31684190433E+03  0.00000000000E+00 0.  1.
          4    1    6    6  502    0  0.32016579862E+02  0.95608745938E+02 -0.17983379436E+02  0.10241823872E+03  0.00000000000E+00 0. -1.
         -3    1    6    6    0  502  0.34968988794E+02  0.29541064356E+02  0.45441664231E+02  0.64501546560E+02  0.00000000000E+00 0.  1.
<mgrwt>
<rscale>  0 0.23925257E+03</rscale>
<asrwt>0</asrwt>
<pdfrwt beam="1">  1        3 0.22719193E-01 0.23925257E+03</pdfrwt>
<pdfrwt beam="2">  1       -4 0.19912274E+00 0.23925257E+03</pdfrwt>
<totfact> 0.54883346E+00</totfact>
</mgrwt>
</event>
<event>
12    3  0.2269558E-007  0.6341463E+03  0.7818608E-02  0.9836991E-01
          1   -1    0    0  501    0  0.00000000000E+00  0.00000000000E+00  0.12502462365E+04  0.12502462365E+04  0.00000000000E+00 0. -1.
         -2   -1    0    0    0  501 -0.00000000000E+00 -0.00000000000E+00 -0.98499766088E+03  0.98499766088E+03  0.00000000000E+00 0.  1.
        -24    2    1    2    0    0  0.24636474306E+03 -0.57640378066E+03  0.94235683868E+03  0.11345895681E+04  0.79499507150E+02 0.  0.
    5000000    2    1    2    0    0 -0.24636474306E+03  0.57640378066E+03 -0.67710826305E+03  0.11006543293E+04  0.60002287266E+03 0.  0.
        -24    2    4    4    0    0 -0.16741468937E+03  0.35203119306E+03 -0.20574875996E+02  0.39789473735E+03  0.77092524857E+02 0.  0.
         24    2    4    4    0    0 -0.78950053687E+02  0.22437258760E+03 -0.65653338706E+03  0.70275959194E+03  0.79112493943E+02 0.  0.
         11    1    5    5    0    0 -0.60269891201E+02  0.77142789741E+02 -0.30978467312E+02  0.10267977031E+03  0.00000000000E+00 0. -1.
        -12    1    5    5    0    0 -0.10714479817E+03  0.27488840332E+03  0.10403591316E+02  0.29521496704E+03  0.00000000000E+00 0.  1.
         11    1    3    3    0    0  0.20156444028E+03 -0.52429568220E+03  0.86191813091E+03  0.10287939786E+04  0.00000000000E+00 0. -1.
        -12    1    3    3    0    0  0.44800302773E+02 -0.52108098459E+02  0.80438707768E+02  0.10579558952E+03  0.00000000000E+00 0.  1.
          2    1    6    6  502    0 -0.62786006543E+02  0.90801996911E+02 -0.22301843232E+03  0.24884594917E+03  0.00000000000E+00 0. -1.
         -1    1    6    6    0  502 -0.16164047144E+02  0.13357059069E+03 -0.43351495473E+03  0.45391364277E+03  0.00000000000E+00 0.  1.
<mgrwt>
<rscale>  0 0.63414632E+03</rscale>
<asrwt>0</asrwt>
<pdfrwt beam="1">  1        1 0.19234558E+00 0.63414632E+03</pdfrwt>
<pdfrwt beam="2">  1       -2 0.15153810E+00 0.63414632E+03</pdfrwt>
<totfact> 0.26402430E+00</totfact>
</mgrwt>
</event>
<event>
12    3  0.2269558E-007  0.6845998E+03  0.7818608E-02  0.9743937E-01
         -2   -1    0    0    0  501 -0.00000000000E+00  0.00000000000E+00  0.96215782503E+03  0.96215782503E+03  0.00000000000E+00 0.  1.
          1   -1    0    0  501    0  0.00000000000E+00 -0.00000000000E+00 -0.72062446725E+03  0.72062446725E+03  0.00000000000E+00 0. -1.
        -24    2    1    2    0    0 -0.64660902705E+03 -0.90764199374E+02 -0.20630290730E+03  0.68944547284E+03  0.80204717457E+02 0.  0.
    5000000    2    1    2    0    0  0.64660902705E+03  0.90764199374E+02  0.44783626508E+03  0.99333681944E+03  0.59984943342E+03 0.  0.
        -24    2    4    4    0    0  0.43989958545E+03  0.17955901402E+03  0.55190877854E+03  0.73290327753E+03  0.82406490034E+02 0.  0.
         24    2    4    4    0    0  0.20670944161E+03 -0.88794814645E+02 -0.10407251346E+03  0.26043354191E+03  0.79882597193E+02 0.  0.
         13    1    3    3    0    0 -0.25164153959E+03 -0.19688881745E+02 -0.11753219300E+03  0.27843299536E+03  0.00000000000E+00 0. -1.
        -14    1    3    3    0    0 -0.39496748746E+03 -0.71075317629E+02 -0.88770714304E+02  0.41101247748E+03  0.00000000000E+00 0.  1.
         13    1    5    5    0    0  0.38835634206E+03  0.14432569601E+03  0.51271156575E+03  0.65918412041E+03  0.00000000000E+00 0. -1.
        -14    1    5    5    0    0  0.51543243385E+02  0.35233318007E+02  0.39197212790E+02  0.73719157122E+02  0.00000000000E+00 0.  1.
          2    1    6    6  502    0  0.19858325835E+03 -0.10198690913E+03 -0.97298698509E+02  0.24352346266E+03  0.00000000000E+00 0. -1.
         -1    1    6    6    0  502  0.81261832531E+01  0.13192094487E+02 -0.67738149503E+01  0.16910079249E+02  0.00000000000E+00 0.  1.
<mgrwt>
<rscale>  0 0.68459977E+03</rscale>
<asrwt>0</asrwt>
<pdfrwt beam="1">  1        1 0.11086530E+00 0.68459977E+03</pdfrwt>
<pdfrwt beam="2">  1       -2 0.14802428E+00 0.68459977E+03</pdfrwt>
<totfact> 0.72976545E+00</totfact>
</mgrwt>
</event>
<event>
12    3  0.2269558E-007  0.4280706E+03  0.7818608E-02  0.1034471E+00
          1   -1    0    0  501    0  0.00000000000E+00  0.00000000000E+00  0.23825907433E+04  0.23825907433E+04  0.00000000000E+00 0. -1.
         -2   -1    0    0    0  501 -0.00000000000E+00 -0.00000000000E+00 -0.11888666622E+03  0.11888666622E+03  0.00000000000E+00 0.  1.
        -24    2    1    2    0    0  0.29150107733E+03 -0.18190970261E+03  0.54493602485E+03  0.64877154664E+03  0.76715256404E+02 0.  0.
    5000000    2    1    2    0    0 -0.29150107733E+03  0.18190970261E+03  0.17187680522E+04  0.18527058628E+04  0.60024276669E+03 0.  0.
        -24    2    4    4    0    0 -0.36573281996E+03  0.12278866203E+03  0.16658978997E+04  0.17118874333E+04  0.80654950567E+02 0.  0.
         24    2    4    4    0    0  0.74231742628E+02  0.59121040580E+02  0.52870152532E+02  0.14081842955E+03  0.89604285713E+02 0.  0.
         13    1    5    5    0    0 -0.19238009290E+03  0.36140505247E+02  0.70678208023E+03  0.73338744548E+03  0.00000000000E+00 0. -1.
        -14    1    5    5    0    0 -0.17335272706E+03  0.86648156780E+02  0.95911581944E+03  0.97849998781E+03  0.00000000000E+00 0.  1.
         13    1    3    3    0    0  0.26627628279E+03 -0.17014087450E+03  0.53033835697E+03  0.61734086923E+03  0.00000000000E+00 0. -1.
        -14    1    3    3    0    0  0.25224794547E+02 -0.11768828106E+02  0.14597667878E+02  0.31430677409E+02  0.00000000000E+00 0.  1.
          2    1    6    6  502    0  0.24715418428E+02 -0.18378260498E+02  0.35894822986E+02  0.47297470167E+02  0.00000000000E+00 0. -1.
         -1    1    6    6    0  502  0.49516324200E+02  0.77499301079E+02  0.16975329546E+02  0.93520959379E+02  0.00000000000E+00 0.  1.
<mgrwt>
<rscale>  0 0.42807057E+03</rscale>
<asrwt>0</asrwt>
<pdfrwt beam="1">  1        1 0.36655239E+00 0.42807057E+03</pdfrwt>
<pdfrwt beam="2">  1       -2 0.18290258E-01 0.42807057E+03</pdfrwt>
<totfact> 0.39327510E+01</totfact>
</mgrwt>
</event>
<event>
12    3  0.2269558E-007  0.1284790E+04  0.7818608E-02  0.9041715E-01
         -2   -1    0    0    0  501 -0.00000000000E+00  0.00000000000E+00  0.14518179143E+04  0.14518179143E+04  0.00000000000E+00 0.  1.
          1   -1    0    0  501    0  0.00000000000E+00 -0.00000000000E+00 -0.16629556607E+04  0.16629556607E+04  0.00000000000E+00 0. -1.
        -24    2    1    2    0    0  0.77107547808E+03  0.10248581183E+04  0.66788593472E+03  0.14482398932E+04  0.80222259030E+02 0.  0.
    5000000    2    1    2    0    0 -0.77107547808E+03 -0.10248581183E+04 -0.87902368110E+03  0.16665336819E+04  0.59980023783E+03 0.  0.
        -24    2    4    4    0    0 -0.12476443345E+03 -0.17623744187E+03  0.65507402572E+02  0.23956603069E+03  0.80466536523E+02 0.  0.
         24    2    4    4    0    0 -0.64631104464E+03 -0.84862067644E+03 -0.94453108367E+03  0.14269676512E+04  0.78884032486E+02 0.  0.
         11    1    3    3    0    0  0.66462526303E+03  0.83854285514E+03  0.54158015316E+03  0.11992455639E+04  0.00000000000E+00 0. -1.
        -12    1    3    3    0    0  0.10645021506E+03  0.18631526318E+03  0.12630578156E+03  0.24899432932E+03  0.00000000000E+00 0.  1.
         13    1    5    5    0    0 -0.10635428458E+03 -0.14850763614E+03  0.20821031877E+02  0.18384577017E+03  0.00000000000E+00 0. -1.
        -14    1    5    5    0    0 -0.18410148865E+02 -0.27729805737E+02  0.44686370695E+02  0.55720260528E+02  0.00000000000E+00 0.  1.
          2    1    6    6  502    0 -0.48310916455E+03 -0.58116348263E+03 -0.64638641238E+03  0.99446510875E+03  0.00000000000E+00 0. -1.
         -1    1    6    6    0  502 -0.16320188009E+03 -0.26745719381E+03 -0.29814467129E+03  0.43250254242E+03  0.00000000000E+00 0.  1.
<mgrwt>
<rscale>  0 0.12847898E+04</rscale>
<asrwt>0</asrwt>
<pdfrwt beam="1">  1        1 0.25583933E+00 0.12847898E+04</pdfrwt>
<pdfrwt beam="2">  1       -2 0.22335660E+00 0.12847898E+04</pdfrwt>
<totfact> 0.40216800E-01</totfact>
</mgrwt>
</event>
<event>
12    3  0.2269558E-007  0.7008214E+03  0.7818608E-02  0.9715829E-01
          1   -1    0    0  501    0  0.00000000000E+00  0.00000000000E+00  0.54840079849E+03  0.54840079849E+03  0.00000000000E+00 0. -1.
         -2   -1    0    0    0  501 -0.00000000000E+00 -0.00000000000E+00 -0.21280801536E+04  0.21280801536E+04  0.00000000000E+00 0.  1.
        -24    2    1    2    0    0  0.12332301270E+03  0.66636898795E+03  0.17295211769E+03  0.70389708819E+03  0.79388174108E+02 0.  0.
    5000000    2    1    2    0    0 -0.12332301270E+03 -0.66636898795E+03 -0.17526314728E+04  0.19725838639E+04  0.60009484841E+03 0.  0.
        -24    2    4    4    0    0 -0.72575275269E+01 -0.22018046778E+02 -0.85154115770E+03  0.85557716140E+03  0.79702382407E+02 0.  0.
         24    2    4    4    0    0 -0.11606548517E+03 -0.64435094117E+03 -0.90109031512E+03  0.11170067025E+04  0.84147995952E+02 0.  0.
         11    1    3    3    0    0  0.36942288794E+02  0.40513311342E+03  0.11433643881E+03  0.42257590269E+03  0.00000000000E+00 0. -1.
        -12    1    3    3    0    0  0.86380723904E+02  0.26123587453E+03  0.58615678880E+02  0.28132118550E+03  0.00000000000E+00 0.  1.
         13    1    5    5    0    0 -0.12568231199E+02  0.19003771550E+02 -0.87517518142E+02  0.90434615885E+02  0.00000000000E+00 0. -1.
        -14    1    5    5    0    0  0.53107036718E+01 -0.41021818328E+02 -0.76402363955E+03  0.76514254551E+03  0.00000000000E+00 0.  1.
          4    1    6    6  502    0 -0.11646881693E+03 -0.60100945874E+03 -0.80282192189E+03  0.10096040774E+04  0.00000000000E+00 0. -1.
         -3    1    6    6    0  502  0.40333176033E+00 -0.43341482430E+02 -0.98268393231E+02  0.10740262513E+03  0.00000000000E+00 0.  1.
<mgrwt>
<rscale>  0 0.70082140E+03</rscale>
<asrwt>0</asrwt>
<pdfrwt beam="1">  1        1 0.84369354E-01 0.70082140E+03</pdfrwt>
<pdfrwt beam="2">  1       -2 0.32739695E+00 0.70082140E+03</pdfrwt>
<totfact> 0.78230322E-01</totfact>
</mgrwt>
</event>
<event>
12    3  0.2269558E-007  0.4760047E+03  0.7818608E-02  0.1020239E+00
         -2   -1    0    0    0  501 -0.00000000000E+00  0.00000000000E+00  0.11688585170E+04  0.11688585170E+04  0.00000000000E+00 0.  1.
          1   -1    0    0  501    0  0.00000000000E+00 -0.00000000000E+00 -0.21587436111E+03  0.21587436111E+03  0.00000000000E+00 0. -1.
        -24    2    1    2    0    0  0.17183431692E+03 -0.25479227034E+03  0.20553205366E+03  0.37835091089E+03  0.80373211892E+02 0.  0.
    5000000    2    1    2    0    0 -0.17183431692E+03  0.25479227034E+03  0.74745210224E+03  0.10063819672E+04  0.59972817620E+03 0.  0.
        -24    2    4    4    0    0 -0.19405097119E+03  0.41098022641E+03  0.66854607321E+03  0.81237277507E+03  0.80219372621E+02 0.  0.
         24    2    4    4    0    0  0.22216654274E+02 -0.15618795607E+03  0.78906029023E+02  0.19400919216E+03  0.80778387441E+02 0.  0.
         11    1    3    3    0    0 -0.34448984325E+01 -0.37326729742E+02  0.33774021197E+02  0.50456283913E+02  0.00000000000E+00 0. -1.
        -12    1    3    3    0    0  0.17527921535E+03 -0.21746554060E+03  0.17175803246E+03  0.32789462698E+03  0.00000000000E+00 0.  1.
         13    1    5    5    0    0 -0.15135004382E+03  0.36596463088E+03  0.60854068199E+03  0.72605695951E+03  0.00000000000E+00 0. -1.
        -14    1    5    5    0    0 -0.42700927374E+02  0.45015595531E+02  0.60005391227E+02  0.86315815561E+02  0.00000000000E+00 0.  1.
          2    1    6    6  502    0  0.48404568223E+02 -0.58120964648E+02  0.36877116060E+02  0.84148502336E+02  0.00000000000E+00 0. -1.
         -1    1    6    6    0  502 -0.26187913949E+02 -0.98066991422E+02  0.42028912963E+02  0.10986068982E+03  0.00000000000E+00 0.  1.
<mgrwt>
<rscale>  0 0.47600467E+03</rscale>
<asrwt>0</asrwt>
<pdfrwt beam="1">  1        1 0.33211441E-01 0.47600467E+03</pdfrwt>
<pdfrwt beam="2">  1       -2 0.17982438E+00 0.47600467E+03</pdfrwt>
<totfact> 0.22300322E+01</totfact>
</mgrwt>
</event>
<event>
12    3  0.2269558E-007  0.8157071E+03  0.7818608E-02  0.9537556E-01
         -2   -1    0    0    0  501 -0.00000000000E+00  0.00000000000E+00  0.23984380676E+04  0.23984380676E+04  0.00000000000E+00 0.  1.
          1   -1    0    0  501    0  0.00000000000E+00 -0.00000000000E+00 -0.32101031534E+03  0.32101031534E+03  0.00000000000E+00 0. -1.
        -24    2    1    2    0    0  0.75518344663E+03 -0.13116824770E+02  0.11711412530E+04  0.13958879177E+04  0.80356424302E+02 0.  0.
    5000000    2    1    2    0    0 -0.75518344663E+03  0.13116824770E+02  0.90628649920E+03  0.13235604653E+04  0.59998583103E+03 0.  0.
        -24    2    4    4    0    0 -0.72191594790E+03 -0.12555941367E+03  0.89392459108E+03  0.11584493127E+04  0.77303514042E+02 0.  0.
         24    2    4    4    0    0 -0.33267498728E+02  0.13867623844E+03  0.12361908129E+02  0.16511115261E+03  0.82286392340E+02 0.  0.
         11    1    5    5    0    0 -0.61264095169E+03 -0.95438460983E+02  0.71229873083E+03  0.94435529197E+03  0.00000000000E+00 0. -1.
        -12    1    5    5    0    0 -0.10927499621E+03 -0.30120952687E+02  0.18162586024E+03  0.21409402069E+03  0.00000000000E+00 0.  1.
         13    1    3    3    0    0  0.33884716472E+03 -0.60011225148E+01  0.45270875948E+03  0.56550741411E+03  0.00000000000E+00 0. -1.
        -14    1    3    3    0    0  0.41633628190E+03 -0.71157022552E+01  0.71843249356E+03  0.83038050354E+03  0.00000000000E+00 0.  1.
          4    1    6    6  502    0 -0.29560033794E+02  0.11339187558E+03  0.43352003702E+02  0.12494362437E+03  0.00000000000E+00 0. -1.
         -3    1    6    6    0  502 -0.37074649340E+01  0.25284362861E+02 -0.30990095573E+02  0.40167528242E+02  0.00000000000E+00 0.  1.
<mgrwt>
<rscale>  0 0.81570709E+03</rscale>
<asrwt>0</asrwt>
<pdfrwt beam="1">  1        1 0.49386204E-01 0.81570709E+03</pdfrwt>
<pdfrwt beam="2">  1       -2 0.36899046E+00 0.81570709E+03</pdfrwt>
<totfact> 0.86750020E-01</totfact>
</mgrwt>
</event>
<event>
12    3  0.2269558E-007  0.6611747E+03  0.7818608E-02  0.9786034E-01
         -2   -1    0    0    0  501 -0.00000000000E+00  0.00000000000E+00  0.16188224629E+04  0.16188224629E+04  0.00000000000E+00 0.  1.
          1   -1    0    0  501    0  0.00000000000E+00 -0.00000000000E+00 -0.42875036555E+03  0.42875036555E+03  0.00000000000E+00 0. -1.
        -24    2    1    2    0    0  0.34408612532E+03  0.42688535625E+03 -0.58723940105E+02  0.55756962588E+03  0.82516771261E+02 0.  0.
    5000000    2    1    2    0    0 -0.34408612532E+03 -0.42688535625E+03  0.12487960374E+04  0.14900032025E+04  0.59999302619E+03 0.  0.
        -24    2    4    4    0    0 -0.48181423431E+03 -0.26894171927E+03  0.10596835419E+04  0.11972366335E+04  0.77277053205E+02 0.  0.
         24    2    4    4    0    0  0.13772810899E+03 -0.15794363698E+03  0.18911249552E+03  0.29276656900E+03  0.77675630009E+02 0.  0.
         11    1    5    5    0    0 -0.39338475391E+03 -0.22730868253E+03  0.92793903318E+03  0.10331948756E+04  0.00000000000E+00 0. -1.
        -12    1    5    5    0    0 -0.88429480404E+02 -0.41633036740E+02  0.13174450870E+03  0.16404175787E+03  0.00000000000E+00 0.  1.
         13    1    3    3    0    0  0.24861185322E+03  0.32497572678E+03 -0.87769258754E+01  0.40926044395E+03  0.00000000000E+00 0. -1.
        -14    1    3    3    0    0  0.95474272107E+02  0.10190962947E+03 -0.49947014229E+02  0.14830918193E+03  0.00000000000E+00 0.  1.
          2    1    6    6  502    0 -0.51376506483E+01  0.32421856990E+01  0.13704397366E+02  0.14990588029E+02  0.00000000000E+00 0. -1.
         -1    1    6    6    0  502  0.14286575964E+03 -0.16118582268E+03  0.17540809815E+03  0.27777598098E+03  0.00000000000E+00 0.  1.
<mgrwt>
<rscale>  0 0.66117469E+03</rscale>
<asrwt>0</asrwt>
<pdfrwt beam="1">  1        1 0.65961596E-01 0.66117469E+03</pdfrwt>
<pdfrwt beam="2">  1       -2 0.24904961E+00 0.66117469E+03</pdfrwt>
<totfact> 0.32613375E+00</totfact>
</mgrwt>
</event>
<event>
12    3  0.2269558E-007  0.6229157E+03  0.7818608E-02  0.9858972E-01
          1   -1    0    0  501    0  0.00000000000E+00  0.00000000000E+00  0.12244703188E+04  0.12244703188E+04  0.00000000000E+00 0. -1.
         -2   -1    0    0    0  501 -0.00000000000E+00 -0.00000000000E+00 -0.34068962315E+03  0.34068962315E+03  0.00000000000E+00 0.  1.
        -24    2    1    2    0    0 -0.34260326047E+03  0.36716604221E+03  0.31427186192E+03  0.59742073958E+03  0.77180569117E+02 0.  0.
    5000000    2    1    2    0    0  0.34260326047E+03 -0.36716604221E+03  0.56950883370E+03  0.96773920234E+03  0.59999246282E+03 0.  0.
        -24    2    4    4    0    0 -0.13682389456E+03 -0.14381138861E+02  0.22048689727E+03  0.27262881087E+03  0.82367477603E+02 0.  0.
         24    2    4    4    0    0  0.47942715503E+03 -0.35278490335E+03  0.34902193642E+03  0.69511039147E+03  0.83991423457E+02 0.  0.
         11    1    3    3    0    0 -0.16669333602E+03  0.13198912407E+03  0.15674759617E+03  0.26415451170E+03  0.00000000000E+00 0. -1.
        -12    1    3    3    0    0 -0.17590992445E+03  0.23517691814E+03  0.15752426576E+03  0.33326622789E+03  0.00000000000E+00 0.  1.
         11    1    5    5    0    0 -0.72298704741E+02 -0.18171363032E+02  0.18371699933E+03  0.19826557186E+03  0.00000000000E+00 0. -1.
        -12    1    5    5    0    0 -0.64525189820E+02  0.37902241709E+01  0.36769897941E+02  0.74363239004E+02  0.00000000000E+00 0.  1.
          4    1    6    6  502    0  0.18503238755E+03 -0.18421613680E+03  0.16957768212E+03  0.31133448215E+03  0.00000000000E+00 0. -1.
         -3    1    6    6    0  502  0.29439476748E+03 -0.16856876655E+03  0.17944425430E+03  0.38377590932E+03  0.00000000000E+00 0.  1.
<mgrwt>
<rscale>  0 0.62291569E+03</rscale>
<asrwt>0</asrwt>
<pdfrwt beam="1">  1        1 0.18838005E+00 0.62291569E+03</pdfrwt>
<pdfrwt beam="2">  1       -2 0.52413789E-01 0.62291569E+03</pdfrwt>
<totfact> 0.32142503E+01</totfact>
</mgrwt>
</event>
<event>
12    3  0.2269558E-007  0.1357502E+04  0.7818608E-02  0.8985169E-01
          1   -1    0    0  501    0  0.00000000000E+00  0.00000000000E+00  0.26723651414E+04  0.26723651414E+04  0.00000000000E+00 0. -1.
         -2   -1    0    0    0  501 -0.00000000000E+00 -0.00000000000E+00 -0.80639960131E+03  0.80639960131E+03  0.00000000000E+00 0.  1.
        -24    2    1    2    0    0  0.82154804318E+03  0.10336994500E+04  0.14654218969E+04  0.19741562559E+04  0.79723564919E+02 0.  0.
    5000000    2    1    2    0    0 -0.82154804318E+03 -0.10336994500E+04  0.40054364322E+03  0.15046084868E+04  0.59994645436E+03 0.  0.
        -24    2    4    4    0    0 -0.25875886559E+02  0.11488567081E+02  0.14008605972E+03  0.16294308738E+03  0.78261081763E+02 0.  0.
         24    2    4    4    0    0 -0.79567215662E+03 -0.10451880171E+04  0.26045758350E+03  0.13416653994E+04  0.81949491646E+02 0.  0.
         11    1    5    5    0    0 -0.46548633760E+02  0.26229283977E+02  0.67768063653E+02  0.86297514994E+02  0.00000000000E+00 0. -1.
        -12    1    5    5    0    0  0.20672747201E+02 -0.14740716895E+02  0.72317996069E+02  0.76645572390E+02  0.00000000000E+00 0.  1.
         13    1    3    3    0    0  0.64577920517E+03  0.85919959721E+03  0.11742191196E+04  0.15918684841E+04  0.00000000000E+00 0. -1.
        -14    1    3    3    0    0  0.17576883801E+03  0.17449985283E+03  0.29120277724E+03  0.38228777188E+03  0.00000000000E+00 0.  1.
          2    1    6    6  502    0 -0.16678423858E+03 -0.22949336880E+03  0.90323318758E+02  0.29772888754E+03  0.00000000000E+00 0. -1.
         -1    1    6    6    0  502 -0.62888791804E+03 -0.81569464831E+03  0.17013426474E+03  0.10439365119E+04  0.00000000000E+00 0.  1.
<mgrwt>
<rscale>  0 0.13575017E+04</rscale>
<asrwt>0</asrwt>
<pdfrwt beam="1">  1        1 0.41113310E+00 0.13575017E+04</pdfrwt>
<pdfrwt beam="2">  1       -2 0.12406148E+00 0.13575017E+04</pdfrwt>
<totfact> 0.42529590E-01</totfact>
</mgrwt>
</event>
<event>
12    3  0.2269558E-007  0.7232390E+03  0.7818608E-02  0.9678296E-01
          1   -1    0    0  501    0  0.00000000000E+00  0.00000000000E+00  0.65116282253E+03  0.65116282253E+03  0.00000000000E+00 0. -1.
         -4   -1    0    0    0  501 -0.00000000000E+00 -0.00000000000E+00 -0.10222741436E+04  0.10222741436E+04  0.00000000000E+00 0.  1.
        -24    2    1    2    0    0 -0.46430670385E+03 -0.51870606815E+03 -0.26131117974E+03  0.74788825732E+03  0.80103760214E+02 0.  0.
    5000000    2    1    2    0    0  0.46430670385E+03  0.51870606815E+03 -0.10980014136E+03  0.92554870883E+03  0.59995636591E+03 0.  0.
        -24    2    4    4    0    0  0.30884612978E+03  0.16615233599E+03  0.21174195602E+03  0.41744418013E+03  0.80202599396E+02 0.  0.
         24    2    4    4    0    0  0.15546057407E+03  0.35255373217E+03 -0.32154209739E+03  0.50810452870E+03  0.79490675805E+02 0.  0.
         11    1    5    5    0    0  0.15442036136E+03  0.52000306918E+02  0.63623223850E+02  0.17492168115E+03  0.00000000000E+00 0. -1.
        -12    1    5    5    0    0  0.15442576842E+03  0.11415202907E+03  0.14811873217E+03  0.24252249898E+03  0.00000000000E+00 0.  1.
         11    1    3    3    0    0 -0.31193046623E+03 -0.38393656609E+03 -0.21429668477E+03  0.53910200486E+03  0.00000000000E+00 0. -1.
        -12    1    3    3    0    0 -0.15237623762E+03 -0.13476950206E+03 -0.47014494967E+02  0.20878625246E+03  0.00000000000E+00 0.  1.
          4    1    6    6  502    0  0.16496908054E+03  0.33066420519E+03 -0.30338249726E+03  0.47811562804E+03  0.00000000000E+00 0. -1.
         -3    1    6    6    0  502 -0.95085064651E+01  0.21889526976E+02 -0.18159600125E+02  0.29988900665E+02  0.00000000000E+00 0.  1.
<mgrwt>
<rscale>  0 0.72323898E+03</rscale>
<asrwt>0</asrwt>
<pdfrwt beam="1">  1        1 0.10017890E+00 0.72323898E+03</pdfrwt>
<pdfrwt beam="2">  1       -4 0.15727295E+00 0.72323898E+03</pdfrwt>
<totfact> 0.38479405E+00</totfact>
</mgrwt>
</event>
<event>
12    3  0.2269558E-007  0.4482537E+03  0.7818608E-02  0.1028244E+00
          1   -1    0    0  501    0  0.00000000000E+00  0.00000000000E+00  0.63653822356E+03  0.63653822356E+03  0.00000000000E+00 0. -1.
         -2   -1    0    0    0  501 -0.00000000000E+00 -0.00000000000E+00 -0.43203965367E+03  0.43203965367E+03  0.00000000000E+00 0.  1.
        -24    2    1    2    0    0  0.29054099672E+03 -0.14913354338E+03  0.18677640549E+03  0.38524505028E+03  0.82906203494E+02 0.  0.
    5000000    2    1    2    0    0 -0.29054099672E+03  0.14913354338E+03  0.17722164401E+02  0.68333282696E+03  0.59997899359E+03 0.  0.
        -24    2    4    4    0    0 -0.37463932472E+03  0.22000659400E+03 -0.15193356274E+03  0.46710273161E+03  0.79646904283E+02 0.  0.
         24    2    4    4    0    0  0.84098328002E+02 -0.70873050625E+02  0.16965572714E+03  0.21623009534E+03  0.76660748115E+02 0.  0.
         13    1    3    3    0    0  0.63026589197E+02 -0.64736941373E+01  0.11041816168E+02  0.64313150801E+02  0.00000000000E+00 0. -1.
        -14    1    3    3    0    0  0.22751440752E+03 -0.14265984924E+03  0.17573458932E+03  0.32093189947E+03  0.00000000000E+00 0.  1.
         13    1    5    5    0    0 -0.35876406493E+03  0.18973140828E+03 -0.15061969444E+03  0.43289254316E+03  0.00000000000E+00 0. -1.
        -14    1    5    5    0    0 -0.15875259790E+02  0.30275185721E+02 -0.13138683029E+01  0.34210188450E+02  0.00000000000E+00 0.  1.
          4    1    6    6  502    0 -0.91768155592E+01 -0.61497716428E+01  0.50315209288E+02  0.51513628496E+02  0.00000000000E+00 0. -1.
         -3    1    6    6    0  502  0.93275143561E+02 -0.64723278982E+02  0.11934051786E+03  0.16471646685E+03  0.00000000000E+00 0.  1.
<mgrwt>
<rscale>  0 0.44825369E+03</rscale>
<asrwt>0</asrwt>
<pdfrwt beam="1">  1        1 0.97928958E-01 0.44825369E+03</pdfrwt>
<pdfrwt beam="2">  1       -2 0.66467639E-01 0.44825369E+03</pdfrwt>
<totfact> 0.59855881E+01</totfact>
</mgrwt>
</event>
<event>
12    3  0.2269558E-007  0.1927146E+04  0.7818608E-02  0.8641461E-01
         -2   -1    0    0    0  501 -0.00000000000E+00  0.00000000000E+00  0.15680648328E+04  0.15680648328E+04  0.00000000000E+00 0.  1.
          1   -1    0    0  501    0  0.00000000000E+00 -0.00000000000E+00 -0.24049958968E+04  0.24049958968E+04  0.00000000000E+00 0. -1.
        -24    2    1    2    0    0  0.14999543141E+04  0.11528768470E+04 -0.31455627290E+03  0.19206532349E+04  0.10476273897E+03 0.  0.
    5000000    2    1    2    0    0 -0.14999543141E+04 -0.11528768470E+04 -0.52237479110E+03  0.20524074946E+04  0.60042745872E+03 0.  0.
        -24    2    4    4    0    0 -0.14527326194E+02 -0.14214520794E+03 -0.13662369256E+03  0.21315662912E+03  0.79708292069E+02 0.  0.
         24    2    4    4    0    0 -0.14854269879E+04 -0.10107316390E+04 -0.38575109854E+03  0.18392508655E+04  0.77253180608E+02 0.  0.
         13    1    3    3    0    0  0.92851529545E+03  0.75160002362E+03 -0.15725290291E+03  0.12048949020E+04  0.00000000000E+00 0. -1.
        -14    1    3    3    0    0  0.57143901860E+03  0.40127682333E+03 -0.15730336998E+03  0.71575833291E+03  0.00000000000E+00 0.  1.
         13    1    5    5    0    0  0.19430408791E+02 -0.27125601498E+01 -0.11369930629E+02  0.22675407182E+02  0.00000000000E+00 0. -1.
        -14    1    5    5    0    0 -0.33957734985E+02 -0.13943264779E+03 -0.12525376193E+03  0.19048122194E+03  0.00000000000E+00 0.  1.
          4    1    6    6  502    0 -0.70291140640E+03 -0.43209484322E+03 -0.18196354420E+03  0.84492670108E+03  0.00000000000E+00 0. -1.
         -3    1    6    6    0  502 -0.78251558146E+03 -0.57863679579E+03 -0.20378755434E+03  0.99432416443E+03  0.00000000000E+00 0.  1.
<mgrwt>
<rscale>  0 0.19271462E+04</rscale>
<asrwt>0</asrwt>
<pdfrwt beam="1">  1        1 0.36999937E+00 0.19271462E+04</pdfrwt>
<pdfrwt beam="2">  1       -2 0.24124074E+00 0.19271462E+04</pdfrwt>
<totfact> 0.90304266E-02</totfact>
</mgrwt>
</event>
<event>
12    3  0.2269558E-007  0.7289777E+03  0.7818608E-02  0.9668921E-01
         -2   -1    0    0    0  501 -0.00000000000E+00  0.00000000000E+00  0.30105675357E+03  0.30105675357E+03  0.00000000000E+00 0.  1.
          1   -1    0    0  501    0  0.00000000000E+00 -0.00000000000E+00 -0.23164355177E+04  0.23164355177E+04  0.00000000000E+00 0. -1.
        -24    2    1    2    0    0 -0.29020792264E+02  0.62459224683E+03 -0.30452276894E+03  0.69968986177E+03  0.76642707946E+02 0.  0.
    5000000    2    1    2    0    0  0.29020792264E+02 -0.62459224683E+03 -0.17108559952E+04  0.19178024095E+04  0.59998347012E+03 0.  0.
        -24    2    4    4    0    0  0.27678959892E+03 -0.40839576479E+03 -0.12487965395E+04  0.13450452449E+04  0.79084329232E+02 0.  0.
         24    2    4    4    0    0 -0.24776880666E+03 -0.21619648204E+03 -0.46205945570E+03  0.57275716456E+03  0.80134440461E+02 0.  0.
         11    1    3    3    0    0  0.16654604479E+02  0.36027484081E+03 -0.19454947959E+03  0.40978633064E+03  0.00000000000E+00 0. -1.
        -12    1    3    3    0    0 -0.45675396742E+02  0.26431740602E+03 -0.10997328935E+03  0.28990353113E+03  0.00000000000E+00 0.  1.
         11    1    5    5    0    0  0.16021569628E+03 -0.19371229786E+03 -0.71788385522E+03  0.76062523838E+03  0.00000000000E+00 0. -1.
        -12    1    5    5    0    0  0.11657390265E+03 -0.21468346693E+03 -0.53091268426E+03  0.58442000655E+03  0.00000000000E+00 0.  1.
          2    1    6    6  502    0 -0.13200628774E+03 -0.78855334169E+02 -0.26287911496E+03  0.30454761994E+03  0.00000000000E+00 0. -1.
         -1    1    6    6    0  502 -0.11576251892E+03 -0.13734114787E+03 -0.19918034075E+03  0.26820954462E+03  0.00000000000E+00 0.  1.
<mgrwt>
<rscale>  0 0.72897774E+03</rscale>
<asrwt>0</asrwt>
<pdfrwt beam="1">  1        1 0.35637470E+00 0.72897774E+03</pdfrwt>
<pdfrwt beam="2">  1       -2 0.46316423E-01 0.72897774E+03</pdfrwt>
<totfact> 0.74064399E+00</totfact>
</mgrwt>
</event>
<event>
12    3  0.2269558E-007  0.8280557E+03  0.7818608E-02  0.9520272E-01
          1   -1    0    0  501    0  0.00000000000E+00  0.00000000000E+00  0.74184297352E+03  0.74184297352E+03  0.00000000000E+00 0. -1.
         -2   -1    0    0    0  501 -0.00000000000E+00 -0.00000000000E+00 -0.17207739645E+04  0.17207739645E+04  0.00000000000E+00 0.  1.
        -24    2    1    2    0    0  0.59956590020E+02 -0.79745889691E+03 -0.11944939638E+04  0.14398432785E+04  0.82446055035E+02 0.  0.
    5000000    2    1    2    0    0 -0.59956590020E+02  0.79745889691E+03  0.21556297285E+03  0.10227736595E+04  0.60005256305E+03 0.  0.
        -24    2    4    4    0    0  0.10181093095E+03  0.22895512376E+03 -0.16949399456E+03  0.31252753574E+03  0.78481412099E+02 0.  0.
         24    2    4    4    0    0 -0.16176752098E+03  0.56850377315E+03  0.38505696741E+03  0.71024612379E+03  0.82555540573E+02 0.  0.
         11    1    3    3    0    0  0.50424114011E+02 -0.76409686533E+03 -0.11658760168E+04  0.13948668386E+04  0.00000000000E+00 0. -1.
        -12    1    3    3    0    0  0.95324760089E+01 -0.33362031584E+02 -0.28617946959E+02  0.44976439815E+02  0.00000000000E+00 0.  1.
         13    1    5    5    0    0  0.60628548085E+02  0.20111409212E+03 -0.11788981028E+03  0.24087487678E+03  0.00000000000E+00 0. -1.
        -14    1    5    5    0    0  0.41182382870E+02  0.27841031637E+02 -0.51604184279E+02  0.71652658963E+02  0.00000000000E+00 0.  1.
          4    1    6    6  502    0 -0.11538652737E+03  0.26735907831E+03  0.20786026063E+03  0.35777201596E+03  0.00000000000E+00 0. -1.
         -3    1    6    6    0  502 -0.46380993601E+02  0.30114469484E+03  0.17719670679E+03  0.35247410783E+03  0.00000000000E+00 0.  1.
<mgrwt>
<rscale>  0 0.82805574E+03</rscale>
<asrwt>0</asrwt>
<pdfrwt beam="1">  1        1 0.11412969E+00 0.82805574E+03</pdfrwt>
<pdfrwt beam="2">  1       -2 0.26473445E+00 0.82805574E+03</pdfrwt>
<totfact> 0.11714860E+00</totfact>
</mgrwt>
</event>
<event>
12    3  0.2269558E-007  0.2073115E+04  0.7818608E-02  0.8573180E-01
          1   -1    0    0  501    0  0.00000000000E+00  0.00000000000E+00  0.25291902953E+04  0.25291902953E+04  0.00000000000E+00 0. -1.
         -2   -1    0    0    0  501 -0.00000000000E+00 -0.00000000000E+00 -0.24439167380E+04  0.24439167380E+04  0.00000000000E+00 0.  1.
        -24    2    1    2    0    0  0.11944591382E+04 -0.16587596835E+04  0.13915904711E+04  0.24740695199E+04  0.79244117109E+02 0.  0.
    5000000    2    1    2    0    0 -0.11944591382E+04  0.16587596835E+04 -0.13063169138E+04  0.24990375133E+04  0.60042342850E+03 0.  0.
        -24    2    4    4    0    0 -0.80433411371E+03  0.14305868438E+04 -0.84389381198E+03  0.18472403854E+04  0.81290782753E+02 0.  0.
         24    2    4    4    0    0 -0.39012502446E+03  0.22817283969E+03 -0.46242310181E+03  0.65179712796E+03  0.82121808595E+02 0.  0.
         13    1    3    3    0    0  0.70330915214E+03 -0.90943804995E+03  0.78080546881E+03  0.13897404471E+04  0.00000000000E+00 0. -1.
        -14    1    3    3    0    0  0.49114998603E+03 -0.74932163350E+03  0.61078500226E+03  0.10843290728E+04  0.00000000000E+00 0.  1.
         13    1    5    5    0    0 -0.72803234609E+03  0.13054238739E+04 -0.74225120252E+03  0.16688617184E+04  0.00000000000E+00 0. -1.
        -14    1    5    5    0    0 -0.76301767621E+02  0.12516296988E+03 -0.10164260946E+03  0.17837866697E+03  0.00000000000E+00 0.  1.
          2    1    6    6  502    0 -0.44204459743E+02 -0.12863562528E+01 -0.42596552376E+02  0.61401589946E+02  0.00000000000E+00 0. -1.
         -1    1    6    6    0  502 -0.34592056472E+03  0.22945919594E+03 -0.41982654943E+03  0.59039553801E+03  0.00000000000E+00 0.  1.
<mgrwt>
<rscale>  0 0.20731150E+04</rscale>
<asrwt>0</asrwt>
<pdfrwt beam="1">  1        1 0.38910620E+00 0.20731150E+04</pdfrwt>
<pdfrwt beam="2">  1       -2 0.37598719E+00 0.20731150E+04</pdfrwt>
<totfact> 0.10553322E-02</totfact>
</mgrwt>
</event>
<event>
12    3  0.2269558E-007  0.1003055E+04  0.7818608E-02  0.9305201E-01
         -2   -1    0    0    0  501 -0.00000000000E+00  0.00000000000E+00  0.49608310989E+03  0.49608310989E+03  0.00000000000E+00 0.  1.
          1   -1    0    0  501    0  0.00000000000E+00 -0.00000000000E+00 -0.21960674330E+04  0.21960674330E+04  0.00000000000E+00 0. -1.
        -24    2    1    2    0    0  0.93245268082E+03  0.15489406331E+03 -0.59804810340E+03  0.11212731382E+04  0.78305450568E+02 0.  0.
    5000000    2    1    2    0    0 -0.93245268082E+03 -0.15489406331E+03 -0.11019362197E+04  0.15708774047E+04  0.59994351024E+03 0.  0.
        -24    2    4    4    0    0 -0.30032991107E+03 -0.27577832322E+03 -0.20324107866E+03  0.46259470555E+03  0.80219614226E+02 0.  0.
         24    2    4    4    0    0 -0.63212276976E+03  0.12088425991E+03 -0.89869514103E+03  0.11082826991E+04  0.80283151173E+02 0.  0.
         13    1    3    3    0    0  0.73303750066E+03  0.89911934009E+02 -0.47529215607E+03  0.87825438620E+03  0.00000000000E+00 0. -1.
        -14    1    3    3    0    0  0.19941518016E+03  0.64982129305E+02 -0.12275594733E+03  0.24301875198E+03  0.00000000000E+00 0.  1.
         13    1    5    5    0    0 -0.21116619364E+03 -0.17033905073E+03 -0.96115157105E+02  0.28782751253E+03  0.00000000000E+00 0. -1.
        -14    1    5    5    0    0 -0.89163717421E+02 -0.10543927250E+03 -0.10712592155E+03  0.17476719302E+03  0.00000000000E+00 0.  1.
          2    1    6    6  502    0 -0.28814697092E+03  0.14953546896E+02 -0.38959679885E+03  0.48480712772E+03  0.00000000000E+00 0. -1.
         -1    1    6    6    0  502 -0.34397579884E+03  0.10593071301E+03 -0.50909834218E+03  0.62347557141E+03  0.00000000000E+00 0.  1.
<mgrwt>
<rscale>  0 0.10030550E+04</rscale>
<asrwt>0</asrwt>
<pdfrwt beam="1">  1        1 0.33785653E+00 0.10030550E+04</pdfrwt>
<pdfrwt beam="2">  1       -2 0.76320479E-01 0.10030550E+04</pdfrwt>
<totfact> 0.29855051E+00</totfact>
</mgrwt>
</event>
<event>
12    3  0.2269558E-007  0.6949178E+03  0.7818608E-02  0.9725963E-01
         -2   -1    0    0    0  501 -0.00000000000E+00  0.00000000000E+00  0.64120736612E+03  0.64120736612E+03  0.00000000000E+00 0.  1.
          1   -1    0    0  501    0  0.00000000000E+00 -0.00000000000E+00 -0.96592510649E+03  0.96592510649E+03  0.00000000000E+00 0. -1.
        -24    2    1    2    0    0  0.18361740576E+03 -0.59531105568E+03  0.11217697253E+03  0.63805746958E+03  0.80143974252E+02 0.  0.
    5000000    2    1    2    0    0 -0.18361740576E+03  0.59531105568E+03 -0.43689471290E+03  0.96907500303E+03  0.60009896402E+03 0.  0.
        -24    2    4    4    0    0 -0.15641171921E+03  0.66609973629E+03 -0.49105411206E+03  0.84715214537E+03  0.91537598059E+02 0.  0.
         24    2    4    4    0    0 -0.27205686553E+02 -0.70788680602E+02  0.54159399160E+02  0.12192285765E+03  0.78617784365E+02 0.  0.
         13    1    3    3    0    0  0.70542033229E+02 -0.12020622397E+03  0.15870588305E+02  0.14027683454E+03  0.00000000000E+00 0. -1.
        -14    1    3    3    0    0  0.11307537253E+03 -0.47510483171E+03  0.96306384226E+02  0.49778063505E+03  0.00000000000E+00 0.  1.
         13    1    5    5    0    0 -0.10114249763E+03  0.51699766309E+03 -0.41634350453E+03  0.67145982920E+03  0.00000000000E+00 0. -1.
        -14    1    5    5    0    0 -0.55269221575E+02  0.14910207320E+03 -0.74710607528E+02  0.17569231617E+03  0.00000000000E+00 0.  1.
          2    1    6    6  502    0 -0.23562757172E+02 -0.51423522148E+02 -0.76211845298E+01  0.57075954738E+02  0.00000000000E+00 0. -1.
         -1    1    6    6    0  502 -0.36429293816E+01 -0.19365158455E+02  0.61780583690E+02  0.64846902914E+02  0.00000000000E+00 0.  1.
<mgrwt>
<rscale>  0 0.69491784E+03</rscale>
<asrwt>0</asrwt>
<pdfrwt beam="1">  1        1 0.14860386E+00 0.69491784E+03</pdfrwt>
<pdfrwt beam="2">  1       -2 0.98647287E-01 0.69491784E+03</pdfrwt>
<totfact> 0.12400012E+01</totfact>
</mgrwt>
</event>
<event>
12    3  0.2269558E-007  0.7240936E+03  0.7818608E-02  0.9676894E-01
         -2   -1    0    0    0  501 -0.00000000000E+00  0.00000000000E+00  0.39611877624E+03  0.39611877624E+03  0.00000000000E+00 0.  1.
          1   -1    0    0  501    0  0.00000000000E+00 -0.00000000000E+00 -0.14566051182E+04  0.14566051182E+04  0.00000000000E+00 0. -1.
        -24    2    1    2    0    0  0.35793716128E+03  0.51071505364E+03 -0.28385863976E+03  0.68990017649E+03  0.80234959465E+02 0.  0.
    5000000    2    1    2    0    0 -0.35793716128E+03 -0.51071505364E+03 -0.77662770223E+03  0.11628237180E+04  0.60004960945E+03 0.  0.
        -24    2    4    4    0    0 -0.39067350515E+03 -0.59165581389E+03 -0.76058381699E+03  0.10429106828E+04  0.80576423176E+02 0.  0.
         24    2    4    4    0    0  0.32736343871E+02  0.80940760249E+02 -0.16043885246E+02  0.11991303515E+03  0.80614234884E+02 0.  0.
         13    1    3    3    0    0  0.18437369357E+03  0.23404365217E+03 -0.17549441259E+03  0.34578660884E+03  0.00000000000E+00 0. -1.
        -14    1    3    3    0    0  0.17356346771E+03  0.27667140147E+03 -0.10836422717E+03  0.34411356765E+03  0.00000000000E+00 0.  1.
         13    1    5    5    0    0 -0.25643515761E+03 -0.36831080483E+03 -0.42555406616E+03  0.61847239408E+03  0.00000000000E+00 0. -1.
        -14    1    5    5    0    0 -0.13423834754E+03 -0.22334500906E+03 -0.33502975082E+03  0.42443828875E+03  0.00000000000E+00 0.  1.
          4    1    6    6  502    0 -0.23376697496E+02  0.33134174244E+02  0.99399588887E+01  0.41751003238E+02  0.00000000000E+00 0. -1.
         -3    1    6    6    0  502  0.56113041368E+02  0.47806586004E+02 -0.25983844135E+02  0.78162031914E+02  0.00000000000E+00 0.  1.
<mgrwt>
<rscale>  0 0.72409362E+03</rscale>
<asrwt>0</asrwt>
<pdfrwt beam="1">  1        1 0.22409310E+00 0.72409362E+03</pdfrwt>
<pdfrwt beam="2">  1       -2 0.60941349E-01 0.72409362E+03</pdfrwt>
<totfact> 0.15942564E+01</totfact>
</mgrwt>
</event>
<event>
12    3  0.2269558E-007  0.5941539E+03  0.7818608E-02  0.9917610E-01
         -2   -1    0    0    0  501 -0.00000000000E+00  0.00000000000E+00  0.46605232335E+03  0.46605232335E+03  0.00000000000E+00 0.  1.
          1   -1    0    0  501    0  0.00000000000E+00 -0.00000000000E+00 -0.10033366164E+04  0.10033366164E+04  0.00000000000E+00 0. -1.
        -24    2    1    2    0    0 -0.33259100140E+03  0.36880729649E+03  0.33240060286E+02  0.50393719291E+03  0.78817489455E+02 0.  0.
    5000000    2    1    2    0    0  0.33259100140E+03 -0.36880729649E+03 -0.57052435337E+03  0.96545174687E+03  0.59996953389E+03 0.  0.
        -24    2    4    4    0    0  0.34764381545E+03 -0.46886927735E+03 -0.59167203815E+03  0.83486098612E+03  0.78882467936E+02 0.  0.
         24    2    4    4    0    0 -0.15052814054E+02  0.10006198086E+03  0.21147684786E+02  0.13059076075E+03  0.79798088932E+02 0.  0.
         11    1    3    3    0    0 -0.49200893709E+02  0.80643038233E+02  0.32098715959E+02  0.99771514589E+02  0.00000000000E+00 0. -1.
        -12    1    3    3    0    0 -0.28339010769E+03  0.28816425825E+03  0.11413443271E+01  0.40416567833E+03  0.00000000000E+00 0.  1.
         13    1    5    5    0    0  0.58927078794E+01 -0.77516206041E+01 -0.31042779248E+02  0.32534070934E+02  0.00000000000E+00 0. -1.
        -14    1    5    5    0    0  0.34175110757E+03 -0.46111765674E+03 -0.56062925891E+03  0.80232691518E+03  0.00000000000E+00 0.  1.
          2    1    6    6  502    0  0.99412448692E+01  0.28170003854E+02 -0.27216441915E+02  0.40411782653E+02  0.00000000000E+00 0. -1.
         -1    1    6    6    0  502 -0.24994058923E+02  0.71891977008E+02  0.48364126701E+02  0.90178978100E+02  0.00000000000E+00 0.  1.
<mgrwt>
<rscale>  0 0.59415393E+03</rscale>
<asrwt>0</asrwt>
<pdfrwt beam="1">  1        1 0.15435948E+00 0.59415393E+03</pdfrwt>
<pdfrwt beam="2">  1       -2 0.71700358E-01 0.59415393E+03</pdfrwt>
<totfact> 0.24224088E+01</totfact>
</mgrwt>
</event>
<event>
12    3  0.2269558E-007  0.8572413E+03  0.7818608E-02  0.9480669E-01
         -2   -1    0    0    0  501 -0.00000000000E+00  0.00000000000E+00  0.11659103598E+04  0.11659103598E+04  0.00000000000E+00 0.  1.
          1   -1    0    0  501    0  0.00000000000E+00 -0.00000000000E+00 -0.66467328278E+03  0.66467328278E+03  0.00000000000E+00 0. -1.
        -24    2    1    2    0    0  0.71560449295E+02 -0.75005911194E+03  0.41415456368E+03  0.86349134890E+03  0.79898295904E+02 0.  0.
    5000000    2    1    2    0    0 -0.71560449295E+02  0.75005911194E+03  0.87082513301E+02  0.96709229365E+03  0.59997880879E+03 0.  0.
        -24    2    4    4    0    0  0.25044938944E+02  0.81680861365E+03  0.67756509210E+02  0.82364856312E+03  0.77475484462E+02 0.  0.
         24    2    4    4    0    0 -0.96605388239E+02 -0.66749501705E+02  0.19326004091E+02  0.14344373053E+03  0.80090651008E+02 0.  0.
         11    1    5    5    0    0  0.46532718249E+02  0.30725086141E+03  0.19683484967E+02  0.31137730375E+03  0.00000000000E+00 0. -1.
        -12    1    5    5    0    0 -0.21487779304E+02  0.50955775223E+03  0.48073024243E+02  0.51227125937E+03  0.00000000000E+00 0.  1.
         11    1    3    3    0    0  0.35761491905E+02 -0.46535016245E+03  0.29907654657E+03  0.55432521024E+03  0.00000000000E+00 0. -1.
        -12    1    3    3    0    0  0.35798957390E+02 -0.28470894949E+03  0.11507801711E+03  0.30916613866E+03  0.00000000000E+00 0.  1.
          4    1    6    6  502    0 -0.21631850136E+02 -0.61148460663E+02 -0.32544660204E+01  0.64943534943E+02  0.00000000000E+00 0. -1.
         -3    1    6    6    0  502 -0.74973538103E+02 -0.56010410422E+01  0.22580470112E+02  0.78500195585E+02  0.00000000000E+00 0.  1.
<mgrwt>
<rscale>  0 0.85724130E+03</rscale>
<asrwt>0</asrwt>
<pdfrwt beam="1">  1        1 0.10225743E+00 0.85724130E+03</pdfrwt>
<pdfrwt beam="2">  1       -2 0.17937082E+00 0.85724130E+03</pdfrwt>
<totfact> 0.47793058E+00</totfact>
</mgrwt>
</event>
<event>
12    3  0.2269558E-007  0.4799981E+03  0.7818608E-02  0.1019136E+00
         -2   -1    0    0    0  501 -0.00000000000E+00  0.00000000000E+00  0.95477706008E+03  0.95477706008E+03  0.00000000000E+00 0.  1.
          1   -1    0    0  501    0  0.00000000000E+00 -0.00000000000E+00 -0.15459785830E+04  0.15459785830E+04  0.00000000000E+00 0. -1.
        -24    2    1    2    0    0  0.26783332502E+03 -0.28849211644E+03  0.82233844884E+03  0.91549137643E+03  0.83195821100E+02 0.  0.
    5000000    2    1    2    0    0 -0.26783332502E+03  0.28849211644E+03 -0.14135399717E+04  0.15852642666E+04  0.60000429342E+03 0.  0.
        -24    2    4    4    0    0 -0.32005115103E+03  0.33404075099E+03 -0.58423526535E+03  0.74942284842E+03  0.79295635788E+02 0.  0.
         24    2    4    4    0    0  0.52217826011E+02 -0.45548634550E+02 -0.82930470637E+03  0.83584141820E+03  0.77994877420E+02 0.  0.
         11    1    5    5    0    0 -0.13204272376E+03  0.86733377195E+02 -0.21695562107E+03  0.26837977035E+03  0.00000000000E+00 0. -1.
        -12    1    5    5    0    0 -0.18800842727E+03  0.24730737379E+03 -0.36727964428E+03  0.48104307807E+03  0.00000000000E+00 0.  1.
         11    1    3    3    0    0  0.32411152266E+02 -0.40572057900E+02  0.18613583315E+03  0.19324368827E+03  0.00000000000E+00 0. -1.
        -12    1    3    3    0    0  0.23542217276E+03 -0.24792005854E+03  0.63620261568E+03  0.72224768816E+03  0.00000000000E+00 0.  1.
          4    1    6    6  502    0  0.42838124432E+02 -0.63900189772E+02 -0.49910456170E+03  0.50499871551E+03  0.00000000000E+00 0. -1.
         -1    1    6    6    0  502  0.93797015787E+01  0.18351555222E+02 -0.33020014467E+03  0.33084270269E+03  0.00000000000E+00 0.  1.
<mgrwt>
<rscale>  0 0.47999809E+03</rscale>
<asrwt>0</asrwt>
<pdfrwt beam="1">  1        1 0.23784286E+00 0.47999809E+03</pdfrwt>
<pdfrwt beam="2">  1       -2 0.14688878E+00 0.47999809E+03</pdfrwt>
<totfact> 0.18549517E+00</totfact>
</mgrwt>
</event>
<event>
12    3  0.2269558E-007  0.7064798E+03  0.7818608E-02  0.9706215E-01
          1   -1    0    0  501    0  0.00000000000E+00  0.00000000000E+00  0.33614216373E+04  0.33614216373E+04  0.00000000000E+00 0. -1.
         -2   -1    0    0    0  501 -0.00000000000E+00 -0.00000000000E+00 -0.19748917568E+03  0.19748917568E+03  0.00000000000E+00 0.  1.
        -24    2    1    2    0    0 -0.11780935172E+03  0.67637692653E+03  0.10530900284E+04  0.12596318718E+04  0.79429556962E+02 0.  0.
    5000000    2    1    2    0    0  0.11780935172E+03 -0.67637692653E+03  0.21108424332E+04  0.22992789411E+04  0.59971916866E+03 0.  0.
        -24    2    4    4    0    0 -0.32269845407E+02 -0.43897308097E+03  0.18661066782E+04  0.19185317660E+04  0.68346865012E+02 0.  0.
         24    2    4    4    0    0  0.15007919713E+03 -0.23740384556E+03  0.24473575500E+03  0.38074717515E+03  0.78666831062E+02 0.  0.
         11    1    5    5    0    0 -0.87443122333E+01 -0.22366627179E+03  0.10914737974E+04  0.11141894428E+04  0.00000000000E+00 0. -1.
        -12    1    5    5    0    0 -0.23525533174E+02 -0.21530680919E+03  0.77463288079E+03  0.80434232314E+03  0.00000000000E+00 0.  1.
         13    1    3    3    0    0 -0.17145972172E+02  0.85751951374E+02  0.90786155723E+02  0.12605359018E+03  0.00000000000E+00 0. -1.
        -14    1    3    3    0    0 -0.10066337955E+03  0.59062497516E+03  0.96230387269E+03  0.11335782817E+04  0.00000000000E+00 0.  1.
          4    1    6    6  502    0  0.11924476321E+03 -0.14065482390E+03  0.12044506669E+03  0.22025010131E+03  0.00000000000E+00 0. -1.
         -3    1    6    6    0  502  0.30834433912E+02 -0.96749021665E+02  0.12429068831E+03  0.16049707383E+03  0.00000000000E+00 0.  1.
<mgrwt>
<rscale>  0 0.70647980E+03</rscale>
<asrwt>0</asrwt>
<pdfrwt beam="1">  1        1 0.51714175E+00 0.70647980E+03</pdfrwt>
<pdfrwt beam="2">  1       -2 0.30382952E-01 0.70647980E+03</pdfrwt>
<totfact> 0.30603416E+00</totfact>
</mgrwt>
</event>
<event>
12    3  0.2269558E-007  0.4863390E+03  0.7818608E-02  0.1017407E+00
         -2   -1    0    0    0  501 -0.00000000000E+00  0.00000000000E+00  0.21642778680E+03  0.21642778680E+03  0.00000000000E+00 0.  1.
          1   -1    0    0  501    0  0.00000000000E+00 -0.00000000000E+00 -0.14682887715E+04  0.14682887715E+04  0.00000000000E+00 0. -1.
        -24    2    1    2    0    0 -0.37932511704E+03  0.12065813339E+03 -0.40969129079E+03  0.57670744645E+03  0.79363691139E+02 0.  0.
    5000000    2    1    2    0    0  0.37932511704E+03 -0.12065813339E+03 -0.84216969386E+03  0.11080091118E+04  0.59999039076E+03 0.  0.
        -24    2    4    4    0    0  0.14602198422E+03 -0.25858425402E+03 -0.74872034369E+03  0.80940677432E+03  0.79805619838E+02 0.  0.
         24    2    4    4    0    0  0.23330313282E+03  0.13792612062E+03 -0.93449350167E+02  0.29860233748E+03  0.83526093918E+02 0.  0.
         13    1    3    3    0    0 -0.14938664244E+03  0.44374499488E+02 -0.10714117548E+03  0.18911556421E+03  0.00000000000E+00 0. -1.
        -14    1    3    3    0    0 -0.22993847460E+03  0.76283633904E+02 -0.30255011531E+03  0.38759188224E+03  0.00000000000E+00 0.  1.
         13    1    5    5    0    0  0.13942398300E+02 -0.22108386991E+02 -0.23106386672E+02  0.34886621372E+02  0.00000000000E+00 0. -1.
        -14    1    5    5    0    0  0.13207958592E+03 -0.23647586702E+03 -0.72561395702E+03  0.77452015295E+03  0.00000000000E+00 0.  1.
          2    1    6    6  502    0  0.39400755771E+01  0.18639173363E+02  0.82887242713E+01  0.20776090326E+02  0.00000000000E+00 0. -1.
         -1    1    6    6    0  502  0.22936305724E+03  0.11928694726E+03 -0.10173807444E+03  0.27782624715E+03  0.00000000000E+00 0.  1.
<mgrwt>
<rscale>  0 0.48633901E+03</rscale>
<asrwt>0</asrwt>
<pdfrwt beam="1">  1        1 0.22589059E+00 0.48633901E+03</pdfrwt>
<pdfrwt beam="2">  1       -2 0.33296582E-01 0.48633901E+03</pdfrwt>
<totfact> 0.53913905E+01</totfact>
</mgrwt>
</event>
<event>
12    3  0.2269558E-007  0.6731589E+03  0.7818608E-02  0.9764268E-01
         -2   -1    0    0    0  501 -0.00000000000E+00  0.00000000000E+00  0.11277116640E+04  0.11277116640E+04  0.00000000000E+00 0.  1.
          1   -1    0    0  501    0  0.00000000000E+00 -0.00000000000E+00 -0.56219712396E+03  0.56219712396E+03  0.00000000000E+00 0. -1.
        -24    2    1    2    0    0  0.17364284716E+03 -0.59427890933E+03  0.54228579085E+03  0.82747276037E+03  0.85545483469E+02 0.  0.
    5000000    2    1    2    0    0 -0.17364284716E+03  0.59427890933E+03  0.23228749224E+02  0.86243602763E+03  0.59994755314E+03 0.  0.
        -24    2    4    4    0    0 -0.16372055505E+03  0.75969887530E+02 -0.20990317056E+03  0.28840752886E+03  0.80893248981E+02 0.  0.
         24    2    4    4    0    0 -0.99222921035E+01  0.51830902180E+03  0.23313191979E+03  0.57402849877E+03  0.80097012564E+02 0.  0.
         11    1    5    5    0    0 -0.14840080042E+03  0.34211496462E+02 -0.14964378627E+03  0.21350992207E+03  0.00000000000E+00 0. -1.
        -12    1    5    5    0    0 -0.15319754638E+02  0.41758391067E+02 -0.60259384291E+02  0.74897606783E+02  0.00000000000E+00 0.  1.
         13    1    3    3    0    0  0.59493537562E+02 -0.35429925059E+03  0.31000215538E+03  0.47451952154E+03  0.00000000000E+00 0. -1.
        -14    1    3    3    0    0  0.11414930960E+03 -0.23997965874E+03  0.23228363547E+03  0.35295323883E+03  0.00000000000E+00 0.  1.
          2    1    6    6  502    0 -0.36371609380E+02  0.44711549389E+03  0.19784779097E+03  0.49028451662E+03  0.00000000000E+00 0. -1.
         -1    1    6    6    0  502  0.26449317277E+02  0.71193527906E+02  0.35284128821E+02  0.83743982153E+02  0.00000000000E+00 0.  1.
<mgrwt>
<rscale>  0 0.67315889E+03</rscale>
<asrwt>0</asrwt>
<pdfrwt beam="1">  1        1 0.86491866E-01 0.67315889E+03</pdfrwt>
<pdfrwt beam="2">  1       -2 0.17349410E+00 0.67315889E+03</pdfrwt>
<totfact> 0.68381434E+00</totfact>
</mgrwt>
</event>
<event>
12    3  0.2269558E-007  0.5983096E+03  0.7818608E-02  0.9908919E-01
          1   -1    0    0  501    0  0.00000000000E+00  0.00000000000E+00  0.10370124594E+04  0.10370124594E+04  0.00000000000E+00 0. -1.
         -2   -1    0    0    0  501 -0.00000000000E+00 -0.00000000000E+00 -0.45993854012E+03  0.45993854012E+03  0.00000000000E+00 0.  1.
        -24    2    1    2    0    0  0.11232472627E+03 -0.44870086368E+03  0.57163114261E+03  0.73986106719E+03  0.81749167256E+02 0.  0.
    5000000    2    1    2    0    0 -0.11232472627E+03  0.44870086368E+03  0.54427766921E+01  0.75708993235E+03  0.59933816218E+03 0.  0.
        -24    2    4    4    0    0 -0.21887778179E+03  0.54144601517E+03  0.39538706935E+02  0.59082500242E+03  0.80247139696E+02 0.  0.
         24    2    4    4    0    0  0.10655305552E+03 -0.92745151490E+02 -0.34095930243E+02  0.16626492993E+03  0.80785380492E+02 0.  0.
         11    1    3    3    0    0  0.11203195474E+03 -0.30950584738E+03  0.37532744698E+03  0.49921510484E+03  0.00000000000E+00 0. -1.
        -12    1    3    3    0    0  0.29277153241E+00 -0.13919501630E+03  0.19630369564E+03  0.24064596235E+03  0.00000000000E+00 0.  1.
         11    1    5    5    0    0 -0.13554071620E+03  0.28206692079E+03 -0.13663492978E+02  0.31324068157E+03  0.00000000000E+00 0. -1.
        -12    1    5    5    0    0 -0.83337065593E+02  0.25937909438E+03  0.53202199913E+02  0.27758432084E+03  0.00000000000E+00 0.  1.
          2    1    6    6  502    0  0.38934001852E+02 -0.20764653656E+02 -0.49498780113E+02  0.66311059216E+02  0.00000000000E+00 0. -1.
         -1    1    6    6    0  502  0.67619053669E+02 -0.71980497834E+02  0.15402849870E+02  0.99953870719E+02  0.00000000000E+00 0.  1.
<mgrwt>
<rscale>  0 0.59830961E+03</rscale>
<asrwt>0</asrwt>
<pdfrwt beam="1">  1        1 0.15954038E+00 0.59830961E+03</pdfrwt>
<pdfrwt beam="2">  1       -2 0.70759776E-01 0.59830961E+03</pdfrwt>
<totfact> 0.23486641E+01</totfact>
</mgrwt>
</event>
<event>
12    3  0.2269558E-007  0.4969995E+03  0.7818608E-02  0.1014565E+00
         -2   -1    0    0    0  501 -0.00000000000E+00  0.00000000000E+00  0.13429638615E+03  0.13429638615E+03  0.00000000000E+00 0.  1.
          1   -1    0    0  501    0  0.00000000000E+00 -0.00000000000E+00 -0.19859395774E+04  0.19859395774E+04  0.00000000000E+00 0. -1.
        -24    2    1    2    0    0  0.27648386228E+03 -0.18949229465E+03 -0.58386168668E+03  0.67809432613E+03  0.81035733686E+02 0.  0.
    5000000    2    1    2    0    0 -0.27648386228E+03  0.18949229465E+03 -0.12677815046E+04  0.14421416374E+04  0.60012657268E+03 0.  0.
        -24    2    4    4    0    0 -0.40242381115E+03 -0.16870084854E+02 -0.94947194463E+03  0.10344998626E+04  0.80395700110E+02 0.  0.
         24    2    4    4    0    0  0.12593994887E+03  0.20636237950E+03 -0.31830955996E+03  0.40764177482E+03  0.80028358839E+02 0.  0.
         11    1    5    5    0    0 -0.21789308586E+03  0.25657307620E+02 -0.55957036679E+03  0.60104466530E+03  0.00000000000E+00 0. -1.
        -12    1    5    5    0    0 -0.18453072529E+03 -0.42527392474E+02 -0.38990157785E+03  0.43345519733E+03  0.00000000000E+00 0.  1.
         11    1    3    3    0    0  0.16494806676E+03 -0.68245567380E+02 -0.27103148773E+03  0.32453565218E+03  0.00000000000E+00 0. -1.
        -12    1    3    3    0    0  0.11153579552E+03 -0.12124672727E+03 -0.31283019894E+03  0.35355867395E+03  0.00000000000E+00 0.  1.
          4    1    6    6  502    0  0.70761221316E+02  0.10601046240E+03 -0.23026721841E+03  0.26318883042E+03  0.00000000000E+00 0. -1.
         -3    1    6    6    0  502  0.55178727555E+02  0.10035191710E+03 -0.88042341548E+02  0.14445294440E+03  0.00000000000E+00 0.  1.
<mgrwt>
<rscale>  0 0.49699955E+03</rscale>
<asrwt>0</asrwt>
<pdfrwt beam="1">  1        1 0.30552917E+00 0.49699955E+03</pdfrwt>
<pdfrwt beam="2">  1       -2 0.20660982E-01 0.49699955E+03</pdfrwt>
<totfact> 0.57603669E+01</totfact>
</mgrwt>
</event>
<event>
12    3  0.2269558E-007  0.4670871E+03  0.7818608E-02  0.1022746E+00
         -2   -1    0    0    0  501 -0.00000000000E+00  0.00000000000E+00  0.18050931898E+04  0.18050931898E+04  0.00000000000E+00 0.  1.
          1   -1    0    0  501    0  0.00000000000E+00 -0.00000000000E+00 -0.80852802717E+03  0.80852802717E+03  0.00000000000E+00 0. -1.
        -24    2    1    2    0    0  0.17353233870E+03  0.35783325066E+03  0.16146388413E+04  0.16649010542E+04  0.81724076513E+02 0.  0.
    5000000    2    1    2    0    0 -0.17353233870E+03 -0.35783325066E+03 -0.61807367869E+03  0.94872016273E+03  0.59991396635E+03 0.  0.
        -24    2    4    4    0    0  0.69616226276E+02 -0.24959201654E+03  0.14701591511E+00  0.27090490903E+03  0.79037044754E+02 0.  0.
         24    2    4    4    0    0 -0.24314856497E+03 -0.10824123412E+03 -0.61822069460E+03  0.67781525369E+03  0.79995634193E+02 0.  0.
         11    1    5    5    0    0  0.99591392552E+01 -0.78841556823E+02 -0.34688022383E+02  0.86708906312E+02  0.00000000000E+00 0. -1.
        -12    1    5    5    0    0  0.59657087021E+02 -0.17075045972E+03  0.34835038299E+02  0.18419600272E+03  0.00000000000E+00 0.  1.
         13    1    3    3    0    0  0.15137860129E+03  0.32499978999E+03  0.15301116817E+04  0.15715540407E+04  0.00000000000E+00 0. -1.
        -14    1    3    3    0    0  0.22153737406E+02  0.32833460672E+02  0.84527159565E+02  0.93347013476E+02  0.00000000000E+00 0.  1.
          4    1    6    6  502    0 -0.17607613637E+03 -0.11173591455E+03 -0.50186026422E+03  0.54346245980E+03  0.00000000000E+00 0. -1.
         -3    1    6    6    0  502 -0.67072428601E+02  0.34946804309E+01 -0.11636043038E+03  0.13435279390E+03  0.00000000000E+00 0.  1.
<mgrwt>
<rscale>  0 0.46708711E+03</rscale>
<asrwt>0</asrwt>
<pdfrwt beam="1">  1        1 0.12438893E+00 0.46708711E+03</pdfrwt>
<pdfrwt beam="2">  1       -2 0.27770664E+00 0.46708711E+03</pdfrwt>
<totfact> 0.92500563E-01</totfact>
</mgrwt>
</event>
<event>
12    3  0.2269558E-007  0.5944623E+03  0.7818608E-02  0.9916962E-01
         -2   -1    0    0    0  501 -0.00000000000E+00  0.00000000000E+00  0.22269279871E+03  0.22269279871E+03  0.00000000000E+00 0.  1.
          1   -1    0    0  501    0  0.00000000000E+00 -0.00000000000E+00 -0.17471857598E+04  0.17471857598E+04  0.00000000000E+00 0. -1.
        -24    2    1    2    0    0 -0.15005530316E+03  0.41526539317E+03 -0.31031523301E+03  0.54537908548E+03  0.78618460100E+02 0.  0.
    5000000    2    1    2    0    0  0.15005530316E+03 -0.41526539317E+03 -0.12141777281E+04  0.14244994730E+04  0.60000771042E+03 0.  0.
        -24    2    4    4    0    0 -0.14986912036E+03  0.55995461935E+02 -0.33536756309E+03  0.38012594498E+03  0.80175349533E+02 0.  0.
         24    2    4    4    0    0  0.29992442352E+03 -0.47126085510E+03 -0.87881016499E+03  0.10443735281E+04  0.79795405021E+02 0.  0.
         11    1    5    5    0    0 -0.14782309716E+02  0.40295488485E+02 -0.83743467097E+02  0.94102132569E+02  0.00000000000E+00 0. -1.
        -12    1    5    5    0    0 -0.13508681065E+03  0.15699973451E+02 -0.25162409600E+03  0.28602381241E+03  0.00000000000E+00 0.  1.
         13    1    3    3    0    0 -0.14006368529E+03  0.30521395733E+03 -0.20957470765E+03  0.39584713435E+03  0.00000000000E+00 0. -1.
        -14    1    3    3    0    0 -0.99916178643E+01  0.11005143584E+03 -0.10074052537E+03  0.14953195113E+03  0.00000000000E+00 0.  1.
          2    1    6    6  502    0  0.26811805076E+03 -0.36583623677E+03 -0.68760212022E+03  0.82372332552E+03  0.00000000000E+00 0. -1.
         -1    1    6    6    0  502  0.31806372760E+02 -0.10542461834E+03 -0.19120804477E+03  0.22065020255E+03  0.00000000000E+00 0.  1.
<mgrwt>
<rscale>  0 0.59446229E+03</rscale>
<asrwt>0</asrwt>
<pdfrwt beam="1">  1        1 0.26879782E+00 0.59446229E+03</pdfrwt>
<pdfrwt beam="2">  1       -2 0.34260430E-01 0.59446229E+03</pdfrwt>
<totfact> 0.32645136E+01</totfact>
</mgrwt>
</event>
<event>
12    3  0.2269558E-007  0.7763618E+03  0.7818608E-02  0.9594877E-01
         -2   -1    0    0    0  501 -0.00000000000E+00  0.00000000000E+00  0.11510851944E+04  0.11510851944E+04  0.00000000000E+00 0.  1.
          1   -1    0    0  501    0  0.00000000000E+00 -0.00000000000E+00 -0.72444625427E+03  0.72444625427E+03  0.00000000000E+00 0. -1.
        -24    2    1    2    0    0 -0.56946470988E+03  0.38301265619E+03 -0.25582120829E+03  0.73677342528E+03  0.80011492778E+02 0.  0.
    5000000    2    1    2    0    0  0.56946470988E+03 -0.38301265619E+03  0.68246014837E+03  0.11387580234E+04  0.60002435869E+03 0.  0.
        -24    2    4    4    0    0  0.65964524953E+03 -0.38422477357E+03  0.66890102701E+03  0.10180784210E+04  0.79338234343E+02 0.  0.
         24    2    4    4    0    0 -0.90180539645E+02  0.12121173746E+01  0.13559121359E+02  0.12067960240E+03  0.79029853242E+02 0.  0.
         11    1    3    3    0    0 -0.37718839186E+03  0.20943154976E+03 -0.17290110773E+03  0.46478753215E+03  0.00000000000E+00 0. -1.
        -12    1    3    3    0    0 -0.19227631803E+03  0.17358110643E+03 -0.82920100561E+02  0.27198589312E+03  0.00000000000E+00 0.  1.
         13    1    5    5    0    0  0.38749004128E+03 -0.26923658078E+03  0.39984527499E+03  0.61847644454E+03  0.00000000000E+00 0. -1.
        -14    1    5    5    0    0  0.27215520825E+03 -0.11498819279E+03  0.26905575202E+03  0.39960197641E+03  0.00000000000E+00 0.  1.
          4    1    6    6  502    0 -0.23034826117E+02 -0.12823377572E+02 -0.29597230984E+02  0.39636325618E+02  0.00000000000E+00 0. -1.
         -3    1    6    6    0  502 -0.67145713528E+02  0.14035494947E+02  0.43156352342E+02  0.81043276779E+02  0.00000000000E+00 0.  1.
<mgrwt>
<rscale>  0 0.77636177E+03</rscale>
<asrwt>0</asrwt>
<pdfrwt beam="1">  1        1 0.11145327E+00 0.77636177E+03</pdfrwt>
<pdfrwt beam="2">  1       -2 0.17709003E+00 0.77636177E+03</pdfrwt>
<totfact> 0.43928241E+00</totfact>
</mgrwt>
</event>
<event>
12    3  0.2269558E-007  0.7962533E+03  0.7818608E-02  0.9565456E-01
         -2   -1    0    0    0  501 -0.00000000000E+00  0.00000000000E+00  0.53778359945E+03  0.53778359945E+03  0.00000000000E+00 0.  1.
          1   -1    0    0  501    0  0.00000000000E+00 -0.00000000000E+00 -0.15215996973E+04  0.15215996973E+04  0.00000000000E+00 0. -1.
        -24    2    1    2    0    0 -0.65168594527E+03  0.40984927087E+03 -0.69922296284E+03  0.10426667956E+04  0.74634435009E+02 0.  0.
    5000000    2    1    2    0    0  0.65168594527E+03 -0.40984927087E+03 -0.28459313500E+03  0.10167165011E+04  0.60004016115E+03 0.  0.
        -24    2    4    4    0    0  0.30872204624E+03 -0.48399293471E+02 -0.38497958571E+03  0.50221361252E+03  0.79733542111E+02 0.  0.
         24    2    4    4    0    0  0.34296389903E+03 -0.36144997740E+03  0.10038645071E+03  0.51450288857E+03  0.79783837082E+02 0.  0.
         13    1    3    3    0    0 -0.22252264641E+03  0.17098011556E+03 -0.22166781638E+03  0.35761312742E+03  0.00000000000E+00 0. -1.
        -14    1    3    3    0    0 -0.42916329887E+03  0.23886915531E+03 -0.47755514646E+03  0.68505366823E+03  0.00000000000E+00 0.  1.
         13    1    5    5    0    0  0.10449440129E+03 -0.55044668905E+02 -0.14581606841E+03  0.18764679929E+03  0.00000000000E+00 0. -1.
        -14    1    5    5    0    0  0.20422764496E+03  0.66453754341E+01 -0.23916351730E+03  0.31456681323E+03  0.00000000000E+00 0.  1.
          2    1    6    6  502    0  0.10598864207E+03 -0.10949440093E+03 -0.63445024874E+01  0.15252169942E+03  0.00000000000E+00 0. -1.
         -1    1    6    6    0  502  0.23697525696E+03 -0.25195557647E+03  0.10673095320E+03  0.36198118915E+03  0.00000000000E+00 0.  1.
<mgrwt>
<rscale>  0 0.79625328E+03</rscale>
<asrwt>0</asrwt>
<pdfrwt beam="1">  1        1 0.23409226E+00 0.79625328E+03</pdfrwt>
<pdfrwt beam="2">  1       -2 0.82735940E-01 0.79625328E+03</pdfrwt>
<totfact> 0.72938433E+00</totfact>
</mgrwt>
</event>
<event>
12    3  0.2269558E-007  0.1013910E+04  0.7818608E-02  0.9293419E-01
         -2   -1    0    0    0  501 -0.00000000000E+00  0.00000000000E+00  0.58462450274E+03  0.58462450274E+03  0.00000000000E+00 0.  1.
          1   -1    0    0  501    0  0.00000000000E+00 -0.00000000000E+00 -0.26646492608E+04  0.26646492608E+04  0.00000000000E+00 0. -1.
        -24    2    1    2    0    0  0.83778420140E+03  0.40227852479E+03 -0.46037630610E+02  0.93374351017E+03  0.77763100132E+02 0.  0.
    5000000    2    1    2    0    0 -0.83778420140E+03 -0.40227852479E+03 -0.20339871275E+04  0.23155302534E+04  0.60072151622E+03 0.  0.
        -24    2    4    4    0    0  0.60687878551E+02 -0.12683027711E+03 -0.30400313243E+03  0.34523940384E+03  0.83686340820E+02 0.  0.
         24    2    4    4    0    0 -0.89847207995E+03 -0.27544824768E+03 -0.17299839950E+04  0.19702908495E+04  0.77958919648E+02 0.  0.
         13    1    5    5    0    0  0.13251182540E+02 -0.10417362311E+03 -0.15490541620E+03  0.18714546631E+03  0.00000000000E+00 0. -1.
        -14    1    5    5    0    0  0.47436696011E+02 -0.22656653999E+02 -0.14909771624E+03  0.15809393754E+03  0.00000000000E+00 0.  1.
         13    1    3    3    0    0  0.37806412535E+03  0.19290274247E+03 -0.58433833132E+02  0.42843723436E+03  0.00000000000E+00 0. -1.
        -14    1    3    3    0    0  0.45972007604E+03  0.20937578232E+03  0.12396202523E+02  0.50530627581E+03  0.00000000000E+00 0.  1.
          2    1    6    6  502    0 -0.44821479423E+03 -0.11586211033E+03 -0.78236354824E+03  0.90907274296E+03  0.00000000000E+00 0. -1.
         -1    1    6    6    0  502 -0.45025728572E+03 -0.15958613734E+03 -0.94762044679E+03  0.10612181066E+04  0.00000000000E+00 0.  1.
<mgrwt>
<rscale>  0 0.10139102E+04</rscale>
<asrwt>0</asrwt>
<pdfrwt beam="1">  1        1 0.40994604E+00 0.10139102E+04</pdfrwt>
<pdfrwt beam="2">  1       -2 0.89942231E-01 0.10139102E+04</pdfrwt>
<totfact> 0.97994432E-01</totfact>
</mgrwt>
</event>
<event>
12    3  0.2269558E-007  0.4184114E+03  0.7818608E-02  0.1037585E+00
         -2   -1    0    0    0  501 -0.00000000000E+00  0.00000000000E+00  0.27518310752E+03  0.27518310752E+03  0.00000000000E+00 0.  1.
          1   -1    0    0  501    0  0.00000000000E+00 -0.00000000000E+00 -0.13398951784E+04  0.13398951784E+04  0.00000000000E+00 0. -1.
        -24    2    1    2    0    0 -0.36447622325E+03  0.18276342106E+03 -0.67177295138E+03  0.78994412673E+03  0.80544644482E+02 0.  0.
    5000000    2    1    2    0    0  0.36447622325E+03 -0.18276342106E+03 -0.39293911946E+03  0.82513415914E+03  0.60016651322E+03 0.  0.
        -24    2    4    4    0    0  0.10020713668E+03 -0.47070537562E+02 -0.48478116940E+03  0.50373394957E+03  0.80486048485E+02 0.  0.
         24    2    4    4    0    0  0.26426908657E+03 -0.13569288350E+03  0.91842049940E+02  0.32140020957E+03  0.81316811465E+02 0.  0.
         11    1    5    5    0    0  0.32932850169E+02  0.51759151593E+01 -0.46283217332E+02  0.57039450599E+02  0.00000000000E+00 0. -1.
        -12    1    5    5    0    0  0.67274286514E+02 -0.52246452722E+02 -0.43849795206E+03  0.44669449897E+03  0.00000000000E+00 0.  1.
         13    1    3    3    0    0 -0.32361842735E+03  0.13557643209E+03 -0.53767715134E+03  0.64203315688E+03  0.00000000000E+00 0. -1.
        -14    1    3    3    0    0 -0.40857795904E+02  0.47186988964E+02 -0.13409580004E+03  0.14791096985E+03  0.00000000000E+00 0.  1.
          2    1    6    6  502    0  0.12573278496E+03 -0.26191302910E+02  0.16784651492E+02  0.12952390547E+03  0.00000000000E+00 0. -1.
         -1    1    6    6    0  502  0.13853630161E+03 -0.10950158059E+03  0.75057398448E+02  0.19187630410E+03  0.00000000000E+00 0.  1.
<mgrwt>
<rscale>  0 0.41841145E+03</rscale>
<asrwt>0</asrwt>
<pdfrwt beam="1">  1        1 0.20613772E+00 0.41841145E+03</pdfrwt>
<pdfrwt beam="2">  1       -2 0.42335862E-01 0.41841145E+03</pdfrwt>
<totfact> 0.42169585E+01</totfact>
</mgrwt>
</event>
<event>
12    3  0.2269558E-007  0.4907232E+03  0.7818608E-02  0.1016229E+00
          1   -1    0    0  501    0  0.00000000000E+00  0.00000000000E+00  0.30042611837E+03  0.30042611837E+03  0.00000000000E+00 0. -1.
         -2   -1    0    0    0  501 -0.00000000000E+00 -0.00000000000E+00 -0.10118233611E+04  0.10118233611E+04  0.00000000000E+00 0.  1.
        -24    2    1    2    0    0  0.37653730760E+03 -0.51420256678E+02 -0.30861759728E+03  0.49580840552E+03  0.78465067526E+02 0.  0.
    5000000    2    1    2    0    0 -0.37653730760E+03  0.51420256678E+02 -0.40277964543E+03  0.81644107393E+03  0.59993349432E+03 0.  0.
        -24    2    4    4    0    0 -0.28167857624E+03 -0.18869764379E+03 -0.20078029310E+02  0.34845274868E+03  0.77888187293E+02 0.  0.
         24    2    4    4    0    0 -0.94858731367E+02  0.24011790046E+03 -0.38270161612E+03  0.46798832525E+03  0.76796878486E+02 0.  0.
         11    1    3    3    0    0  0.11588113848E+03 -0.26596071592E+02 -0.53990527860E+02  0.13057858315E+03  0.00000000000E+00 0. -1.
        -12    1    3    3    0    0  0.26065616913E+03 -0.24824185086E+02 -0.25462706942E+03  0.36522982237E+03  0.00000000000E+00 0.  1.
         11    1    5    5    0    0 -0.16790685459E+03 -0.13947281231E+03  0.17336368905E+02  0.21896558378E+03  0.00000000000E+00 0. -1.
        -12    1    5    5    0    0 -0.11377172164E+03 -0.49224831471E+02 -0.37414398215E+02  0.12948716490E+03  0.00000000000E+00 0.  1.
          4    1    6    6  502    0 -0.72951504342E+02  0.16938125009E+03 -0.32664698705E+03  0.37511356149E+03  0.00000000000E+00 0. -1.
         -3    1    6    6    0  502 -0.21907227025E+02  0.70736650371E+02 -0.56054629075E+02  0.92874763754E+02  0.00000000000E+00 0.  1.
<mgrwt>
<rscale>  0 0.49072323E+03</rscale>
<asrwt>0</asrwt>
<pdfrwt beam="1">  1        1 0.46219402E-01 0.49072323E+03</pdfrwt>
<pdfrwt beam="2">  1       -2 0.15566513E+00 0.49072323E+03</pdfrwt>
<totfact> 0.21622230E+01</totfact>
</mgrwt>
</event>
<event>
12    3  0.2269558E-007  0.8548856E+03  0.7818608E-02  0.9483803E-01
          1   -1    0    0  501    0  0.00000000000E+00  0.00000000000E+00  0.84271938702E+03  0.84271938702E+03  0.00000000000E+00 0. -1.
         -2   -1    0    0    0  501 -0.00000000000E+00 -0.00000000000E+00 -0.10359030662E+04  0.10359030662E+04  0.00000000000E+00 0.  1.
        -24    2    1    2    0    0 -0.20604199480E+02  0.83363193864E+03 -0.14573949231E+03  0.85027925780E+03  0.79800216036E+02 0.  0.
    5000000    2    1    2    0    0  0.20604199480E+02 -0.83363193864E+03 -0.47444186859E+02  0.10283431954E+04  0.59989335262E+03 0.  0.
        -24    2    4    4    0    0  0.30914032959E+02 -0.77430192573E+03 -0.23669292311E+03  0.81439696883E+03  0.81973979806E+02 0.  0.
         24    2    4    4    0    0 -0.10309833479E+02 -0.59330012904E+02  0.18924873625E+03  0.21394622657E+03  0.79571104008E+02 0.  0.
         11    1    5    5    0    0  0.48940521843E+02 -0.50499228295E+03 -0.18189112993E+03  0.53897751684E+03  0.00000000000E+00 0. -1.
        -12    1    5    5    0    0 -0.18026488884E+02 -0.26930964279E+03 -0.54801793184E+02  0.27541945199E+03  0.00000000000E+00 0.  1.
         13    1    3    3    0    0 -0.44547078120E+02  0.70092374251E+03 -0.11132094670E+03  0.71110539877E+03  0.00000000000E+00 0. -1.
        -14    1    3    3    0    0  0.23942878640E+02  0.13270819612E+03 -0.34418545601E+02  0.13917385903E+03  0.00000000000E+00 0.  1.
          4    1    6    6  502    0  0.30653339161E+02 -0.38931750841E+02  0.66396988657E+02  0.82848467264E+02  0.00000000000E+00 0. -1.
         -3    1    6    6    0  502 -0.40963172640E+02 -0.20398262063E+02  0.12285174760E+03  0.13109775931E+03  0.00000000000E+00 0.  1.
<mgrwt>
<rscale>  0 0.85488563E+03</rscale>
<asrwt>0</asrwt>
<pdfrwt beam="1">  1        1 0.12964914E+00 0.85488563E+03</pdfrwt>
<pdfrwt beam="2">  1       -2 0.15936970E+00 0.85488563E+03</pdfrwt>
<totfact> 0.45840308E+00</totfact>
</mgrwt>
</event>
<event>
12    3  0.2269558E-007  0.9859759E+03  0.7818608E-02  0.9324061E-01
         -2   -1    0    0    0  501 -0.00000000000E+00  0.00000000000E+00  0.46319784788E+03  0.46319784788E+03  0.00000000000E+00 0.  1.
          1   -1    0    0  501    0  0.00000000000E+00 -0.00000000000E+00 -0.38406632717E+04  0.38406632717E+04  0.00000000000E+00 0. -1.
        -24    2    1    2    0    0  0.36046272220E+03  0.84323486563E+03 -0.19887486367E+03  0.94166426736E+03  0.78752576593E+02 0.  0.
    5000000    2    1    2    0    0 -0.36046272220E+03 -0.84323486563E+03 -0.31785905602E+04  0.33621968522E+04  0.59995942467E+03 0.  0.
        -24    2    4    4    0    0 -0.52493375710E-01  0.48444931523E+02 -0.63283505067E+03  0.63959766144E+03  0.79107856871E+02 0.  0.
         24    2    4    4    0    0 -0.36041022883E+03 -0.89167979715E+03 -0.25457555095E+04  0.27225991908E+04  0.81773136510E+02 0.  0.
         13    1    5    5    0    0 -0.38082779427E+02  0.30201259888E+02 -0.27232644972E+03  0.27662991415E+03  0.00000000000E+00 0. -1.
        -14    1    5    5    0    0  0.38030286052E+02  0.18243671636E+02 -0.36050860095E+03  0.36296774728E+03  0.00000000000E+00 0.  1.
         13    1    3    3    0    0  0.10102035458E+03  0.17121865221E+03 -0.22820636071E+02  0.20010427365E+03  0.00000000000E+00 0. -1.
        -14    1    3    3    0    0  0.25944236763E+03  0.67201621342E+03 -0.17605422759E+03  0.74155999371E+03  0.00000000000E+00 0.  1.
          4    1    6    6  502    0 -0.28461676393E+03 -0.72691427961E+03 -0.19733980944E+04  0.21221948806E+04  0.00000000000E+00 0. -1.
         -3    1    6    6    0  502 -0.75793464896E+02 -0.16476551754E+03 -0.57235741506E+03  0.60040431017E+03  0.00000000000E+00 0.  1.
<mgrwt>
<rscale>  0 0.98597590E+03</rscale>
<asrwt>0</asrwt>
<pdfrwt beam="1">  1        1 0.59087128E+00 0.98597590E+03</pdfrwt>
<pdfrwt beam="2">  1       -2 0.71261206E-01 0.98597590E+03</pdfrwt>
<totfact> 0.21680635E-01</totfact>
</mgrwt>
</event>
<event>
12    3  0.4408901E-007  0.9096318E+03  0.7818608E-02  0.9413621E-01
         -2   -1    0    0    0  501 -0.00000000000E+00  0.00000000000E+00  0.85747150345E+03  0.85747150345E+03  0.00000000000E+00 0.  1.
          1   -1    0    0  501    0  0.00000000000E+00 -0.00000000000E+00 -0.11412611060E+04  0.11412611060E+04  0.00000000000E+00 0. -1.
        -24    2    1    2    0    0  0.25109879420E+03 -0.86011335679E+03 -0.10532342693E+03  0.90565493662E+03  0.79197531465E+02 0.  0.
    5000000    2    1    2    0    0 -0.25109879420E+03  0.86011335679E+03 -0.17846617566E+03  0.10930776729E+04  0.60010251798E+03 0.  0.
        -24    2    4    4    0    0 -0.45178302507E+02  0.14740294581E+03 -0.29057407894E+03  0.33852422329E+03  0.79979040710E+02 0.  0.
         24    2    4    4    0    0 -0.20592049169E+03  0.71271041098E+03  0.11210790328E+03  0.75455344958E+03  0.80145788839E+02 0.  0.
         11    1    3    3    0    0  0.15774424073E+03 -0.39923067852E+03 -0.49207673410E+02  0.43207612209E+03  0.00000000000E+00 0. -1.
        -12    1    3    3    0    0  0.93354553464E+02 -0.46088267827E+03 -0.56115753522E+02  0.47357881453E+03  0.00000000000E+00 0.  1.
         13    1    5    5    0    0 -0.90441243970E+01  0.13519704467E+03 -0.22360846487E+03  0.26145895020E+03  0.00000000000E+00 0. -1.
        -14    1    5    5    0    0 -0.36134178110E+02  0.12205901139E+02 -0.66965614066E+02  0.77065273097E+02  0.00000000000E+00 0.  1.
          4    1    6    6  502    0 -0.31352315346E+02  0.24303808408E+03  0.41382495338E+02  0.24852160653E+03  0.00000000000E+00 0. -1.
         -3    1    6    6    0  502 -0.17456817634E+03  0.46967232690E+03  0.70725407945E+02  0.50603184304E+03  0.00000000000E+00 0.  1.
<mgrwt>
<rscale>  0 0.90963179E+03</rscale>
<asrwt>0</asrwt>
<pdfrwt beam="1">  1        1 0.17557863E+00 0.90963179E+03</pdfrwt>
<pdfrwt beam="2">  1       -2 0.13191869E+00 0.90963179E+03</pdfrwt>
<totfact> 0.43618423E+00</totfact>
</mgrwt>
</event>
<event>
12    3  0.2269558E-007  0.7223152E+03  0.7818608E-02  0.9679813E-01
          1   -1    0    0  501    0  0.00000000000E+00  0.00000000000E+00  0.52024804929E+03  0.52024804929E+03  0.00000000000E+00 0. -1.
         -2   -1    0    0    0  501 -0.00000000000E+00 -0.00000000000E+00 -0.14693062935E+04  0.14693062935E+04  0.00000000000E+00 0.  1.
        -24    2    1    2    0    0  0.31373381840E+03 -0.58803810737E+03 -0.85587491892E+03  0.10877862159E+04  0.80865630526E+02 0.  0.
    5000000    2    1    2    0    0 -0.31373381840E+03  0.58803810737E+03 -0.93183325326E+02  0.90176812690E+03  0.60023736810E+03 0.  0.
        -24    2    4    4    0    0 -0.13006282230E+03  0.55744128856E+03 -0.26469729863E+03  0.63577443390E+03  0.80544043601E+02 0.  0.
         24    2    4    4    0    0 -0.18367099610E+03  0.30596818805E+02  0.17151397330E+03  0.26599369301E+03  0.81635785968E+02 0.  0.
         11    1    3    3    0    0  0.15115656941E+03 -0.32356433970E+03 -0.51521709330E+03  0.62688981778E+03  0.00000000000E+00 0. -1.
        -12    1    3    3    0    0  0.16257724899E+03 -0.26447376767E+03 -0.34065782562E+03  0.46089639815E+03  0.00000000000E+00 0.  1.
         13    1    5    5    0    0 -0.10203632779E+03  0.35346413567E+03 -0.13218190257E+03  0.39092245109E+03  0.00000000000E+00 0. -1.
        -14    1    5    5    0    0 -0.28026494511E+02  0.20397715289E+03 -0.13251539606E+03  0.24485198281E+03  0.00000000000E+00 0.  1.
          4    1    6    6  502    0 -0.13546471282E+03  0.58506078139E+02  0.12185919097E+03  0.19137218194E+03  0.00000000000E+00 0. -1.
         -3    1    6    6    0  502 -0.48206283285E+02 -0.27909259334E+02  0.49654782334E+02  0.74621511063E+02  0.00000000000E+00 0.  1.
<mgrwt>
<rscale>  0 0.72231518E+03</rscale>
<asrwt>0</asrwt>
<pdfrwt beam="1">  1        1 0.80038163E-01 0.72231518E+03</pdfrwt>
<pdfrwt beam="2">  1       -2 0.22604712E+00 0.72231518E+03</pdfrwt>
<totfact> 0.34356677E+00</totfact>
</mgrwt>
</event>
<event>
12    3  0.2269558E-007  0.5957078E+03  0.7818608E-02  0.9914351E-01
         -2   -1    0    0    0  501 -0.00000000000E+00  0.00000000000E+00  0.44316993220E+03  0.44316993220E+03  0.00000000000E+00 0.  1.
          1   -1    0    0  501    0  0.00000000000E+00 -0.00000000000E+00 -0.10508195759E+04  0.10508195759E+04  0.00000000000E+00 0. -1.
        -24    2    1    2    0    0  0.27803946819E+03  0.45737293870E+03 -0.36903907271E+03  0.65523612863E+03  0.81538924148E+02 0.  0.
    5000000    2    1    2    0    0 -0.27803946819E+03 -0.45737293870E+03 -0.23861057101E+03  0.83875337948E+03  0.60006356002E+03 0.  0.
        -24    2    4    4    0    0  0.89333067127E+02 -0.79349570245E+02  0.12770075205E+03  0.19203376884E+03  0.79326761690E+02 0.  0.
         24    2    4    4    0    0 -0.36737253532E+03 -0.37802336846E+03 -0.36631132306E+03  0.64671961064E+03  0.78727521114E+02 0.  0.
         11    1    3    3    0    0  0.94664310319E+02  0.95500627096E+02 -0.72837775565E+02  0.15292822818E+03  0.00000000000E+00 0. -1.
        -12    1    3    3    0    0  0.18337515787E+03  0.36187231161E+03 -0.29620129714E+03  0.50230790046E+03  0.00000000000E+00 0.  1.
         11    1    5    5    0    0  0.67309588575E+01  0.29450336718E+01 -0.94806237498E+01  0.11994217655E+02  0.00000000000E+00 0. -1.
        -12    1    5    5    0    0  0.82602108269E+02 -0.82294603917E+02  0.13718137580E+03  0.18003955119E+03  0.00000000000E+00 0.  1.
          4    1    6    6  502    0 -0.25025738068E+03 -0.26687409764E+03 -0.29604322007E+03  0.47062950261E+03  0.00000000000E+00 0. -1.
         -3    1    6    6    0  502 -0.11711515464E+03 -0.11114927081E+03 -0.70268102985E+02  0.17609010803E+03  0.00000000000E+00 0.  1.
<mgrwt>
<rscale>  0 0.59570778E+03</rscale>
<asrwt>0</asrwt>
<pdfrwt beam="1">  1        1 0.16166455E+00 0.59570778E+03</pdfrwt>
<pdfrwt beam="2">  1       -2 0.68179990E-01 0.59570778E+03</pdfrwt>
<totfact> 0.24863267E+01</totfact>
</mgrwt>
</event>
<event>
12    3  0.2269558E-007  0.6944122E+03  0.7818608E-02  0.9726836E-01
          1   -1    0    0  501    0  0.00000000000E+00  0.00000000000E+00  0.21266923273E+04  0.21266923273E+04  0.00000000000E+00 0. -1.
         -2   -1    0    0    0  501 -0.00000000000E+00 -0.00000000000E+00 -0.42105355952E+03  0.42105355952E+03  0.00000000000E+00 0.  1.
        -24    2    1    2    0    0  0.58149829843E+03 -0.21686859663E+03 -0.11634343281E+02  0.62570293434E+03  0.78718135247E+02 0.  0.
    5000000    2    1    2    0    0 -0.58149829843E+03  0.21686859663E+03  0.17172731110E+04  0.19220429525E+04  0.60004159350E+03 0.  0.
        -24    2    4    4    0    0  0.38166597262E+02 -0.71644022928E+02  0.59373598552E+03  0.60447629149E+03  0.79243998554E+02 0.  0.
         24    2    4    4    0    0 -0.61966489569E+03  0.28851261956E+03  0.11235371255E+04  0.13175666610E+04  0.80138125004E+02 0.  0.
         11    1    5    5    0    0  0.22547204027E+02 -0.45802143974E+02  0.54329328520E+03  0.54568654606E+03  0.00000000000E+00 0. -1.
        -12    1    5    5    0    0  0.15619393235E+02 -0.25841878953E+02  0.50442700313E+02  0.58789745430E+02  0.00000000000E+00 0.  1.
         11    1    3    3    0    0  0.31642027779E+03 -0.14259463473E+03  0.25114679481E+02  0.34797380530E+03  0.00000000000E+00 0. -1.
        -12    1    3    3    0    0  0.26507802064E+03 -0.74273961905E+02 -0.36749022762E+02  0.27772912904E+03  0.00000000000E+00 0.  1.
          2    1    6    6  502    0 -0.26716037397E+03  0.98273211236E+02  0.52809290469E+03  0.59992866697E+03  0.00000000000E+00 0. -1.
         -1    1    6    6    0  502 -0.35250452173E+03  0.19023940833E+03  0.59544422082E+03  0.71763799400E+03  0.00000000000E+00 0.  1.
<mgrwt>
<rscale>  0 0.69441219E+03</rscale>
<asrwt>0</asrwt>
<pdfrwt beam="1">  1        1 0.32718343E+00 0.69441219E+03</pdfrwt>
<pdfrwt beam="2">  1       -2 0.64777472E-01 0.69441219E+03</pdfrwt>
<totfact> 0.49845151E+00</totfact>
</mgrwt>
</event>
<event>
12    3  0.2269558E-007  0.5086495E+03  0.7818608E-02  0.1011546E+00
          1   -1    0    0  501    0  0.00000000000E+00  0.00000000000E+00  0.10402490017E+04  0.10402490017E+04  0.00000000000E+00 0. -1.
         -2   -1    0    0    0  501 -0.00000000000E+00 -0.00000000000E+00 -0.79112973473E+03  0.79112973473E+03  0.00000000000E+00 0.  1.
        -24    2    1    2    0    0 -0.46021288664E+03 -0.16253455764E+03 -0.53579549438E+03  0.72939908779E+03  0.82053848300E+02 0.  0.
    5000000    2    1    2    0    0  0.46021288664E+03  0.16253455764E+03  0.78491476133E+03  0.11019796486E+04  0.60004548159E+03 0.  0.
        -24    2    4    4    0    0  0.59402071431E+02  0.69369727467E+02  0.65123828849E+03  0.66224666378E+03  0.78221289395E+02 0.  0.
         24    2    4    4    0    0  0.40081081521E+03  0.93164830175E+02  0.13367647285E+03  0.43973298485E+03  0.78528360504E+02 0.  0.
         13    1    3    3    0    0 -0.40676856100E+03 -0.15668535043E+03 -0.43887004806E+03  0.61856113711E+03  0.00000000000E+00 0. -1.
        -14    1    3    3    0    0 -0.53444325643E+02 -0.58492072082E+01 -0.96925446314E+02  0.11083795068E+03  0.00000000000E+00 0.  1.
         13    1    5    5    0    0  0.22240923201E+02  0.73367070996E+02  0.52576680981E+03  0.53132675829E+03  0.00000000000E+00 0. -1.
        -14    1    5    5    0    0  0.37161148230E+02 -0.39973435284E+01  0.12547147867E+03  0.13091990549E+03  0.00000000000E+00 0.  1.
          4    1    6    6  502    0  0.14093233812E+03  0.12508398140E+02  0.13049118567E+02  0.14208681659E+03  0.00000000000E+00 0. -1.
         -3    1    6    6    0  502  0.25987847708E+03  0.80656432035E+02  0.12062735428E+03  0.29764616826E+03  0.00000000000E+00 0.  1.
<mgrwt>
<rscale>  0 0.50864951E+03</rscale>
<asrwt>0</asrwt>
<pdfrwt beam="1">  1        1 0.16003831E+00 0.50864951E+03</pdfrwt>
<pdfrwt beam="2">  1       -2 0.12171227E+00 0.50864951E+03</pdfrwt>
<totfact> 0.67375841E+00</totfact>
</mgrwt>
</event>
<event>
12    3  0.2269558E-007  0.1544937E+04  0.7818608E-02  0.8855108E-01
         -2   -1    0    0    0  501 -0.00000000000E+00  0.00000000000E+00  0.21054772507E+04  0.21054772507E+04  0.00000000000E+00 0.  1.
          1   -1    0    0  501    0  0.00000000000E+00 -0.00000000000E+00 -0.16740599307E+04  0.16740599307E+04  0.00000000000E+00 0. -1.
        -24    2    1    2    0    0 -0.45069591586E+03  0.14637161168E+04  0.12158279022E+04  0.19571598753E+04  0.81520613672E+02 0.  0.
    5000000    2    1    2    0    0  0.45069591586E+03 -0.14637161168E+04 -0.78441058219E+03  0.18223773062E+04  0.60013948828E+03 0.  0.
        -24    2    4    4    0    0  0.29388648332E+03 -0.50798803979E+03 -0.57989604234E+03  0.82928424765E+03  0.83736669630E+02 0.  0.
         24    2    4    4    0    0  0.15680943254E+03 -0.95572807701E+03 -0.20451453985E+03  0.99309305850E+03  0.80014189428E+02 0.  0.
         11    1    5    5    0    0  0.90099287576E+02 -0.15283413472E+03 -0.12373042509E+03  0.21629926595E+03  0.00000000000E+00 0. -1.
        -12    1    5    5    0    0  0.20378719574E+03 -0.35515390506E+03 -0.45616561725E+03  0.61298498170E+03  0.00000000000E+00 0.  1.
         13    1    3    3    0    0 -0.21290200067E+03  0.63722927777E+03  0.48598359371E+03  0.82919748414E+03  0.00000000000E+00 0. -1.
        -14    1    3    3    0    0 -0.23779391519E+03  0.82648683903E+03  0.72984430846E+03  0.11279623911E+04  0.00000000000E+00 0.  1.
          4    1    6    6  502    0  0.11245546154E+03 -0.46552862458E+03 -0.11950856884E+03  0.49360452709E+03  0.00000000000E+00 0. -1.
         -3    1    6    6    0  502  0.44353971001E+02 -0.49019945243E+03 -0.85005971011E+02  0.49948853141E+03  0.00000000000E+00 0.  1.
<mgrwt>
<rscale>  0 0.15449365E+04</rscale>
<asrwt>0</asrwt>
<pdfrwt beam="1">  1        1 0.25754768E+00 0.15449365E+04</pdfrwt>
<pdfrwt beam="2">  1       -2 0.32391958E+00 0.15449365E+04</pdfrwt>
<totfact> 0.92374927E-02</totfact>
</mgrwt>
</event>
<event>
12    3  0.2269558E-007  0.6683133E+03  0.7818608E-02  0.9773010E-01
         -2   -1    0    0    0  501 -0.00000000000E+00  0.00000000000E+00  0.45725954979E+03  0.45725954979E+03  0.00000000000E+00 0.  1.
          1   -1    0    0  501    0  0.00000000000E+00 -0.00000000000E+00 -0.10033965736E+04  0.10033965736E+04  0.00000000000E+00 0. -1.
        -24    2    1    2    0    0  0.23285103165E+02  0.54013430434E+03 -0.19902070314E+03  0.58152315562E+03  0.79200236732E+02 0.  0.
    5000000    2    1    2    0    0 -0.23285103165E+02 -0.54013430434E+03 -0.34711632071E+03  0.87913296781E+03  0.60008147134E+03 0.  0.
        -24    2    4    4    0    0 -0.68046677943E+02  0.10419430578E+03 -0.15353704565E+02  0.14860455108E+03  0.79754452050E+02 0.  0.
         24    2    4    4    0    0  0.44761574778E+02 -0.64432861011E+03 -0.33176261614E+03  0.73052841673E+03  0.80264424232E+02 0.  0.
         11    1    3    3    0    0 -0.17734068312E+02  0.17245878013E+03 -0.92681978721E+02  0.19658707283E+03  0.00000000000E+00 0. -1.
        -12    1    3    3    0    0  0.41019171477E+02  0.36767552420E+03 -0.10633872442E+03  0.38493608279E+03  0.00000000000E+00 0.  1.
         13    1    5    5    0    0  0.38853279640E+01  0.65105667109E+02  0.46776334514E+00  0.65223174299E+02  0.00000000000E+00 0. -1.
        -14    1    5    5    0    0 -0.71932005907E+02  0.39088638669E+02 -0.15821467910E+02  0.83381376780E+02  0.00000000000E+00 0.  1.
          2    1    6    6  502    0  0.42661932103E+02 -0.48539106076E+03 -0.28653800544E+03  0.56526856526E+03  0.00000000000E+00 0. -1.
         -1    1    6    6    0  502  0.20996426752E+01 -0.15893754936E+03 -0.45224610707E+02  0.16525985147E+03  0.00000000000E+00 0.  1.
<mgrwt>
<rscale>  0 0.66831326E+03</rscale>
<asrwt>0</asrwt>
<pdfrwt beam="1">  1        1 0.15436870E+00 0.66831326E+03</pdfrwt>
<pdfrwt beam="2">  1       -2 0.70347624E-01 0.66831326E+03</pdfrwt>
<totfact> 0.25024986E+01</totfact>
</mgrwt>
</event>
<event>
12    3  0.2269558E-007  0.1077768E+04  0.7818608E-02  0.9227136E-01
          1   -1    0    0  501    0  0.00000000000E+00  0.00000000000E+00  0.91298341311E+03  0.91298341311E+03  0.00000000000E+00 0. -1.
         -2   -1    0    0    0  501 -0.00000000000E+00 -0.00000000000E+00 -0.13765654045E+04  0.13765654045E+04  0.00000000000E+00 0.  1.
        -24    2    1    2    0    0  0.93747321749E+03  0.41584227894E+03 -0.38647645272E+03  0.10988578534E+04  0.79647340945E+02 0.  0.
    5000000    2    1    2    0    0 -0.93747321749E+03 -0.41584227894E+03 -0.77105538697E+02  0.11906909643E+04  0.60001572801E+03 0.  0.
        -24    2    4    4    0    0 -0.50572956104E+03  0.20485397135E+02  0.14529378265E+03  0.53285894949E+03  0.81525065916E+02 0.  0.
         24    2    4    4    0    0 -0.43174365645E+03 -0.43632767608E+03 -0.22239932135E+03  0.65783201479E+03  0.80604440026E+02 0.  0.
         11    1    3    3    0    0  0.23677999036E+03  0.14258908487E+03 -0.11257664216E+03  0.29844582644E+03  0.00000000000E+00 0. -1.
        -12    1    3    3    0    0  0.70069322713E+03  0.27325319407E+03 -0.27389981056E+03  0.80041202692E+03  0.00000000000E+00 0.  1.
         11    1    5    5    0    0 -0.20298049686E+03 -0.29294624489E+02  0.43946148922E+02  0.20973917406E+03  0.00000000000E+00 0. -1.
        -12    1    5    5    0    0 -0.30274906417E+03  0.49780021624E+02  0.10134763373E+03  0.32311977543E+03  0.00000000000E+00 0.  1.
          2    1    6    6  502    0 -0.33504466885E+03 -0.31367943027E+03 -0.13288928085E+03  0.47781719942E+03  0.00000000000E+00 0. -1.
         -1    1    6    6    0  502 -0.96698987604E+02 -0.12264824580E+03 -0.89510040496E+02  0.18001481537E+03  0.00000000000E+00 0.  1.
<mgrwt>
<rscale>  0 0.10777678E+04</rscale>
<asrwt>0</asrwt>
<pdfrwt beam="1">  1        1 0.14045899E+00 0.10777678E+04</pdfrwt>
<pdfrwt beam="2">  1       -2 0.21177929E+00 0.10777678E+04</pdfrwt>
<totfact> 0.17164428E+00</totfact>
</mgrwt>
</event>
<event>
12    3  0.2269558E-007  0.1262560E+04  0.7818608E-02  0.9059794E-01
          1   -1    0    0  501    0  0.00000000000E+00  0.00000000000E+00  0.21292147278E+04  0.21292147278E+04  0.00000000000E+00 0. -1.
         -2   -1    0    0    0  501 -0.00000000000E+00 -0.00000000000E+00 -0.80250111572E+03  0.80250111572E+03  0.00000000000E+00 0.  1.
        -24    2    1    2    0    0  0.25395431305E+03 -0.11783115177E+04  0.94052862559E+03  0.15309754609E+04  0.79880788370E+02 0.  0.
    5000000    2    1    2    0    0 -0.25395431305E+03  0.11783115177E+04  0.38618498647E+03  0.14007403827E+04  0.60001995802E+03 0.  0.
        -24    2    4    4    0    0 -0.32814220128E+03  0.33501751957E+03  0.25634707153E+03  0.54033570004E+03  0.79591488055E+02 0.  0.
         24    2    4    4    0    0  0.74187888231E+02  0.84329399811E+03  0.12983791494E+03  0.86040468262E+03  0.82399779817E+02 0.  0.
         11    1    3    3    0    0  0.10730801954E+03 -0.46064762078E+03  0.41787731076E+03  0.63113603006E+03  0.00000000000E+00 0. -1.
        -12    1    3    3    0    0  0.14664629351E+03 -0.71766389690E+03  0.52265131484E+03  0.89983943079E+03  0.00000000000E+00 0.  1.
         13    1    5    5    0    0 -0.79914105846E+02  0.71329118297E+02  0.23107905282E+02  0.10958139768E+03  0.00000000000E+00 0. -1.
        -14    1    5    5    0    0 -0.24822809543E+03  0.26368840128E+03  0.23323916625E+03  0.43075430236E+03  0.00000000000E+00 0.  1.
          4    1    6    6  502    0  0.37550622154E+02  0.11111262493E+03  0.23825401648E+02  0.11968172128E+03  0.00000000000E+00 0. -1.
         -3    1    6    6    0  502  0.36637266078E+02  0.73218137318E+03  0.10601251329E+03  0.74072296135E+03  0.00000000000E+00 0.  1.
<mgrwt>
<rscale>  0 0.12625601E+04</rscale>
<asrwt>0</asrwt>
<pdfrwt beam="1">  1        1 0.32757149E+00 0.12625601E+04</pdfrwt>
<pdfrwt beam="2">  1       -2 0.12346171E+00 0.12625601E+04</pdfrwt>
<totfact> 0.10286753E+00</totfact>
</mgrwt>
</event>
<event>
12    3  0.2269558E-007  0.7645466E+03  0.7818608E-02  0.9612801E-01
         -2   -1    0    0    0  501 -0.00000000000E+00  0.00000000000E+00  0.16490981832E+04  0.16490981832E+04  0.00000000000E+00 0.  1.
          1   -1    0    0  501    0  0.00000000000E+00 -0.00000000000E+00 -0.43839226191E+03  0.43839226191E+03  0.00000000000E+00 0. -1.
        -24    2    1    2    0    0 -0.72683340914E+03 -0.12006195373E+03  0.41813111792E+03  0.85022250827E+03  0.73095857778E+02 0.  0.
    5000000    2    1    2    0    0  0.72683340914E+03  0.12006195373E+03  0.79257480341E+03  0.12372679369E+04  0.59996287489E+03 0.  0.
        -24    2    4    4    0    0  0.64330033827E+03  0.19824273453E+02  0.85426491107E+03  0.10725518353E+04  0.79815876264E+02 0.  0.
         24    2    4    4    0    0  0.83533070875E+02  0.10023768027E+03 -0.61690107653E+02  0.16471610158E+03  0.79374796125E+02 0.  0.
         13    1    5    5    0    0  0.28684947886E+03  0.32818474335E+02  0.33027061822E+03  0.43867796508E+03  0.00000000000E+00 0. -1.
        -14    1    5    5    0    0  0.35645085940E+03 -0.12994200882E+02  0.52399429284E+03  0.63387387023E+03  0.00000000000E+00 0.  1.
         13    1    3    3    0    0 -0.64118033599E+03 -0.89363764499E+02  0.38604227508E+03  0.75374182836E+03  0.00000000000E+00 0. -1.
        -14    1    3    3    0    0 -0.85653073152E+02 -0.30698189228E+02  0.32088842836E+02  0.96480679915E+02  0.00000000000E+00 0.  1.
          4    1    6    6  502    0  0.92039019527E+02  0.75130145234E+02 -0.68770680559E+02  0.13727755222E+03  0.00000000000E+00 0. -1.
         -3    1    6    6    0  502 -0.85059486516E+01  0.25107535040E+02  0.70805729057E+01  0.27438549359E+02  0.00000000000E+00 0.  1.
<mgrwt>
<rscale>  0 0.76454657E+03</rscale>
<asrwt>0</asrwt>
<pdfrwt beam="1">  1        1 0.67444964E-01 0.76454657E+03</pdfrwt>
<pdfrwt beam="2">  1       -2 0.25370741E+00 0.76454657E+03</pdfrwt>
<totfact> 0.29227872E+00</totfact>
</mgrwt>
</event>
<event>
12    3  0.2269558E-007  0.4935513E+03  0.7818608E-02  0.1015476E+00
         -2   -1    0    0    0  501 -0.00000000000E+00  0.00000000000E+00  0.29132090755E+03  0.29132090755E+03  0.00000000000E+00 0.  1.
          1   -1    0    0  501    0  0.00000000000E+00 -0.00000000000E+00 -0.13627887685E+04  0.13627887685E+04  0.00000000000E+00 0. -1.
        -24    2    1    2    0    0 -0.28683895684E+02 -0.31528471712E+03 -0.89544704824E+03  0.95311307868E+03  0.79824218319E+02 0.  0.
    5000000    2    1    2    0    0  0.28683895684E+02  0.31528471712E+03 -0.17602081266E+03  0.70099659732E+03  0.60015471693E+03 0.  0.
        -24    2    4    4    0    0 -0.91585880960E+02 -0.15035286912E+03 -0.66137176125E+02  0.20382207366E+03  0.78583413019E+02 0.  0.
         24    2    4    4    0    0  0.12026977664E+03  0.46563758623E+03 -0.10988363654E+03  0.49717452366E+03  0.61845877088E+02 0.  0.
         11    1    5    5    0    0 -0.10443197226E+02 -0.59172834014E+02  0.86023967305E+01  0.60699966088E+02  0.00000000000E+00 0. -1.
        -12    1    5    5    0    0 -0.81142683734E+02 -0.91180035104E+02 -0.74739572855E+02  0.14312210757E+03  0.00000000000E+00 0.  1.
         13    1    3    3    0    0 -0.34238426642E+02 -0.96520849433E+02 -0.37014274520E+03  0.38404973123E+03  0.00000000000E+00 0. -1.
        -14    1    3    3    0    0  0.55545309571E+01 -0.21876386768E+03 -0.52530430305E+03  0.56906334746E+03  0.00000000000E+00 0.  1.
          2    1    6    6  502    0  0.50472371629E+02  0.29603970451E+03 -0.51413405511E+02  0.30468066103E+03  0.00000000000E+00 0. -1.
         -1    1    6    6    0  502  0.69797405015E+02  0.16959788173E+03 -0.58470231026E+02  0.19249386263E+03  0.00000000000E+00 0.  1.
<mgrwt>
<rscale>  0 0.49355131E+03</rscale>
<asrwt>0</asrwt>
<pdfrwt beam="1">  1        1 0.20965981E+00 0.49355131E+03</pdfrwt>
<pdfrwt beam="2">  1       -2 0.44818602E-01 0.49355131E+03</pdfrwt>
<totfact> 0.35882166E+01</totfact>
</mgrwt>
</event>
<event>
12    3  0.2269558E-007  0.4567387E+03  0.7818608E-02  0.1025731E+00
         -2   -1    0    0    0  501 -0.00000000000E+00  0.00000000000E+00  0.48777892412E+03  0.48777892412E+03  0.00000000000E+00 0.  1.
          1   -1    0    0  501    0  0.00000000000E+00 -0.00000000000E+00 -0.66184743844E+03  0.66184743844E+03  0.00000000000E+00 0. -1.
        -24    2    1    2    0    0  0.80589485653E+01  0.26599613935E+03 -0.37165889674E+03  0.46396283102E+03  0.79449859886E+02 0.  0.
    5000000    2    1    2    0    0 -0.80589485653E+01 -0.26599613935E+03  0.19759038243E+03  0.68566353154E+03  0.60022797874E+03 0.  0.
        -24    2    4    4    0    0 -0.28534875003E+03 -0.65852694165E+02  0.65216941936E+02  0.31080222779E+03  0.81143630758E+02 0.  0.
         24    2    4    4    0    0  0.27728980147E+03 -0.20014344518E+03  0.13237344049E+03  0.37486130375E+03  0.77789695030E+02 0.  0.
         11    1    5    5    0    0 -0.27849935096E+03 -0.75701419114E+02  0.52538230263E+02  0.29334767594E+03  0.00000000000E+00 0. -1.
        -12    1    5    5    0    0 -0.68493990761E+01  0.98487249493E+01  0.12678711673E+02  0.17454551856E+02  0.00000000000E+00 0.  1.
         11    1    3    3    0    0  0.26577137921E+02  0.10454154422E+03 -0.20219451136E+03  0.22916784057E+03  0.00000000000E+00 0. -1.
        -12    1    3    3    0    0 -0.18518189356E+02  0.16145459513E+03 -0.16946438539E+03  0.23479499045E+03  0.00000000000E+00 0.  1.
          4    1    6    6  502    0  0.11289576829E+03 -0.93008208862E+02  0.17063026096E+02  0.14726550266E+03  0.00000000000E+00 0. -1.
         -3    1    6    6    0  502  0.16439403318E+03 -0.10713523632E+03  0.11531041440E+03  0.22759580109E+03  0.00000000000E+00 0.  1.
<mgrwt>
<rscale>  0 0.45673866E+03</rscale>
<asrwt>0</asrwt>
<pdfrwt beam="1">  1        1 0.10182268E+00 0.45673866E+03</pdfrwt>
<pdfrwt beam="2">  1       -2 0.75042912E-01 0.45673866E+03</pdfrwt>
<totfact> 0.43416797E+01</totfact>
</mgrwt>
</event>
<event>
12    3  0.2269558E-007  0.1556022E+04  0.7818608E-02  0.8848030E-01
          1   -1    0    0  501    0  0.00000000000E+00  0.00000000000E+00  0.30920326063E+04  0.30920326063E+04  0.00000000000E+00 0. -1.
         -2   -1    0    0    0  501 -0.00000000000E+00 -0.00000000000E+00 -0.99717942380E+03  0.99717942380E+03  0.00000000000E+00 0.  1.
        -24    2    1    2    0    0  0.96334042630E+03  0.11772677238E+04  0.19109045209E+04  0.24437310063E+04  0.79253219695E+02 0.  0.
    5000000    2    1    2    0    0 -0.96334042630E+03 -0.11772677238E+04  0.18394866161E+03  0.16454810238E+04  0.59982215618E+03 0.  0.
        -24    2    4    4    0    0 -0.17337265807E+02  0.41990472085E+02  0.93672348964E+01  0.90284143176E+02  0.77457736139E+02 0.  0.
         24    2    4    4    0    0 -0.94600316050E+03 -0.12192581959E+04  0.17458142672E+03  0.15551968806E+04  0.81523830694E+02 0.  0.
         11    1    5    5    0    0  0.65302720762E+00  0.14344436516E+00 -0.30043542819E+02  0.30050981447E+02  0.00000000000E+00 0. -1.
        -12    1    5    5    0    0 -0.17990293014E+02  0.41847027720E+02  0.39410777715E+02  0.60233161729E+02  0.00000000000E+00 0.  1.
         13    1    3    3    0    0  0.66797881356E+03  0.80998352332E+03  0.13763337416E+04  0.17310585119E+04  0.00000000000E+00 0. -1.
        -14    1    3    3    0    0  0.29536161274E+03  0.36728420048E+03  0.53457077928E+03  0.71267249439E+03  0.00000000000E+00 0.  1.
          4    1    6    6  502    0 -0.93070756129E+02 -0.15443961893E+03  0.49337540568E+01  0.18038321283E+03  0.00000000000E+00 0. -1.
         -3    1    6    6    0  502 -0.85293240437E+03 -0.10648185770E+04  0.16964767266E+03  0.13748136678E+04  0.00000000000E+00 0.  1.
<mgrwt>
<rscale>  0 0.15560222E+04</rscale>
<asrwt>0</asrwt>
<pdfrwt beam="1">  1        1 0.47569732E+00 0.15560222E+04</pdfrwt>
<pdfrwt beam="2">  1       -2 0.15341222E+00 0.15560222E+04</pdfrwt>
<totfact> 0.11938096E-01</totfact>
</mgrwt>
</event>
<event>
12    3  0.2269558E-007  0.7332536E+03  0.7818608E-02  0.9661995E-01
          1   -1    0    0  501    0  0.00000000000E+00  0.00000000000E+00  0.28733733741E+03  0.28733733741E+03  0.00000000000E+00 0. -1.
         -2   -1    0    0    0  501 -0.00000000000E+00 -0.00000000000E+00 -0.23694334312E+04  0.23694334312E+04  0.00000000000E+00 0.  1.
        -24    2    1    2    0    0 -0.66171914541E+03 -0.18434515825E+03 -0.12168365215E+04  0.13995348857E+04  0.78430933942E+02 0.  0.
    5000000    2    1    2    0    0  0.66171914541E+03  0.18434515825E+03 -0.86525957223E+03  0.12572358829E+04  0.60009380355E+03 0.  0.
        -24    2    4    4    0    0  0.68561660782E+03  0.13522236157E+03 -0.91302618971E+03  0.11524566767E+04  0.78640629963E+02 0.  0.
         24    2    4    4    0    0 -0.23897462415E+02  0.49122796683E+02  0.47766617473E+02  0.10477920613E+03  0.75583691552E+02 0.  0.
         11    1    5    5    0    0  0.38231367683E+03  0.70419876795E+02 -0.44368910123E+03  0.58990060611E+03  0.00000000000E+00 0. -1.
        -12    1    5    5    0    0  0.30330293099E+03  0.64802484777E+02 -0.46933708848E+03  0.56255607063E+03  0.00000000000E+00 0.  1.
         11    1    3    3    0    0 -0.55695524415E+03 -0.17728752562E+03 -0.99199101852E+03  0.11513801247E+04  0.00000000000E+00 0. -1.
        -12    1    3    3    0    0 -0.10476390125E+03 -0.70576326313E+01 -0.22484550300E+03  0.24815476099E+03  0.00000000000E+00 0.  1.
          4    1    6    6  502    0  0.18331002287E+02  0.17727274583E+02 -0.93106075334E+01  0.27147178889E+02  0.00000000000E+00 0. -1.
         -3    1    6    6    0  502 -0.42228464703E+02  0.31395522100E+02  0.57077225006E+02  0.77632027241E+02  0.00000000000E+00 0.  1.
<mgrwt>
<rscale>  0 0.73325361E+03</rscale>
<asrwt>0</asrwt>
<pdfrwt beam="1">  1        1 0.44205743E-01 0.73325361E+03</pdfrwt>
<pdfrwt beam="2">  1       -2 0.36452823E+00 0.73325361E+03</pdfrwt>
<totfact> 0.10836645E+00</totfact>
</mgrwt>
</event>
<event>
12    3  0.2269558E-007  0.7301167E+03  0.7818608E-02  0.9667071E-01
         -2   -1    0    0    0  501 -0.00000000000E+00  0.00000000000E+00  0.16445100252E+04  0.16445100252E+04  0.00000000000E+00 0.  1.
          1   -1    0    0  501    0  0.00000000000E+00 -0.00000000000E+00 -0.76226011916E+03  0.76226011916E+03  0.00000000000E+00 0. -1.
        -24    2    1    2    0    0  0.59325686093E+03  0.20471559693E+03  0.12981560617E+04  0.14440598718E+04  0.78978315598E+02 0.  0.
    5000000    2    1    2    0    0 -0.59325686093E+03 -0.20471559693E+03 -0.41590615559E+03  0.96271027256E+03  0.59997579949E+03 0.  0.
        -24    2    4    4    0    0 -0.55094318856E+03  0.61843224170E+02 -0.16228899681E+03  0.58359444311E+03  0.82956459315E+02 0.  0.
         24    2    4    4    0    0 -0.42313672368E+02 -0.26655882110E+03 -0.25361715879E+03  0.37911582946E+03  0.81012943008E+02 0.  0.
         13    1    3    3    0    0  0.36551453801E+03  0.98926103243E+02  0.84533786061E+03  0.92627390656E+03  0.00000000000E+00 0. -1.
        -14    1    3    3    0    0  0.22774232293E+03  0.10578949369E+03  0.45281820106E+03  0.51778596528E+03  0.00000000000E+00 0.  1.
         13    1    5    5    0    0 -0.34274660634E+03  0.71459936894E+02 -0.12564482426E+03  0.37197900559E+03  0.00000000000E+00 0. -1.
        -14    1    5    5    0    0 -0.20819658223E+03 -0.96167127246E+01 -0.36644172548E+02  0.21161543752E+03  0.00000000000E+00 0.  1.
          2    1    6    6  502    0 -0.54367805634E+01 -0.13979628513E+03 -0.80514397760E+02  0.16141600963E+03  0.00000000000E+00 0. -1.
         -1    1    6    6    0  502 -0.36876891805E+02 -0.12676253597E+03 -0.17310276103E+03  0.21769981982E+03  0.00000000000E+00 0.  1.
<mgrwt>
<rscale>  0 0.73011674E+03</rscale>
<asrwt>0</asrwt>
<pdfrwt beam="1">  1        1 0.11727079E+00 0.73011674E+03</pdfrwt>
<pdfrwt beam="2">  1       -2 0.25300154E+00 0.73011674E+03</pdfrwt>
<totfact> 0.13430605E+00</totfact>
</mgrwt>
</event>
<event>
12    3  0.2269558E-007  0.8790598E+03  0.7818608E-02  0.9452143E-01
         -2   -1    0    0    0  501 -0.00000000000E+00  0.00000000000E+00  0.69598834732E+03  0.69598834732E+03  0.00000000000E+00 0.  1.
          1   -1    0    0  501    0  0.00000000000E+00 -0.00000000000E+00 -0.16077032095E+04  0.16077032095E+04  0.00000000000E+00 0. -1.
        -24    2    1    2    0    0  0.80905224337E+03 -0.13231306452E+03 -0.98653877424E+03  0.12850598729E+04  0.77767887085E+02 0.  0.
    5000000    2    1    2    0    0 -0.80905224337E+03  0.13231306452E+03  0.74823912090E+02  0.10186316839E+04  0.59994967297E+03 0.  0.
        -24    2    4    4    0    0 -0.63458464015E+03 -0.10128110232E+03 -0.12063097757E+03  0.65862162631E+03  0.79215444830E+02 0.  0.
         24    2    4    4    0    0 -0.17446760322E+03  0.23359416684E+03  0.19545488966E+03  0.36001005759E+03  0.79996551915E+02 0.  0.
         13    1    5    5    0    0 -0.30241919688E+03 -0.35369230217E+02 -0.95244720161E+02  0.31902963782E+03  0.00000000000E+00 0. -1.
        -14    1    5    5    0    0 -0.33216544327E+03 -0.65911872101E+02 -0.25386257412E+02  0.33959198850E+03  0.00000000000E+00 0.  1.
         13    1    3    3    0    0  0.41485065183E+03 -0.10699992847E+03 -0.50698746992E+03  0.66376678334E+03  0.00000000000E+00 0. -1.
        -14    1    3    3    0    0  0.39420159154E+03 -0.25313136059E+02 -0.47955130433E+03  0.62129308954E+03  0.00000000000E+00 0.  1.
          2    1    6    6  502    0 -0.10912475114E+03  0.14593334092E+03  0.16667211739E+03  0.24695008811E+03  0.00000000000E+00 0. -1.
         -1    1    6    6    0  502 -0.65342852084E+02  0.87660825922E+02  0.28782772276E+02  0.11305996948E+03  0.00000000000E+00 0.  1.
<mgrwt>
<rscale>  0 0.87905985E+03</rscale>
<asrwt>0</asrwt>
<pdfrwt beam="1">  1        1 0.24733896E+00 0.87905985E+03</pdfrwt>
<pdfrwt beam="2">  1       -2 0.10707513E+00 0.87905985E+03</pdfrwt>
<totfact> 0.34475997E+00</totfact>
</mgrwt>
</event>
<event>
12    3  0.2269558E-007  0.4199065E+03  0.7818608E-02  0.1037097E+00
         -2   -1    0    0    0  501 -0.00000000000E+00  0.00000000000E+00  0.26866480870E+03  0.26866480870E+03  0.00000000000E+00 0.  1.
          1   -1    0    0  501    0  0.00000000000E+00 -0.00000000000E+00 -0.18677277356E+04  0.18677277356E+04  0.00000000000E+00 0. -1.
        -24    2    1    2    0    0 -0.17297085919E+03 -0.22598007733E+03  0.99429057392E+02  0.31271121096E+03  0.83163997766E+02 0.  0.
    5000000    2    1    2    0    0  0.17297085919E+03  0.22598007733E+03 -0.16984919843E+04  0.18236813334E+04  0.59996055821E+03 0.  0.
        -24    2    4    4    0    0  0.51591032946E+02 -0.13117102078E+03 -0.10988488612E+04  0.11106710148E+04  0.79081046167E+02 0.  0.
         24    2    4    4    0    0  0.12137982624E+03  0.35715109811E+03 -0.59964312309E+03  0.71301031860E+03  0.80758097152E+02 0.  0.
         11    1    3    3    0    0 -0.72546844607E+02 -0.38603714417E+02  0.43048828685E+02  0.92771186693E+02  0.00000000000E+00 0. -1.
        -12    1    3    3    0    0 -0.10042401458E+03 -0.18737636292E+03  0.56380228707E+02  0.21994002426E+03  0.00000000000E+00 0.  1.
         13    1    5    5    0    0 -0.15865947233E+02 -0.52892708285E+01 -0.70743714306E+02  0.72693725873E+02  0.00000000000E+00 0. -1.
        -14    1    5    5    0    0  0.67456980178E+02 -0.12588174995E+03 -0.10281051469E+04  0.10379772889E+04  0.00000000000E+00 0.  1.
          4    1    6    6  502    0  0.91292803512E+02  0.14581891317E+03 -0.25466450636E+03  0.30732969627E+03  0.00000000000E+00 0. -1.
         -3    1    6    6    0  502  0.30087022730E+02  0.21133218494E+03 -0.34497861674E+03  0.40568062233E+03  0.00000000000E+00 0.  1.
<mgrwt>
<rscale>  0 0.41990652E+03</rscale>
<asrwt>0</asrwt>
<pdfrwt beam="1">  1        1 0.28734273E+00 0.41990652E+03</pdfrwt>
<pdfrwt beam="2">  1       -2 0.41333048E-01 0.41990652E+03</pdfrwt>
<totfact> 0.19592395E+01</totfact>
</mgrwt>
</event>
<event>
12    3  0.2269558E-007  0.5532444E+03  0.7818608E-02  0.1000746E+00
         -2   -1    0    0    0  501 -0.00000000000E+00  0.00000000000E+00  0.89740123423E+02  0.89740123423E+02  0.00000000000E+00 0.  1.
          1   -1    0    0  501    0  0.00000000000E+00 -0.00000000000E+00 -0.38053885655E+04  0.38053885655E+04  0.00000000000E+00 0. -1.
        -24    2    1    2    0    0 -0.14738118121E+03  0.39898080400E+03 -0.14228393011E+04  0.14872595761E+04  0.81009107559E+02 0.  0.
    5000000    2    1    2    0    0  0.14738118121E+03 -0.39898080400E+03 -0.22928091411E+04  0.24078691129E+04  0.59996084277E+03 0.  0.
        -24    2    4    4    0    0  0.85948455697E+02 -0.52433758525E+03 -0.13726499200E+04  0.14738350581E+04  0.75531022579E+02 0.  0.
         24    2    4    4    0    0  0.61432725512E+02  0.12535678125E+03 -0.92015922107E+03  0.93403405474E+03  0.78983042101E+02 0.  0.
         11    1    3    3    0    0  0.92770204855E+01  0.17788779895E+02 -0.49374315956E+02  0.53294717143E+02  0.00000000000E+00 0. -1.
        -12    1    3    3    0    0 -0.15665820169E+03  0.38119202411E+03 -0.13734649851E+04  0.14339648590E+04  0.00000000000E+00 0.  1.
         13    1    5    5    0    0  0.80669836252E+02 -0.51849857676E+03 -0.13179206367E+04  0.14185426329E+04  0.00000000000E+00 0. -1.
        -14    1    5    5    0    0  0.52786194448E+01 -0.58390084887E+01 -0.54729283248E+02  0.55292425234E+02  0.00000000000E+00 0.  1.
          4    1    6    6  502    0  0.45708463728E+02  0.11232280667E+03 -0.54540975259E+03  0.55872844457E+03  0.00000000000E+00 0. -1.
         -1    1    6    6    0  502  0.15724261784E+02  0.13033974571E+02 -0.37474946847E+03  0.37530561017E+03  0.00000000000E+00 0.  1.
<mgrwt>
<rscale>  0 0.55324441E+03</rscale>
<asrwt>0</asrwt>
<pdfrwt beam="1">  1        1 0.58544430E+00 0.55324441E+03</pdfrwt>
<pdfrwt beam="2">  1       -2 0.13806175E-01 0.55324441E+03</pdfrwt>
<totfact> 0.56752323E+00</totfact>
</mgrwt>
</event>
<event>
12    3  0.2269558E-007  0.5891777E+03  0.7818608E-02  0.9928117E-01
          1   -1    0    0  501    0  0.00000000000E+00  0.00000000000E+00  0.74063304674E+03  0.74063304674E+03  0.00000000000E+00 0. -1.
         -2   -1    0    0    0  501 -0.00000000000E+00 -0.00000000000E+00 -0.52693011188E+03  0.52693011188E+03  0.00000000000E+00 0.  1.
        -24    2    1    2    0    0 -0.10768385819E+03  0.45143475514E+03 -0.26357712572E+02  0.47186032564E+03  0.81044965528E+02 0.  0.
    5000000    2    1    2    0    0  0.10768385819E+03 -0.45143475514E+03  0.24006064743E+03  0.79570283299E+03  0.60010393477E+03 0.  0.
        -24    2    4    4    0    0 -0.15996711124E+03 -0.40712018352E+03  0.25614164416E+03  0.51268302976E+03  0.76805121042E+02 0.  0.
         24    2    4    4    0    0  0.26765096943E+03 -0.44314571616E+02 -0.16080996730E+02  0.28301980323E+03  0.78998657396E+02 0.  0.
         13    1    5    5    0    0 -0.62018857479E+02 -0.23121704224E+03  0.17044213755E+03  0.29386762591E+03  0.00000000000E+00 0. -1.
        -14    1    5    5    0    0 -0.97948253762E+02 -0.17590314128E+03  0.85699506612E+02  0.21881540385E+03  0.00000000000E+00 0.  1.
         13    1    3    3    0    0 -0.81414868939E+02  0.26736279304E+03  0.20105115328E+02  0.28020610209E+03  0.00000000000E+00 0. -1.
        -14    1    3    3    0    0 -0.26268989253E+02  0.18407196209E+03 -0.46462827900E+02  0.19165422354E+03  0.00000000000E+00 0.  1.
          2    1    6    6  502    0  0.10545825417E+03 -0.64489780679E+01  0.30691716964E+02  0.11002278937E+03  0.00000000000E+00 0. -1.
         -1    1    6    6    0  502  0.16219271526E+03 -0.37865593548E+02 -0.46772713693E+02  0.17299701386E+03  0.00000000000E+00 0.  1.
<mgrwt>
<rscale>  0 0.58917769E+03</rscale>
<asrwt>0</asrwt>
<pdfrwt beam="1">  1        1 0.11394355E+00 0.58917769E+03</pdfrwt>
<pdfrwt beam="2">  1       -2 0.81066171E-01 0.58917769E+03</pdfrwt>
<totfact> 0.30419625E+01</totfact>
</mgrwt>
</event>
<event>
12    3  0.2269558E-007  0.4699081E+03  0.7818608E-02  0.1021946E+00
          1   -1    0    0  501    0  0.00000000000E+00  0.00000000000E+00  0.30199140991E+03  0.30199140991E+03  0.00000000000E+00 0. -1.
         -2   -1    0    0    0  501 -0.00000000000E+00 -0.00000000000E+00 -0.12697105551E+04  0.12697105551E+04  0.00000000000E+00 0.  1.
        -24    2    1    2    0    0  0.33225728096E+03  0.20851520941E+03 -0.44057539193E+02  0.40253386042E+03  0.78860311427E+02 0.  0.
    5000000    2    1    2    0    0 -0.33225728096E+03 -0.20851520941E+03 -0.92366160598E+03  0.11691681046E+04  0.59994149805E+03 0.  0.
        -24    2    4    4    0    0 -0.38414913835E+03 -0.90695670897E+02 -0.24056202033E+03  0.46917531102E+03  0.80368660718E+02 0.  0.
         24    2    4    4    0    0  0.51891857392E+02 -0.11781953852E+03 -0.68309958565E+03  0.69999279356E+03  0.82405452506E+02 0.  0.
         13    1    5    5    0    0 -0.12664123071E+03 -0.68905069950E+02 -0.78954296186E+02  0.16437667373E+03  0.00000000000E+00 0. -1.
        -14    1    5    5    0    0 -0.25750790764E+03 -0.21790600947E+02 -0.16160772415E+03  0.30479863729E+03  0.00000000000E+00 0.  1.
         13    1    3    3    0    0  0.12510619849E+03  0.72112538800E+02 -0.54356860805E+02  0.15429338116E+03  0.00000000000E+00 0. -1.
        -14    1    3    3    0    0  0.20715108246E+03  0.13640267061E+03  0.10299321612E+02  0.24824047926E+03  0.00000000000E+00 0.  1.
          2    1    6    6  502    0  0.34351885185E+02 -0.10324437834E+02 -0.28551659736E+03  0.28776096574E+03  0.00000000000E+00 0. -1.
         -1    1    6    6    0  502  0.17539972207E+02 -0.10749510068E+03 -0.39758298829E+03  0.41223182782E+03  0.00000000000E+00 0.  1.
<mgrwt>
<rscale>  0 0.46990808E+03</rscale>
<asrwt>0</asrwt>
<pdfrwt beam="1">  1        1 0.46460216E-01 0.46990808E+03</pdfrwt>
<pdfrwt beam="2">  1       -2 0.19534009E+00 0.46990808E+03</pdfrwt>
<totfact> 0.11451584E+01</totfact>
</mgrwt>
</event>
<event>
12    3  0.2269558E-007  0.4028439E+03  0.7818608E-02  0.1042799E+00
          1   -1    0    0  501    0  0.00000000000E+00  0.00000000000E+00  0.20381132131E+04  0.20381132131E+04  0.00000000000E+00 0. -1.
         -2   -1    0    0    0  501 -0.00000000000E+00 -0.00000000000E+00 -0.16076366031E+03  0.16076366031E+03  0.00000000000E+00 0.  1.
        -24    2    1    2    0    0  0.49997027692E+02 -0.35644149574E+03  0.10633329610E+04  0.11255044285E+04  0.80826913739E+02 0.  0.
    5000000    2    1    2    0    0 -0.49997027692E+02  0.35644149574E+03  0.81401659178E+03  0.10733724449E+04  0.59996262477E+03 0.  0.
        -24    2    4    4    0    0  0.10673180538E+02  0.34954397167E+03  0.88210251763E+03  0.95232549879E+03  0.80771895589E+02 0.  0.
         24    2    4    4    0    0 -0.60670208229E+02  0.68975240647E+01 -0.68085925848E+02  0.12104694611E+03  0.79298296703E+02 0.  0.
         11    1    3    3    0    0  0.52187965261E+02 -0.13938097552E+03  0.50440834164E+03  0.52590723057E+03  0.00000000000E+00 0. -1.
        -12    1    3    3    0    0 -0.21909375692E+01 -0.21706052022E+03  0.55892461938E+03  0.59959719795E+03  0.00000000000E+00 0.  1.
         11    1    5    5    0    0 -0.12682350403E+02  0.32222298010E+03  0.77756467040E+03  0.84178103303E+03  0.00000000000E+00 0. -1.
        -12    1    5    5    0    0  0.23355530941E+02  0.27320991573E+02  0.10453784723E+03  0.11054446575E+03  0.00000000000E+00 0.  1.
          2    1    6    6  502    0 -0.13181162929E+02  0.26809823981E+02 -0.62471078784E+02  0.69246988400E+02  0.00000000000E+00 0. -1.
         -1    1    6    6    0  502 -0.47489045301E+02 -0.19912299917E+02 -0.56148470642E+01  0.51799957713E+02  0.00000000000E+00 0.  1.
<mgrwt>
<rscale>  0 0.40284393E+03</rscale>
<asrwt>0</asrwt>
<pdfrwt beam="1">  1        1 0.31355586E+00 0.40284393E+03</pdfrwt>
<pdfrwt beam="2">  1       -2 0.24732872E-01 0.40284393E+03</pdfrwt>
<totfact> 0.39473698E+01</totfact>
</mgrwt>
</event>
<event>
12    3  0.2269558E-007  0.6872097E+03  0.7818608E-02  0.9739359E-01
         -2   -1    0    0    0  501 -0.00000000000E+00  0.00000000000E+00  0.82662381579E+03  0.82662381579E+03  0.00000000000E+00 0.  1.
          1   -1    0    0  501    0  0.00000000000E+00 -0.00000000000E+00 -0.16898799271E+04  0.16898799271E+04  0.00000000000E+00 0. -1.
        -24    2    1    2    0    0 -0.54425930878E+03  0.20882662392E+03 -0.14029390714E+04  0.15210094005E+04  0.73517373096E+02 0.  0.
    5000000    2    1    2    0    0  0.54425930878E+03 -0.20882662392E+03  0.53968296007E+03  0.99549434247E+03  0.59993710875E+03 0.  0.
        -24    2    4    4    0    0  0.46060361337E+03  0.92632698040E+02  0.46236741731E+03  0.66381428353E+03  0.78289648317E+02 0.  0.
         24    2    4    4    0    0  0.83655695404E+02 -0.30145932196E+03  0.77315542760E+02  0.33168005894E+03  0.78472735246E+02 0.  0.
         11    1    5    5    0    0  0.13592943229E+03  0.25658386575E+02  0.18850613003E+03  0.23381557780E+03  0.00000000000E+00 0. -1.
        -12    1    5    5    0    0  0.32467418109E+03  0.66974311465E+02  0.27386128728E+03  0.42999870573E+03  0.00000000000E+00 0.  1.
         13    1    3    3    0    0 -0.38868471678E+03  0.17386802232E+03 -0.95815104471E+03  0.10485033728E+04  0.00000000000E+00 0. -1.
        -14    1    3    3    0    0 -0.15557459199E+03  0.34958601600E+02 -0.44478802669E+03  0.47250602768E+03  0.00000000000E+00 0.  1.
          2    1    6    6  502    0 -0.10815301125E+02 -0.28824423788E+02 -0.59735907769E+01  0.31360834362E+02  0.00000000000E+00 0. -1.
         -1    1    6    6    0  502  0.94470996529E+02 -0.27263489817E+03  0.83289133537E+02  0.30031922458E+03  0.00000000000E+00 0.  1.
<mgrwt>
<rscale>  0 0.68720973E+03</rscale>
<asrwt>0</asrwt>
<pdfrwt beam="1">  1        1 0.25998153E+00 0.68720973E+03</pdfrwt>
<pdfrwt beam="2">  1       -2 0.12717289E+00 0.68720973E+03</pdfrwt>
<totfact> 0.20481459E+00</totfact>
</mgrwt>
</event>
<event>
12    3  0.2269558E-007  0.8026803E+03  0.7818608E-02  0.9556146E-01
          1   -1    0    0  501    0  0.00000000000E+00  0.00000000000E+00  0.23986576528E+04  0.23986576528E+04  0.00000000000E+00 0. -1.
         -2   -1    0    0    0  501 -0.00000000000E+00 -0.00000000000E+00 -0.32900785171E+03  0.32900785171E+03  0.00000000000E+00 0.  1.
        -24    2    1    2    0    0  0.21974361251E+03 -0.71675717937E+03  0.12755579974E+04  0.14817518967E+04  0.80699252226E+02 0.  0.
    5000000    2    1    2    0    0 -0.21974361251E+03  0.71675717937E+03  0.79409180369E+03  0.12459136078E+04  0.59974229128E+03 0.  0.
        -24    2    4    4    0    0  0.10765523640E+03  0.20623295692E+03  0.44824082627E+01  0.24702892985E+03  0.82954913989E+02 0.  0.
         24    2    4    4    0    0 -0.32739884891E+03  0.51052422245E+03  0.78960939542E+03  0.99888467793E+03  0.80390388004E+02 0.  0.
         11    1    3    3    0    0  0.88530539161E+02 -0.21239542668E+03  0.45091069098E+03  0.50623109829E+03  0.00000000000E+00 0. -1.
        -12    1    3    3    0    0  0.13121307335E+03 -0.50436175269E+03  0.82464730640E+03  0.97552079842E+03  0.00000000000E+00 0.  1.
         11    1    5    5    0    0  0.81184265518E+02  0.81740578627E+02 -0.21325801603E+02  0.11716312123E+03  0.00000000000E+00 0. -1.
        -12    1    5    5    0    0  0.26470970882E+02  0.12449237830E+03  0.25808209866E+02  0.12986580862E+03  0.00000000000E+00 0.  1.
          4    1    6    6  502    0 -0.13862128346E+03  0.14730252896E+03  0.25015650394E+03  0.32170199211E+03  0.00000000000E+00 0. -1.
         -3    1    6    6    0  502 -0.18877756545E+03  0.36322169349E+03  0.53945289148E+03  0.67718268581E+03  0.00000000000E+00 0.  1.
<mgrwt>
<rscale>  0 0.80268030E+03</rscale>
<asrwt>0</asrwt>
<pdfrwt beam="1">  1        1 0.36902424E+00 0.80268030E+03</pdfrwt>
<pdfrwt beam="2">  1       -2 0.50616594E-01 0.80268030E+03</pdfrwt>
<totfact> 0.53809704E+00</totfact>
</mgrwt>
</event>
<event>
12    3  0.2269558E-007  0.6747993E+03  0.7818608E-02  0.9761326E-01
         -2   -1    0    0    0  501 -0.00000000000E+00  0.00000000000E+00  0.14069512986E+04  0.14069512986E+04  0.00000000000E+00 0.  1.
          1   -1    0    0  501    0  0.00000000000E+00 -0.00000000000E+00 -0.43676630960E+03  0.43676630960E+03  0.00000000000E+00 0. -1.
        -24    2    1    2    0    0  0.36157909090E+03 -0.55275068472E+03  0.31173445020E+03  0.73476257964E+03  0.80155614716E+02 0.  0.
    5000000    2    1    2    0    0 -0.36157909090E+03  0.55275068472E+03  0.65845053883E+03  0.11089550286E+04  0.59995948606E+03 0.  0.
        -24    2    4    4    0    0 -0.33001313010E+03  0.41414381995E+03  0.74999302064E+03  0.92148798006E+03  0.78910054841E+02 0.  0.
         24    2    4    4    0    0 -0.31565960794E+02  0.13860686477E+03 -0.91542481804E+02  0.18746704852E+03  0.80966631805E+02 0.  0.
         11    1    3    3    0    0  0.32523509503E+03 -0.44891747573E+03  0.24485874212E+03  0.60602027247E+03  0.00000000000E+00 0. -1.
        -12    1    3    3    0    0  0.36343995872E+02 -0.10383320899E+03  0.66875708082E+02  0.12874230718E+03  0.00000000000E+00 0.  1.
         13    1    5    5    0    0 -0.16830967119E+03  0.16762331542E+03  0.28640359299E+03  0.37209238015E+03  0.00000000000E+00 0. -1.
        -14    1    5    5    0    0 -0.16170345892E+03  0.24652050453E+03  0.46358942765E+03  0.54939559992E+03  0.00000000000E+00 0.  1.
          4    1    6    6  502    0 -0.23966296190E+02  0.13441473137E+02 -0.46908866448E+02  0.54364494890E+02  0.00000000000E+00 0. -1.
         -3    1    6    6    0  502 -0.75996646033E+01  0.12516539163E+03 -0.44633615356E+02  0.13310255363E+03  0.00000000000E+00 0.  1.
<mgrwt>
<rscale>  0 0.67479932E+03</rscale>
<asrwt>0</asrwt>
<pdfrwt beam="1">  1        1 0.67194818E-01 0.67479932E+03</pdfrwt>
<pdfrwt beam="2">  1       -2 0.21645404E+00 0.67479932E+03</pdfrwt>
<totfact> 0.50350298E+00</totfact>
</mgrwt>
</event>
<event>
12    3  0.2269558E-007  0.5692985E+03  0.7818608E-02  0.9971232E-01
          1   -1    0    0  501    0  0.00000000000E+00  0.00000000000E+00  0.15368426547E+04  0.15368426547E+04  0.00000000000E+00 0. -1.
         -2   -1    0    0    0  501 -0.00000000000E+00 -0.00000000000E+00 -0.28202955736E+03  0.28202955736E+03  0.00000000000E+00 0.  1.
        -24    2    1    2    0    0  0.18409216201E+03 -0.40935439580E+03  0.85666772150E+03  0.97031980332E+03  0.78612913470E+02 0.  0.
    5000000    2    1    2    0    0 -0.18409216201E+03  0.40935439580E+03  0.39814537583E+03  0.84855240874E+03  0.60005041839E+03 0.  0.
        -24    2    4    4    0    0 -0.35240533188E+03  0.23537521798E+03  0.75310512256E+02  0.43715858762E+03  0.76452248439E+02 0.  0.
         24    2    4    4    0    0  0.16831316987E+03  0.17397917782E+03  0.32283486358E+03  0.41139382113E+03  0.80152663412E+02 0.  0.
         11    1    3    3    0    0  0.10284737584E+03 -0.14379519421E+03  0.29972781703E+03  0.34798190311E+03  0.00000000000E+00 0. -1.
        -12    1    3    3    0    0  0.81244786176E+02 -0.26555920160E+03  0.55693990447E+03  0.62233790020E+03  0.00000000000E+00 0.  1.
         13    1    5    5    0    0 -0.23608152661E+03  0.11295806477E+03  0.48639077441E+02  0.26619498767E+03  0.00000000000E+00 0. -1.
        -14    1    5    5    0    0 -0.11632380527E+03  0.12241715321E+03  0.26671434814E+02  0.17096359995E+03  0.00000000000E+00 0.  1.
          2    1    6    6  502    0  0.80754030690E+02  0.32325458636E+02  0.90321696382E+02  0.12539600307E+03  0.00000000000E+00 0. -1.
         -1    1    6    6    0  502  0.87559139180E+02  0.14165371918E+03  0.23251316720E+03  0.28599781806E+03  0.00000000000E+00 0.  1.
<mgrwt>
<rscale>  0 0.56929849E+03</rscale>
<asrwt>0</asrwt>
<pdfrwt beam="1">  1        1 0.23643733E+00 0.56929849E+03</pdfrwt>
<pdfrwt beam="2">  1       -2 0.43389164E-01 0.56929849E+03</pdfrwt>
<totfact> 0.28752706E+01</totfact>
</mgrwt>
</event>
<event>
12    3  0.2269558E-007  0.1774521E+04  0.7818608E-02  0.8719967E-01
         -2   -1    0    0    0  501 -0.00000000000E+00  0.00000000000E+00  0.12037429503E+04  0.12037429503E+04  0.00000000000E+00 0.  1.
          1   -1    0    0  501    0  0.00000000000E+00 -0.00000000000E+00 -0.30264591406E+04  0.30264591406E+04  0.00000000000E+00 0. -1.
        -24    2    1    2    0    0 -0.16839351349E+04  0.39101049526E+03 -0.16516281148E+04  0.23923203673E+04  0.82429147577E+02 0.  0.
    5000000    2    1    2    0    0  0.16839351349E+04 -0.39101049526E+03 -0.17108807555E+03  0.18378817236E+04  0.60000946210E+03 0.  0.
        -24    2    4    4    0    0  0.13007566205E+04 -0.51639463797E+02 -0.19667876037E+03  0.13189771251E+04  0.79898072017E+02 0.  0.
         24    2    4    4    0    0  0.38317851441E+03 -0.33937103146E+03  0.25590684822E+02  0.51890459851E+03  0.81293470258E+02 0.  0.
         11    1    3    3    0    0 -0.10188752161E+04  0.19579742568E+03 -0.98009203095E+03  0.14272434014E+04  0.00000000000E+00 0. -1.
        -12    1    3    3    0    0 -0.66505991879E+03  0.19521306957E+03 -0.67153608381E+03  0.96507696583E+03  0.00000000000E+00 0.  1.
         13    1    5    5    0    0  0.83412039643E+03 -0.43025884192E+02 -0.88639321441E+02  0.83991963410E+03  0.00000000000E+00 0. -1.
        -14    1    5    5    0    0  0.46663622404E+03 -0.86135796050E+01 -0.10803943893E+03  0.47905749102E+03  0.00000000000E+00 0.  1.
          4    1    6    6  502    0  0.18762820466E+03 -0.12065666804E+03  0.32538398965E+02  0.22543540568E+03  0.00000000000E+00 0. -1.
         -3    1    6    6    0  502  0.19555030974E+03 -0.21871436342E+03 -0.69477141429E+01  0.29346919283E+03  0.00000000000E+00 0.  1.
<mgrwt>
<rscale>  0 0.17745214E+04</rscale>
<asrwt>0</asrwt>
<pdfrwt beam="1">  1        1 0.46560909E+00 0.17745214E+04</pdfrwt>
<pdfrwt beam="2">  1       -2 0.18519123E+00 0.17745214E+04</pdfrwt>
<totfact> 0.76715406E-02</totfact>
</mgrwt>
</event>
<event>
12    3  0.2269558E-007  0.9906677E+03  0.7818608E-02  0.9318840E-01
         -2   -1    0    0    0  501 -0.00000000000E+00  0.00000000000E+00  0.19600578910E+04  0.19600578910E+04  0.00000000000E+00 0.  1.
          1   -1    0    0  501    0  0.00000000000E+00 -0.00000000000E+00 -0.63390806710E+03  0.63390806710E+03  0.00000000000E+00 0. -1.
        -24    2    1    2    0    0 -0.61175568411E+03 -0.77691116995E+03  0.27143609834E+03  0.10285513065E+04  0.80026568112E+02 0.  0.
    5000000    2    1    2    0    0  0.61175568411E+03  0.77691116995E+03  0.10547137256E+04  0.15654146516E+04  0.60022163032E+03 0.  0.
        -24    2    4    4    0    0  0.10251064463E+03  0.11774865520E+03 -0.47245469000E+02  0.18157994979E+03  0.79787002449E+02 0.  0.
         24    2    4    4    0    0  0.50924503948E+03  0.65916251475E+03  0.11019591946E+04  0.13838347018E+04  0.82817174248E+02 0.  0.
         11    1    3    3    0    0 -0.22939754341E+03 -0.33417438409E+03  0.81033509225E+02  0.41335478892E+03  0.00000000000E+00 0. -1.
        -12    1    3    3    0    0 -0.38235814070E+03 -0.44273678586E+03  0.19040258911E+03  0.61519651759E+03  0.00000000000E+00 0.  1.
         13    1    5    5    0    0  0.68827288654E+02  0.79237877717E+02  0.92469115877E+01  0.10536290762E+03  0.00000000000E+00 0. -1.
        -14    1    5    5    0    0  0.33683355977E+02  0.38510777486E+02 -0.56492380587E+02  0.76217042168E+02  0.00000000000E+00 0.  1.
          4    1    6    6  502    0  0.20055871671E+03  0.21528058329E+03  0.34152901680E+03  0.45078997073E+03  0.00000000000E+00 0. -1.
         -3    1    6    6    0  502  0.30868632277E+03  0.44388193146E+03  0.76043017777E+03  0.93304473108E+03  0.00000000000E+00 0.  1.
<mgrwt>
<rscale>  0 0.99066775E+03</rscale>
<asrwt>0</asrwt>
<pdfrwt beam="1">  1        1 0.97524319E-01 0.99066775E+03</pdfrwt>
<pdfrwt beam="2">  1       -2 0.30154737E+00 0.99066775E+03</pdfrwt>
<totfact> 0.87030422E-01</totfact>
</mgrwt>
</event>
<event>
12    3  0.2269558E-007  0.1158008E+04  0.7818608E-02  0.9150428E-01
          1   -1    0    0  501    0  0.00000000000E+00  0.00000000000E+00  0.96672839717E+03  0.96672839717E+03  0.00000000000E+00 0. -1.
         -2   -1    0    0    0  501 -0.00000000000E+00 -0.00000000000E+00 -0.17784634707E+04  0.17784634707E+04  0.00000000000E+00 0.  1.
        -24    2    1    2    0    0 -0.57061588587E+03  0.95363454194E+03  0.19373987287E+03  0.11308521301E+04  0.79183792148E+02 0.  0.
    5000000    2    1    2    0    0  0.57061588587E+03 -0.95363454194E+03 -0.10054749464E+04  0.16143397378E+04  0.60007632219E+03 0.  0.
        -24    2    4    4    0    0  0.21536003506E+02 -0.46415120913E+03 -0.17738233692E+03  0.50384717772E+03  0.80606083283E+02 0.  0.
         24    2    4    4    0    0  0.54907988237E+03 -0.48948333281E+03 -0.82809260948E+03  0.11104925601E+04  0.79835492301E+02 0.  0.
         13    1    5    5    0    0  0.37223099229E+02 -0.38576125321E+03 -0.17114474022E+03  0.42366003553E+03  0.00000000000E+00 0. -1.
        -14    1    5    5    0    0 -0.15687095722E+02 -0.78389955920E+02 -0.62375967011E+01  0.80187142198E+02  0.00000000000E+00 0.  1.
         13    1    3    3    0    0 -0.45685414451E+03  0.74512913584E+03  0.12052779681E+03  0.88230385256E+03  0.00000000000E+00 0. -1.
        -14    1    3    3    0    0 -0.11376174136E+03  0.20850540610E+03  0.73212076055E+02  0.24854827751E+03  0.00000000000E+00 0.  1.
          2    1    6    6  502    0  0.17674882675E+03 -0.18635333646E+03 -0.24246771650E+03  0.35321142013E+03  0.00000000000E+00 0. -1.
         -1    1    6    6    0  502  0.37233105561E+03 -0.30312999635E+03 -0.58562489298E+03  0.75728113996E+03  0.00000000000E+00 0.  1.
<mgrwt>
<rscale>  0 0.11580079E+04</rscale>
<asrwt>0</asrwt>
<pdfrwt beam="1">  1        1 0.14872745E+00 0.11580079E+04</pdfrwt>
<pdfrwt beam="2">  1       -2 0.27360976E+00 0.11580079E+04</pdfrwt>
<totfact> 0.63875445E-01</totfact>
</mgrwt>
</event>
<event>
12    3  0.2269558E-007  0.4521829E+03  0.7818608E-02  0.1027073E+00
          1   -1    0    0  501    0  0.00000000000E+00  0.00000000000E+00  0.16795515989E+04  0.16795515989E+04  0.00000000000E+00 0. -1.
         -2   -1    0    0    0  501 -0.00000000000E+00 -0.00000000000E+00 -0.16563446044E+03  0.16563446044E+03  0.00000000000E+00 0.  1.
        -24    2    1    2    0    0  0.25377143312E+03 -0.15093536417E+03  0.18450169468E+03  0.35703611152E+03  0.79072657504E+02 0.  0.
    5000000    2    1    2    0    0 -0.25377143312E+03  0.15093536417E+03  0.13294154437E+04  0.14881499478E+04  0.60005284818E+03 0.  0.
        -24    2    4    4    0    0 -0.25525262852E+03  0.32508457156E+03  0.59219497650E+03  0.72652104038E+03  0.79398040844E+02 0.  0.
         24    2    4    4    0    0  0.14811953959E+01 -0.17414920739E+03  0.73722046724E+03  0.76162890741E+03  0.79084985313E+02 0.  0.
         11    1    3    3    0    0  0.20173219250E+03 -0.13069546526E+03  0.18135776821E+03  0.30111097991E+03  0.00000000000E+00 0. -1.
        -12    1    3    3    0    0  0.52039240627E+02 -0.20239898908E+02  0.31439264711E+01  0.55925131618E+02  0.00000000000E+00 0.  1.
         13    1    5    5    0    0 -0.97113484957E+02  0.81239565815E+02  0.22554255916E+03  0.25865100426E+03  0.00000000000E+00 0. -1.
        -14    1    5    5    0    0 -0.15813914356E+03  0.24384500575E+03  0.36665241734E+03  0.46787003612E+03  0.00000000000E+00 0.  1.
          4    1    6    6  502    0 -0.38158834263E+02 -0.95422629708E+02  0.37351406810E+03  0.38739428747E+03  0.00000000000E+00 0. -1.
         -3    1    6    6    0  502  0.39640029659E+02 -0.78726577681E+02  0.36370639914E+03  0.37423461994E+03  0.00000000000E+00 0.  1.
<mgrwt>
<rscale>  0 0.45218289E+03</rscale>
<asrwt>0</asrwt>
<pdfrwt beam="1">  1        1 0.25839254E+00 0.45218289E+03</pdfrwt>
<pdfrwt beam="2">  1       -2 0.25482226E-01 0.45218289E+03</pdfrwt>
<totfact> 0.63882394E+01</totfact>
</mgrwt>
</event>
<event>
12    3  0.2269558E-007  0.3412680E+03  0.7818608E-02  0.1066257E+00
          1   -1    0    0  501    0  0.00000000000E+00  0.00000000000E+00  0.78138770466E+03  0.78138770466E+03  0.00000000000E+00 0. -1.
         -2   -1    0    0    0  501 -0.00000000000E+00 -0.00000000000E+00 -0.19431668545E+03  0.19431668545E+03  0.00000000000E+00 0.  1.
        -24    2    1    2    0    0 -0.11703601338E+03  0.40798231356E+02  0.31621377230E+02  0.14852521765E+03  0.75484466430E+02 0.  0.
    5000000    2    1    2    0    0  0.11703601338E+03 -0.40798231356E+02  0.55544964198E+03  0.82717917245E+03  0.60028256218E+03 0.  0.
        -24    2    4    4    0    0  0.11433448672E+03 -0.28060825389E+03  0.46116540492E+03  0.55727503835E+03  0.77901031275E+02 0.  0.
         24    2    4    4    0    0  0.27015266530E+01  0.23981002253E+03  0.94284237061E+02  0.26990413410E+03  0.80265678194E+02 0.  0.
         13    1    3    3    0    0 -0.71067827756E+02  0.27634809769E+02 -0.19317137028E+02  0.78660476962E+02  0.00000000000E+00 0. -1.
        -14    1    3    3    0    0 -0.45968185622E+02  0.13163421587E+02  0.50938514258E+02  0.69864740693E+02  0.00000000000E+00 0.  1.
         13    1    5    5    0    0  0.34878079475E+02 -0.14484959218E+03  0.28136782113E+03  0.31837986046E+03  0.00000000000E+00 0. -1.
        -14    1    5    5    0    0  0.79456407250E+02 -0.13575866171E+03  0.17979758379E+03  0.23889517789E+03  0.00000000000E+00 0.  1.
          2    1    6    6  502    0  0.38342396274E+02  0.16378181817E+03  0.53186028999E+02  0.17641818782E+03  0.00000000000E+00 0. -1.
         -1    1    6    6    0  502 -0.35640869621E+02  0.76028204363E+02  0.41098208062E+02  0.93485946280E+02  0.00000000000E+00 0.  1.
<mgrwt>
<rscale>  0 0.34126805E+03</rscale>
<asrwt>0</asrwt>
<pdfrwt beam="1">  1        1 0.12021349E+00 0.34126805E+03</pdfrwt>
<pdfrwt beam="2">  1       -2 0.29894875E-01 0.34126805E+03</pdfrwt>
<totfact> 0.21633352E+02</totfact>
</mgrwt>
</event>
<event>
12    3  0.2269558E-007  0.4365212E+03  0.7818608E-02  0.1031820E+00
         -2   -1    0    0    0  501 -0.00000000000E+00  0.00000000000E+00  0.36856912122E+03  0.36856912122E+03  0.00000000000E+00 0.  1.
          1   -1    0    0  501    0  0.00000000000E+00 -0.00000000000E+00 -0.82824685267E+03  0.82824685267E+03  0.00000000000E+00 0. -1.
        -24    2    1    2    0    0  0.22261238327E+03 -0.25434558451E+03 -0.36117728656E+03  0.50124241429E+03  0.80913385868E+02 0.  0.
    5000000    2    1    2    0    0 -0.22261238327E+03  0.25434558451E+03 -0.98500444889E+02  0.69557355960E+03  0.59989356525E+03 0.  0.
        -24    2    4    4    0    0  0.53279708582E+02  0.23079171688E+03 -0.26389022078E+03  0.36343655052E+03  0.79652581275E+02 0.  0.
         24    2    4    4    0    0 -0.27589209185E+03  0.23553867630E+02  0.16538977589E+03  0.33213700908E+03  0.79309418136E+02 0.  0.
         11    1    5    5    0    0  0.73948354327E+02  0.16650985487E+03 -0.18629787137E+03  0.26057779597E+03  0.00000000000E+00 0. -1.
        -12    1    5    5    0    0 -0.20668645745E+02  0.64281862015E+02 -0.77592349404E+02  0.10285875455E+03  0.00000000000E+00 0.  1.
         13    1    3    3    0    0  0.16919377854E+03 -0.19146864357E+03 -0.21744297921E+03  0.33551188559E+03  0.00000000000E+00 0. -1.
        -14    1    3    3    0    0  0.53418604732E+02 -0.62876940949E+02 -0.14373430735E+03  0.16573052870E+03  0.00000000000E+00 0.  1.
          4    1    6    6  502    0 -0.53909574426E+02 -0.22811052491E+02  0.53330589766E+02  0.79187992369E+02  0.00000000000E+00 0. -1.
         -3    1    6    6    0  502 -0.22198251743E+03  0.46364920121E+02  0.11205918612E+03  0.25294901671E+03  0.00000000000E+00 0.  1.
<mgrwt>
<rscale>  0 0.43652124E+03</rscale>
<asrwt>0</asrwt>
<pdfrwt beam="1">  1        1 0.12742259E+00 0.43652124E+03</pdfrwt>
<pdfrwt beam="2">  1       -2 0.56702943E-01 0.43652124E+03</pdfrwt>
<totfact> 0.56255456E+01</totfact>
</mgrwt>
</event>
<event>
12    3  0.2269558E-007  0.1446054E+04  0.7818608E-02  0.8921141E-01
         -2   -1    0    0    0  501 -0.00000000000E+00  0.00000000000E+00  0.20940832306E+04  0.20940832306E+04  0.00000000000E+00 0.  1.
          1   -1    0    0  501    0  0.00000000000E+00 -0.00000000000E+00 -0.12028266828E+04  0.12028266828E+04  0.00000000000E+00 0. -1.
        -24    2    1    2    0    0  0.95257926699E+03  0.10314725512E+04  0.10596241308E+04  0.17608108889E+04  0.79427980658E+02 0.  0.
    5000000    2    1    2    0    0 -0.95257926699E+03 -0.10314725512E+04 -0.16836758302E+03  0.15360990245E+04  0.59992473398E+03 0.  0.
        -24    2    4    4    0    0 -0.88600472046E+03 -0.10659379966E+04 -0.72353616090E+02  0.13907506613E+04  0.87887307875E+02 0.  0.
         24    2    4    4    0    0 -0.66574546525E+02  0.34465445405E+02 -0.96013966931E+02  0.14534836325E+03  0.79293301614E+02 0.  0.
         11    1    3    3    0    0  0.38149190014E+03  0.36256779945E+03  0.41856041762E+03  0.67244650514E+03  0.00000000000E+00 0. -1.
        -12    1    3    3    0    0  0.57108736685E+03  0.66890475171E+03  0.64106371316E+03  0.10883643837E+04  0.00000000000E+00 0.  1.
         13    1    5    5    0    0 -0.58701049258E+03 -0.65736538783E+03 -0.17356403187E+02  0.88148273735E+03  0.00000000000E+00 0. -1.
        -14    1    5    5    0    0 -0.29899422788E+03 -0.40857260873E+03 -0.54997212903E+02  0.50926792392E+03  0.00000000000E+00 0.  1.
          4    1    6    6  502    0  0.17491124065E+00  0.31875410003E+02 -0.47169282345E+01  0.32223000617E+02  0.00000000000E+00 0. -1.
         -3    1    6    6    0  502 -0.66749457765E+02  0.25900354014E+01 -0.91297038696E+02  0.11312536263E+03  0.00000000000E+00 0.  1.
<mgrwt>
<rscale>  0 0.14460538E+04</rscale>
<asrwt>0</asrwt>
<pdfrwt beam="1">  1        1 0.18505026E+00 0.14460538E+04</pdfrwt>
<pdfrwt beam="2">  1       -2 0.32216665E+00 0.14460538E+04</pdfrwt>
<totfact> 0.20613385E-01</totfact>
</mgrwt>
</event>
<event>
12    3  0.2269558E-007  0.5019487E+03  0.7818608E-02  0.1013272E+00
          3   -1    0    0  501    0  0.00000000000E+00  0.00000000000E+00  0.55650116016E+03  0.55650116016E+03  0.00000000000E+00 0. -1.
         -4   -1    0    0    0  501 -0.00000000000E+00 -0.00000000000E+00 -0.66963998537E+03  0.66963998537E+03  0.00000000000E+00 0.  1.
        -24    2    1    2    0    0  0.66285847296E+02 -0.32794277473E+03 -0.35782785070E+03  0.49657861628E+03  0.81297443766E+02 0.  0.
    5000000    2    1    2    0    0 -0.66285847296E+02  0.32794277473E+03  0.24468902549E+03  0.72956252925E+03  0.60037362354E+03 0.  0.
        -24    2    4    4    0    0 -0.10287785449E+03 -0.14504044429E+03  0.12470673361E+02  0.19540022681E+03  0.80032165532E+02 0.  0.
         24    2    4    4    0    0  0.36592007193E+02  0.47298321902E+03  0.23221835213E+03  0.53416230244E+03  0.79698819466E+02 0.  0.
         11    1    5    5    0    0 -0.67833895206E+02 -0.13111067372E+03  0.34675992969E+02  0.15163729947E+03  0.00000000000E+00 0. -1.
        -12    1    5    5    0    0 -0.35043959282E+02 -0.13929770563E+02 -0.22205319607E+02  0.43762927336E+02  0.00000000000E+00 0.  1.
         11    1    3    3    0    0 -0.17069640527E+02 -0.87913286305E+02 -0.80041899509E+02  0.12011171556E+03  0.00000000000E+00 0. -1.
        -12    1    3    3    0    0  0.83355487823E+02 -0.24002948843E+03 -0.27778595119E+03  0.37646690073E+03  0.00000000000E+00 0.  1.
          2    1    6    6  502    0  0.37154264043E+02  0.35549453524E+03  0.21010500801E+03  0.41460935628E+03  0.00000000000E+00 0. -1.
         -1    1    6    6    0  502 -0.56225685033E+00  0.11748868377E+03  0.22113344112E+02  0.11955294616E+03  0.00000000000E+00 0.  1.
<mgrwt>
<rscale>  0 0.50194866E+03</rscale>
<asrwt>0</asrwt>
<pdfrwt beam="1">  1        3 0.85615563E-01 0.50194866E+03</pdfrwt>
<pdfrwt beam="2">  1       -4 0.10302154E+00 0.50194866E+03</pdfrwt>
<totfact> 0.21701108E+00</totfact>
</mgrwt>
</event>
<event>
12    3  0.2269558E-007  0.2673128E+03  0.7818608E-02  0.1102827E+00
          1   -1    0    0  501    0  0.00000000000E+00  0.00000000000E+00  0.43648895282E+03  0.43648895282E+03  0.00000000000E+00 0. -1.
         -2   -1    0    0    0  501 -0.00000000000E+00 -0.00000000000E+00 -0.29840287283E+03  0.29840287283E+03  0.00000000000E+00 0.  1.
        -24    2    1    2    0    0 -0.51405820155E+02  0.64947066240E+02  0.36970885004E+02  0.12084902326E+03  0.79855872206E+02 0.  0.
    5000000    2    1    2    0    0  0.51405820155E+02 -0.64947066240E+02  0.10111519499E+03  0.61404280238E+03  0.59996966652E+03 0.  0.
        -24    2    4    4    0    0  0.10828496950E+03 -0.21860940703E+03  0.26503611309E+03  0.36880432354E+03  0.79099812630E+02 0.  0.
         24    2    4    4    0    0 -0.56879149342E+02  0.15366234079E+03 -0.16392091810E+03  0.24523847884E+03  0.80152925757E+02 0.  0.
         11    1    5    5    0    0  0.39812735233E+02 -0.10786034688E+03  0.70998345439E+02  0.13512835887E+03  0.00000000000E+00 0. -1.
        -12    1    5    5    0    0  0.68472234264E+02 -0.11074906015E+03  0.19403776765E+03  0.23367596467E+03  0.00000000000E+00 0.  1.
         13    1    3    3    0    0 -0.78205529915E+01  0.69276585415E+02  0.32189223817E+02  0.76789012663E+02  0.00000000000E+00 0. -1.
        -14    1    3    3    0    0 -0.43585267164E+02 -0.43295191748E+01  0.47816611870E+01  0.44060010596E+02  0.00000000000E+00 0.  1.
          2    1    6    6  502    0 -0.60692076823E+02  0.71956974776E+02 -0.54997694813E+02  0.10902330413E+03  0.00000000000E+00 0. -1.
         -1    1    6    6    0  502  0.38129274816E+01  0.81705366013E+02 -0.10892322329E+03  0.13621517472E+03  0.00000000000E+00 0.  1.
<mgrwt>
<rscale>  0 0.26731281E+03</rscale>
<asrwt>0</asrwt>
<pdfrwt beam="1">  1        1 0.67152146E-01 0.26731281E+03</pdfrwt>
<pdfrwt beam="2">  1       -2 0.45908134E-01 0.26731281E+03</pdfrwt>
<totfact> 0.21821487E+02</totfact>
</mgrwt>
</event>
<event>
12    3  0.2269558E-007  0.7333325E+03  0.7818608E-02  0.9661868E-01
         -2   -1    0    0    0  501 -0.00000000000E+00  0.00000000000E+00  0.13754077802E+04  0.13754077802E+04  0.00000000000E+00 0.  1.
          1   -1    0    0  501    0  0.00000000000E+00 -0.00000000000E+00 -0.71310323153E+03  0.71310323153E+03  0.00000000000E+00 0. -1.
        -24    2    1    2    0    0  0.31944921712E+03  0.64417877692E+03  0.86768104970E+03  0.11297369920E+04  0.80132192115E+02 0.  0.
    5000000    2    1    2    0    0 -0.31944921712E+03 -0.64417877692E+03 -0.20537650102E+03  0.95877401970E+03  0.60004501059E+03 0.  0.
        -24    2    4    4    0    0 -0.21583946951E+03 -0.24504832448E+03  0.18717552649E+03  0.38389615148E+03  0.75539522631E+02 0.  0.
         24    2    4    4    0    0 -0.10360974761E+03 -0.39913045244E+03 -0.39255202750E+03  0.57487786822E+03  0.79670391041E+02 0.  0.
         11    1    3    3    0    0  0.21200162098E+03  0.39807945790E+03  0.59965995520E+03  0.75033592742E+03  0.00000000000E+00 0. -1.
        -12    1    3    3    0    0  0.10744759614E+03  0.24609931902E+03  0.26802109450E+03  0.37940106462E+03  0.00000000000E+00 0.  1.
         13    1    5    5    0    0 -0.97614746622E+02 -0.16201584403E+03  0.87707139048E+02  0.20849535898E+03  0.00000000000E+00 0. -1.
        -14    1    5    5    0    0 -0.11822472289E+03 -0.83032480442E+02  0.99468387438E+02  0.17540079250E+03  0.00000000000E+00 0.  1.
          4    1    6    6  502    0 -0.84465015373E+02 -0.26843704135E+03 -0.21795510315E+03  0.35594551687E+03  0.00000000000E+00 0. -1.
         -3    1    6    6    0  502 -0.19144732235E+02 -0.13069341110E+03 -0.17459692435E+03  0.21893235136E+03  0.00000000000E+00 0.  1.
<mgrwt>
<rscale>  0 0.73333250E+03</rscale>
<asrwt>0</asrwt>
<pdfrwt beam="1">  1        1 0.10970819E+00 0.73333250E+03</pdfrwt>
<pdfrwt beam="2">  1       -2 0.21160120E+00 0.73333250E+03</pdfrwt>
<totfact> 0.26775776E+00</totfact>
</mgrwt>
</event>
<event>
12    3  0.2269558E-007  0.1003665E+04  0.7818608E-02  0.9304534E-01
          1   -1    0    0  501    0  0.00000000000E+00  0.00000000000E+00  0.11168905614E+04  0.11168905614E+04  0.00000000000E+00 0. -1.
         -2   -1    0    0    0  501 -0.00000000000E+00 -0.00000000000E+00 -0.13998736125E+04  0.13998736125E+04  0.00000000000E+00 0.  1.
        -24    2    1    2    0    0 -0.90225215012E+03  0.42027805505E+03 -0.76582733652E+03  0.12582713478E+04  0.77863272922E+02 0.  0.
    5000000    2    1    2    0    0  0.90225215012E+03 -0.42027805505E+03  0.48284428544E+03  0.12584928262E+04  0.59997750266E+03 0.  0.
        -24    2    4    4    0    0  0.29095804016E+03 -0.22100592097E+03  0.48388640943E+03  0.61162269535E+03  0.80225095822E+02 0.  0.
         24    2    4    4    0    0  0.61129410996E+03 -0.19927213407E+03 -0.10421239926E+01  0.64687013086E+03  0.71063407509E+02 0.  0.
         11    1    5    5    0    0  0.24139380388E+03 -0.16529384804E+03  0.33263588068E+03  0.44298945119E+03  0.00000000000E+00 0. -1.
        -12    1    5    5    0    0  0.49564236279E+02 -0.55712072932E+02  0.15125052875E+03  0.16863324416E+03  0.00000000000E+00 0.  1.
         13    1    3    3    0    0 -0.40091815069E+03  0.21002531405E+03 -0.38906532821E+03  0.59683986606E+03  0.00000000000E+00 0. -1.
        -14    1    3    3    0    0 -0.50133399943E+03  0.21025274099E+03 -0.37676200831E+03  0.66143148170E+03  0.00000000000E+00 0.  1.
          2    1    6    6  502    0  0.46756929564E+03 -0.13616761094E+03  0.25559726919E+02  0.48766378186E+03  0.00000000000E+00 0. -1.
         -1    1    6    6    0  502  0.14372481432E+03 -0.63104523132E+02 -0.26601850911E+02  0.15920634900E+03  0.00000000000E+00 0.  1.
<mgrwt>
<rscale>  0 0.10036649E+04</rscale>
<asrwt>0</asrwt>
<pdfrwt beam="1">  1        1 0.17182932E+00 0.10036649E+04</pdfrwt>
<pdfrwt beam="2">  1       -2 0.21536517E+00 0.10036649E+04</pdfrwt>
<totfact> 0.11394232E+00</totfact>
</mgrwt>
</event>
<event>
12    3  0.2269558E-007  0.1010508E+04  0.7818608E-02  0.9297094E-01
         -2   -1    0    0    0  501 -0.00000000000E+00  0.00000000000E+00  0.61057698001E+03  0.61057698001E+03  0.00000000000E+00 0.  1.
          1   -1    0    0  501    0  0.00000000000E+00 -0.00000000000E+00 -0.17478684353E+04  0.17478684353E+04  0.00000000000E+00 0. -1.
        -24    2    1    2    0    0  0.86764890402E+03 -0.37210199759E+03 -0.51799807387E+03  0.10798525904E+04  0.80530088154E+02 0.  0.
    5000000    2    1    2    0    0 -0.86764890402E+03  0.37210199759E+03 -0.61929338139E+03  0.12785928249E+04  0.60000066871E+03 0.  0.
        -24    2    4    4    0    0 -0.47466382725E+03  0.46131982009E+03 -0.54517447845E+03  0.86125011171E+03  0.80092556811E+02 0.  0.
         24    2    4    4    0    0 -0.39298507677E+03 -0.89217822507E+02 -0.74118902939E+02  0.41734271321E+03  0.79273186395E+02 0.  0.
         11    1    5    5    0    0 -0.84393839582E+02  0.12546540203E+03 -0.13985941566E+03  0.20597219087E+03  0.00000000000E+00 0. -1.
        -12    1    5    5    0    0 -0.39026998767E+03  0.33585441806E+03 -0.40531506279E+03  0.65527792084E+03  0.00000000000E+00 0.  1.
         13    1    3    3    0    0  0.53326044082E+03 -0.23851443182E+03 -0.36342767165E+03  0.68799382588E+03  0.00000000000E+00 0. -1.
        -14    1    3    3    0    0  0.33438846320E+03 -0.13358756576E+03 -0.15457040222E+03  0.39185876447E+03  0.00000000000E+00 0.  1.
          2    1    6    6  502    0 -0.35795702361E+03 -0.10382881325E+03 -0.69030090970E+02  0.37904987360E+03  0.00000000000E+00 0. -1.
         -1    1    6    6    0  502 -0.35028053159E+02  0.14610990744E+02 -0.50888119693E+01  0.38292839616E+02  0.00000000000E+00 0.  1.
<mgrwt>
<rscale>  0 0.10105080E+04</rscale>
<asrwt>0</asrwt>
<pdfrwt beam="1">  1        1 0.26890284E+00 0.10105080E+04</pdfrwt>
<pdfrwt beam="2">  1       -2 0.93934920E-01 0.10105080E+04</pdfrwt>
<totfact> 0.37209674E+00</totfact>
</mgrwt>
</event>
<event>
12    3  0.2269558E-007  0.6418345E+03  0.7818608E-02  0.9822223E-01
          1   -1    0    0  501    0  0.00000000000E+00  0.00000000000E+00  0.80724668450E+03  0.80724668450E+03  0.00000000000E+00 0. -1.
         -2   -1    0    0    0  501 -0.00000000000E+00 -0.00000000000E+00 -0.54834359008E+03  0.54834359008E+03  0.00000000000E+00 0.  1.
        -24    2    1    2    0    0  0.51788701633E+03 -0.92198703898E+02  0.78754750310E+02  0.53755545518E+03  0.77820267375E+02 0.  0.
    5000000    2    1    2    0    0 -0.51788701633E+03  0.92198703898E+02  0.18014834411E+03  0.81803481940E+03  0.60001664742E+03 0.  0.
        -24    2    4    4    0    0 -0.55967853141E+03  0.21091661975E+03  0.25041637408E+03  0.65349419161E+03  0.81365957517E+02 0.  0.
         24    2    4    4    0    0  0.41791515084E+02 -0.11871791585E+03 -0.70268029970E+02  0.16454062780E+03  0.79344488673E+02 0.  0.
         11    1    3    3    0    0  0.20580968503E+03 -0.75533486203E+02  0.32860002651E+02  0.22168155937E+03  0.00000000000E+00 0. -1.
        -12    1    3    3    0    0  0.31207733130E+03 -0.16665217694E+02  0.45894747659E+02  0.31587389581E+03  0.00000000000E+00 0.  1.
         13    1    5    5    0    0 -0.41496254430E+03  0.19185305864E+03  0.17857006136E+03  0.49080421360E+03  0.00000000000E+00 0. -1.
        -14    1    5    5    0    0 -0.14471598712E+03  0.19063561103E+02  0.71846312729E+02  0.16268997800E+03  0.00000000000E+00 0.  1.
          2    1    6    6  502    0  0.51256702711E+02 -0.29655535974E+02 -0.28169434849E+02  0.65576043236E+02  0.00000000000E+00 0. -1.
         -1    1    6    6    0  502 -0.94651876268E+01 -0.89062379877E+02 -0.42098595121E+02  0.98964584561E+02  0.00000000000E+00 0.  1.
<mgrwt>
<rscale>  0 0.64183448E+03</rscale>
<asrwt>0</asrwt>
<pdfrwt beam="1">  1        1 0.12419180E+00 0.64183448E+03</pdfrwt>
<pdfrwt beam="2">  1       -2 0.84360552E-01 0.64183448E+03</pdfrwt>
<totfact> 0.24159004E+01</totfact>
</mgrwt>
</event>
<event>
12    3  0.2269558E-007  0.5118506E+03  0.7818608E-02  0.1010731E+00
          1   -1    0    0  501    0  0.00000000000E+00  0.00000000000E+00  0.97919688307E+03  0.97919688307E+03  0.00000000000E+00 0. -1.
         -2   -1    0    0    0  501 -0.00000000000E+00 -0.00000000000E+00 -0.31863104647E+03  0.31863104647E+03  0.00000000000E+00 0.  1.
        -24    2    1    2    0    0 -0.33199004987E+03  0.16055647271E+03  0.39211365847E+03  0.54419464787E+03  0.79993246388E+02 0.  0.
    5000000    2    1    2    0    0  0.33199004987E+03 -0.16055647271E+03  0.26845217813E+03  0.75363328167E+03  0.59991730860E+03 0.  0.
        -24    2    4    4    0    0  0.69485342243E+02 -0.32527965292E+03  0.26460261145E+03  0.43183154914E+03  0.76347098551E+02 0.  0.
         24    2    4    4    0    0  0.26250470762E+03  0.16472318021E+03  0.38495666829E+01  0.32180173253E+03  0.86597276377E+02 0.  0.
         11    1    3    3    0    0 -0.10329980997E+03  0.24095744067E+02  0.74051135603E+02  0.12936392969E+03  0.00000000000E+00 0. -1.
        -12    1    3    3    0    0 -0.22869023990E+03  0.13646072864E+03  0.31806252287E+03  0.41483071817E+03  0.00000000000E+00 0.  1.
         13    1    5    5    0    0  0.59995476449E+02 -0.10657139699E+03  0.91113627938E+02  0.15250774750E+03  0.00000000000E+00 0. -1.
        -14    1    5    5    0    0  0.94898657943E+01 -0.21870825593E+03  0.17348898351E+03  0.27932380164E+03  0.00000000000E+00 0.  1.
          4    1    6    6  502    0  0.57998713840E+02  0.31034474772E+02  0.36622058979E+02  0.75287214289E+02  0.00000000000E+00 0. -1.
         -3    1    6    6    0  502  0.20450599378E+03  0.13368870543E+03 -0.32772492296E+02  0.24651451824E+03  0.00000000000E+00 0.  1.
<mgrwt>
<rscale>  0 0.51185057E+03</rscale>
<asrwt>0</asrwt>
<pdfrwt beam="1">  1        1 0.15064567E+00 0.51185057E+03</pdfrwt>
<pdfrwt beam="2">  1       -2 0.49020161E-01 0.51185057E+03</pdfrwt>
<totfact> 0.56755236E+01</totfact>
</mgrwt>
</event>
<event>
12    3  0.2269558E-007  0.1034820E+04  0.7818608E-02  0.9271159E-01
          1   -1    0    0  501    0  0.00000000000E+00  0.00000000000E+00  0.11048219749E+04  0.11048219749E+04  0.00000000000E+00 0. -1.
         -2   -1    0    0    0  501 -0.00000000000E+00 -0.00000000000E+00 -0.16144769053E+04  0.16144769053E+04  0.00000000000E+00 0.  1.
        -24    2    1    2    0    0  0.10007350577E+04  0.17672687188E+03 -0.10121796409E+04  0.14366425836E+04  0.82044162689E+02 0.  0.
    5000000    2    1    2    0    0 -0.10007350577E+04 -0.17672687188E+03  0.50252471053E+03  0.12826562966E+04  0.59997753925E+03 0.  0.
        -24    2    4    4    0    0 -0.96308877973E+03 -0.16614263178E+03  0.24010667419E+03  0.10095767476E+04  0.80315767596E+02 0.  0.
         24    2    4    4    0    0 -0.37646277960E+02 -0.10584240102E+02  0.26241803633E+03  0.27307954903E+03  0.64652501284E+02 0.  0.
         11    1    3    3    0    0  0.37459201627E+03  0.10343599281E+03 -0.36430603330E+03  0.53266975619E+03  0.00000000000E+00 0. -1.
        -12    1    3    3    0    0  0.62614304142E+03  0.73290879070E+02 -0.64787360756E+03  0.90397282738E+03  0.00000000000E+00 0.  1.
         13    1    5    5    0    0 -0.10216604748E+03 -0.42604116893E+02  0.21112955230E+02  0.11268881449E+03  0.00000000000E+00 0. -1.
        -14    1    5    5    0    0 -0.86092273226E+03 -0.12353851488E+03  0.21899371896E+03  0.89688793309E+03  0.00000000000E+00 0.  1.
          2    1    6    6  502    0 -0.21090408001E+02 -0.34889259650E+02  0.99493380579E+02  0.10752208391E+03  0.00000000000E+00 0. -1.
         -1    1    6    6    0  502 -0.16555869959E+02  0.24305019547E+02  0.16292465575E+03  0.16555746512E+03  0.00000000000E+00 0.  1.
<mgrwt>
<rscale>  0 0.10348197E+04</rscale>
<asrwt>0</asrwt>
<pdfrwt beam="1">  1        1 0.16997261E+00 0.10348197E+04</pdfrwt>
<pdfrwt beam="2">  1       -2 0.24838106E+00 0.10348197E+04</pdfrwt>
<totfact> 0.72248336E-01</totfact>
</mgrwt>
</event>
<event>
12    3  0.2269558E-007  0.1533092E+04  0.7818608E-02  0.8862741E-01
          1   -1    0    0  501    0  0.00000000000E+00  0.00000000000E+00  0.79638908059E+03  0.79638908059E+03  0.00000000000E+00 0. -1.
         -2   -1    0    0    0  501 -0.00000000000E+00 -0.00000000000E+00 -0.32711375698E+04  0.32711375698E+04  0.00000000000E+00 0.  1.
        -24    2    1    2    0    0 -0.87209818874E+03  0.11992317344E+04 -0.59619131274E+03  0.16001833938E+04  0.80192322596E+02 0.  0.
    5000000    2    1    2    0    0  0.87209818874E+03 -0.11992317344E+04 -0.18785571764E+04  0.24673432566E+04  0.60007805915E+03 0.  0.
        -24    2    4    4    0    0  0.70285292227E+03 -0.12097283891E+04 -0.17372503358E+04  0.22321644615E+04  0.84109738786E+02 0.  0.
         24    2    4    4    0    0  0.16924526647E+03  0.10496654637E+02 -0.14130684063E+03  0.23517879512E+03  0.81162198625E+02 0.  0.
         11    1    5    5    0    0  0.47314218548E+03 -0.83381735650E+03 -0.11289556074E+04  0.14810994819E+04  0.00000000000E+00 0. -1.
        -12    1    5    5    0    0  0.22971073679E+03 -0.37591103257E+03 -0.60829472839E+03  0.75106497961E+03  0.00000000000E+00 0.  1.
         13    1    3    3    0    0 -0.48993050277E+03  0.61355911019E+03 -0.29513735745E+03  0.83880435085E+03  0.00000000000E+00 0. -1.
        -14    1    3    3    0    0 -0.38216768597E+03  0.58567262423E+03 -0.30105395529E+03  0.76137904290E+03  0.00000000000E+00 0.  1.
          4    1    6    6  502    0  0.46484458990E+02 -0.27405086121E+02 -0.17429541962E+02  0.56706548175E+02  0.00000000000E+00 0. -1.
         -3    1    6    6    0  502  0.12276080748E+03  0.37901740758E+02 -0.12387729867E+03  0.17847224695E+03  0.00000000000E+00 0.  1.
<mgrwt>
<rscale>  0 0.15330919E+04</rscale>
<asrwt>0</asrwt>
<pdfrwt beam="1">  1        1 0.12252139E+00 0.15330919E+04</pdfrwt>
<pdfrwt beam="2">  1       -2 0.50325194E+00 0.15330919E+04</pdfrwt>
<totfact> 0.28939842E-02</totfact>
</mgrwt>
</event>
<event>
12    3  0.2269558E-007  0.4351492E+03  0.7818608E-02  0.1032246E+00
          1   -1    0    0  501    0  0.00000000000E+00  0.00000000000E+00  0.22729640339E+04  0.22729640339E+04  0.00000000000E+00 0. -1.
         -2   -1    0    0    0  501 -0.00000000000E+00 -0.00000000000E+00 -0.10218070962E+03  0.10218070962E+03  0.00000000000E+00 0.  1.
        -24    2    1    2    0    0  0.31246132448E+02  0.26384377414E+03  0.94424321153E+03  0.98396257428E+03  0.77441895039E+02 0.  0.
    5000000    2    1    2    0    0 -0.31246132448E+02 -0.26384377414E+03  0.12265401127E+04  0.13911821692E+04  0.60033101027E+03 0.  0.
        -24    2    4    4    0    0 -0.17678633858E+03 -0.36932709404E+03  0.10391524573E+04  0.11195546898E+04  0.76869773892E+02 0.  0.
         24    2    4    4    0    0  0.14554020613E+03  0.10548331990E+03  0.18738765544E+03  0.27162747939E+03  0.79741280235E+02 0.  0.
         11    1    5    5    0    0 -0.40294049853E+02 -0.16704552116E+03  0.39664254880E+03  0.43226511322E+03  0.00000000000E+00 0. -1.
        -12    1    5    5    0    0 -0.13649228872E+03 -0.20228157288E+03  0.64250990846E+03  0.68728957658E+03  0.00000000000E+00 0.  1.
         11    1    3    3    0    0 -0.11489414481E+02  0.18147165626E+03  0.68028027858E+03  0.70416278381E+03  0.00000000000E+00 0. -1.
        -12    1    3    3    0    0  0.42735546929E+02  0.82372117879E+02  0.26396293295E+03  0.27979979047E+03  0.00000000000E+00 0.  1.
          4    1    6    6  502    0  0.59772263716E+02  0.46105516345E+02  0.26743529317E+02  0.80085320174E+02  0.00000000000E+00 0. -1.
         -3    1    6    6    0  502  0.85767942412E+02  0.59377803558E+02  0.16064412612E+03  0.19154215922E+03  0.00000000000E+00 0.  1.
<mgrwt>
<rscale>  0 0.43514924E+03</rscale>
<asrwt>0</asrwt>
<pdfrwt beam="1">  1        1 0.34968674E+00 0.43514924E+03</pdfrwt>
<pdfrwt beam="2">  1       -2 0.15720111E-01 0.43514924E+03</pdfrwt>
<totfact> 0.60078055E+01</totfact>
</mgrwt>
</event>
<event>
12    3  0.2269558E-007  0.5657524E+03  0.7818608E-02  0.9979122E-01
         -2   -1    0    0    0  501 -0.00000000000E+00  0.00000000000E+00  0.54786713016E+03  0.54786713016E+03  0.00000000000E+00 0.  1.
          1   -1    0    0  501    0  0.00000000000E+00 -0.00000000000E+00 -0.59080287763E+03  0.59080287763E+03  0.00000000000E+00 0. -1.
        -24    2    1    2    0    0 -0.30416481337E+03  0.26806206089E+03  0.24429416061E+01  0.41303304739E+03  0.78846864769E+02 0.  0.
    5000000    2    1    2    0    0  0.30416481337E+03 -0.26806206089E+03 -0.45378689074E+02  0.72563696041E+03  0.60009688443E+03 0.  0.
        -24    2    4    4    0    0  0.35349985384E+03 -0.41362066060E+03 -0.56377019638E+02  0.55230336989E+03  0.76265631232E+02 0.  0.
         24    2    4    4    0    0 -0.49335040467E+02  0.14555859970E+03  0.10998330563E+02  0.17333359052E+03  0.79387141044E+02 0.  0.
         11    1    3    3    0    0 -0.20494463538E+03  0.12986066565E+03 -0.59457621738E+01  0.24269620546E+03  0.00000000000E+00 0. -1.
        -12    1    3    3    0    0 -0.99220177994E+02  0.13820139524E+03  0.83887037799E+01  0.17033684193E+03  0.00000000000E+00 0.  1.
         13    1    5    5    0    0  0.71789996179E+02 -0.13615219062E+03 -0.20259195332E+02  0.15524708550E+03  0.00000000000E+00 0. -1.
        -14    1    5    5    0    0  0.28170985766E+03 -0.27746846997E+03 -0.36117824305E+02  0.39705628438E+03  0.00000000000E+00 0.  1.
          4    1    6    6  502    0 -0.21248814123E+02  0.72162786328E-01  0.13436724406E+02  0.25140860603E+02  0.00000000000E+00 0. -1.
         -3    1    6    6    0  502 -0.28086226345E+02  0.14548643691E+03 -0.24383938422E+01  0.14819272992E+03  0.00000000000E+00 0.  1.
<mgrwt>
<rscale>  0 0.56575241E+03</rscale>
<asrwt>0</asrwt>
<pdfrwt beam="1">  1        1 0.90892750E-01 0.56575241E+03</pdfrwt>
<pdfrwt beam="2">  1       -2 0.84287251E-01 0.56575241E+03</pdfrwt>
<totfact> 0.38967227E+01</totfact>
</mgrwt>
</event>
<event>
12    3  0.2269558E-007  0.5026644E+03  0.7818608E-02  0.1013086E+00
         -2   -1    0    0    0  501 -0.00000000000E+00  0.00000000000E+00  0.16139972787E+03  0.16139972787E+03  0.00000000000E+00 0.  1.
          1   -1    0    0  501    0  0.00000000000E+00 -0.00000000000E+00 -0.20908243502E+04  0.20908243502E+04  0.00000000000E+00 0. -1.
        -24    2    1    2    0    0  0.11811391234E+03  0.34995307479E+03 -0.11027998712E+04  0.11657635144E+04  0.80118442247E+02 0.  0.
    5000000    2    1    2    0    0 -0.11811391234E+03 -0.34995307479E+03 -0.82662475114E+03  0.10864605637E+04  0.60055809572E+03 0.  0.
        -24    2    4    4    0    0 -0.75122525301E+02 -0.48340248714E+03 -0.77012846069E+03  0.91571925276E+03  0.78246696601E+02 0.  0.
         24    2    4    4    0    0 -0.42991387038E+02  0.13344941235E+03 -0.56496290457E+02  0.17074131090E+03  0.79396217774E+02 0.  0.
         11    1    3    3    0    0  0.51034676685E+02  0.96300648655E+02 -0.43046834428E+03  0.44405106529E+03  0.00000000000E+00 0. -1.
        -12    1    3    3    0    0  0.67079235654E+02  0.25365242613E+03 -0.67233152689E+03  0.72171244910E+03  0.00000000000E+00 0.  1.
         13    1    5    5    0    0 -0.72433167420E+01 -0.19391742257E+03 -0.24841601971E+03  0.31522523893E+03  0.00000000000E+00 0. -1.
        -14    1    5    5    0    0 -0.67879208559E+02 -0.28948506456E+03 -0.52171244098E+03  0.60049401382E+03  0.00000000000E+00 0.  1.
          2    1    6    6  502    0 -0.49470083142E+01  0.13749827018E+01  0.14970625397E+02  0.15826657685E+02  0.00000000000E+00 0. -1.
         -3    1    6    6    0  502 -0.38044378724E+02  0.13207442965E+03 -0.71466915854E+02  0.15491465322E+03  0.00000000000E+00 0.  1.
<mgrwt>
<rscale>  0 0.50266437E+03</rscale>
<asrwt>0</asrwt>
<pdfrwt beam="1">  1        1 0.32166529E+00 0.50266437E+03</pdfrwt>
<pdfrwt beam="2">  1       -2 0.24830727E-01 0.50266437E+03</pdfrwt>
<totfact> 0.35443674E+01</totfact>
</mgrwt>
</event>
<event>
12    3  0.2269558E-007  0.5933488E+03  0.7818608E-02  0.9919302E-01
          1   -1    0    0  501    0  0.00000000000E+00  0.00000000000E+00  0.74796062552E+03  0.74796062552E+03  0.00000000000E+00 0. -1.
         -2   -1    0    0    0  501 -0.00000000000E+00 -0.00000000000E+00 -0.14593634170E+04  0.14593634170E+04  0.00000000000E+00 0.  1.
        -24    2    1    2    0    0 -0.46049968991E+03  0.24714233447E+03  0.52004990078E+03  0.74115291870E+03  0.75607219839E+02 0.  0.
    5000000    2    1    2    0    0  0.46049968991E+03 -0.24714233447E+03 -0.12314526922E+04  0.14661711238E+04  0.60003560986E+03 0.  0.
        -24    2    4    4    0    0  0.47326110151E+03 -0.67049316755E+02 -0.11573136145E+04  0.12547305967E+04  0.80637378577E+02 0.  0.
         24    2    4    4    0    0 -0.12761411599E+02 -0.18009301772E+03 -0.74139077671E+02  0.21144052706E+03  0.81327393832E+02 0.  0.
         13    1    3    3    0    0 -0.73363000735E+02  0.27059644285E+02  0.11570647851E+03  0.13965079089E+03  0.00000000000E+00 0. -1.
        -14    1    3    3    0    0 -0.38713668918E+03  0.22008269019E+03  0.40434342227E+03  0.60150212781E+03  0.00000000000E+00 0.  1.
         13    1    5    5    0    0  0.84209419978E+02 -0.38540629637E+01 -0.29106114426E+03  0.30302255677E+03  0.00000000000E+00 0. -1.
        -14    1    5    5    0    0  0.38905168153E+03 -0.63195253791E+02 -0.86625247029E+03  0.95170803994E+03  0.00000000000E+00 0.  1.
          2    1    6    6  502    0 -0.23721760606E+02 -0.66339316063E+02 -0.66539120714E+02  0.96907591897E+02  0.00000000000E+00 0. -1.
         -1    1    6    6    0  502  0.10960349006E+02 -0.11375370166E+03 -0.75999569571E+01  0.11453293516E+03  0.00000000000E+00 0.  1.
<mgrwt>
<rscale>  0 0.59334884E+03</rscale>
<asrwt>0</asrwt>
<pdfrwt beam="1">  1        1 0.11507087E+00 0.59334884E+03</pdfrwt>
<pdfrwt beam="2">  1       -2 0.22451745E+00 0.59334884E+03</pdfrwt>
<totfact> 0.21158074E+00</totfact>
</mgrwt>
</event>
<event>
12    3  0.2269558E-007  0.1195479E+04  0.7818608E-02  0.9116823E-01
         -2   -1    0    0    0  501 -0.00000000000E+00  0.00000000000E+00  0.70238364639E+03  0.70238364639E+03  0.00000000000E+00 0.  1.
          1   -1    0    0  501    0  0.00000000000E+00 -0.00000000000E+00 -0.29014406972E+04  0.29014406972E+04  0.00000000000E+00 0. -1.
        -24    2    1    2    0    0 -0.61339733534E+02 -0.11292626811E+04 -0.20128012972E+04  0.23101476806E+04  0.80102921030E+02 0.  0.
    5000000    2    1    2    0    0  0.61339733534E+02  0.11292626811E+04 -0.18625575354E+03  0.12936766630E+04  0.59992610937E+03 0.  0.
        -24    2    4    4    0    0 -0.23626764505E+02  0.11442464164E+04 -0.10995630453E+03  0.11526414169E+04  0.81447906551E+02 0.  0.
         24    2    4    4    0    0  0.84966498039E+02 -0.14983735269E+02 -0.76299449009E+02  0.14103524613E+03  0.81397276491E+02 0.  0.
         11    1    3    3    0    0 -0.62829774511E+02 -0.44197265833E+03 -0.78169659074E+03  0.90018718678E+03  0.00000000000E+00 0. -1.
        -12    1    3    3    0    0  0.14900409774E+01 -0.68729002282E+03 -0.12311047065E+04  0.14099604938E+04  0.00000000000E+00 0.  1.
         13    1    5    5    0    0 -0.20641581402E+02  0.69088250563E+03 -0.26839058794E+02  0.69171167877E+03  0.00000000000E+00 0. -1.
        -14    1    5    5    0    0 -0.29851831035E+01  0.45336391078E+03 -0.83117245734E+02  0.46092973809E+03  0.00000000000E+00 0.  1.
          4    1    6    6  502    0 -0.10709291906E+02 -0.13193542360E+02 -0.30574602215E+02  0.34979491045E+02  0.00000000000E+00 0. -1.
         -3    1    6    6    0  502  0.95675789945E+02 -0.17901929086E+01 -0.45724846794E+02  0.10605575508E+03  0.00000000000E+00 0.  1.
<mgrwt>
<rscale>  0 0.11954789E+04</rscale>
<asrwt>0</asrwt>
<pdfrwt beam="1">  1        1 0.44637549E+00 0.11954789E+04</pdfrwt>
<pdfrwt beam="2">  1       -2 0.10805902E+00 0.11954789E+04</pdfrwt>
<totfact> 0.42036986E-01</totfact>
</mgrwt>
</event>
<event>
12    3  0.2269558E-007  0.6325987E+03  0.7818608E-02  0.9839991E-01
         -2   -1    0    0    0  501 -0.00000000000E+00  0.00000000000E+00  0.30117461062E+03  0.30117461062E+03  0.00000000000E+00 0.  1.
          1   -1    0    0  501    0  0.00000000000E+00 -0.00000000000E+00 -0.17708455313E+04  0.17708455313E+04  0.00000000000E+00 0. -1.
        -24    2    1    2    0    0  0.24066981616E+03  0.55353136577E+03 -0.63877536218E+03  0.88269187546E+03  0.82413896687E+02 0.  0.
    5000000    2    1    2    0    0 -0.24066981616E+03 -0.55353136577E+03 -0.83089555854E+03  0.11893282665E+04  0.59982944494E+03 0.  0.
        -24    2    4    4    0    0 -0.27052346992E+03 -0.46802039695E+03 -0.89709076468E+03  0.10502192820E+04  0.77218264796E+02 0.  0.
         24    2    4    4    0    0  0.29853653759E+02 -0.85510968816E+02  0.66195206137E+02  0.13910898454E+03  0.82256536719E+02 0.  0.
         11    1    5    5    0    0 -0.15459699138E+03 -0.19258014675E+03 -0.42234832925E+03  0.48924988900E+03  0.00000000000E+00 0. -1.
        -12    1    5    5    0    0 -0.11592647854E+03 -0.27544025020E+03 -0.47474243543E+03  0.56096939298E+03  0.00000000000E+00 0.  1.
         13    1    3    3    0    0  0.42031727536E+02  0.67795078598E+02 -0.12497382924E+03  0.14826090785E+03  0.00000000000E+00 0. -1.
        -14    1    3    3    0    0  0.19863808862E+03  0.48573628717E+03 -0.51380153294E+03  0.73443096761E+03  0.00000000000E+00 0.  1.
          4    1    6    6  502    0 -0.22073614203E+02 -0.40522093558E+02  0.50935614982E+02  0.68729334232E+02  0.00000000000E+00 0. -1.
         -3    1    6    6    0  502  0.51927267963E+02 -0.44988875258E+02  0.15259591155E+02  0.70379650306E+02  0.00000000000E+00 0.  1.
<mgrwt>
<rscale>  0 0.63259870E+03</rscale>
<asrwt>0</asrwt>
<pdfrwt beam="1">  1        1 0.27243777E+00 0.63259870E+03</pdfrwt>
<pdfrwt beam="2">  1       -2 0.46334556E-01 0.63259870E+03</pdfrwt>
<totfact> 0.17405505E+01</totfact>
</mgrwt>
</event>
<event>
12    3  0.2269558E-007  0.8284430E+03  0.7818608E-02  0.9519736E-01
          1   -1    0    0  501    0  0.00000000000E+00  0.00000000000E+00  0.51248890796E+03  0.51248890796E+03  0.00000000000E+00 0. -1.
         -2   -1    0    0    0  501 -0.00000000000E+00 -0.00000000000E+00 -0.13917157400E+04  0.13917157400E+04  0.00000000000E+00 0.  1.
        -24    2    1    2    0    0  0.70778053908E+03 -0.17069388843E+03 -0.50306171986E+03  0.88846140471E+03  0.78758355915E+02 0.  0.
    5000000    2    1    2    0    0 -0.70778053908E+03  0.17069388843E+03 -0.37616511221E+03  0.10157432433E+04  0.60012036259E+03 0.  0.
        -24    2    4    4    0    0 -0.61874226356E+03  0.35734263683E+03 -0.26955855292E+03  0.76806835532E+03  0.82045330025E+02 0.  0.
         24    2    4    4    0    0 -0.89038275520E+02 -0.18664874840E+03 -0.10660655929E+03  0.24767488797E+03  0.84925389965E+02 0.  0.
         11    1    3    3    0    0  0.40391325476E+03 -0.98321863921E+02 -0.23953469104E+03  0.47978117356E+03  0.00000000000E+00 0. -1.
        -12    1    3    3    0    0  0.30386728432E+03 -0.72372024510E+02 -0.26352702882E+03  0.40868023115E+03  0.00000000000E+00 0.  1.
         13    1    5    5    0    0 -0.33691367732E+03  0.15159739147E+03 -0.12023905233E+03  0.38852287548E+03  0.00000000000E+00 0. -1.
        -14    1    5    5    0    0 -0.28182858623E+03  0.20574524536E+03 -0.14931950059E+03  0.37954547983E+03  0.00000000000E+00 0.  1.
          2    1    6    6  502    0 -0.33440611273E+02 -0.11482263720E+03 -0.10123240532E+03  0.15668603124E+03  0.00000000000E+00 0. -1.
         -1    1    6    6    0  502 -0.55597664247E+02 -0.71826111196E+02 -0.53741539699E+01  0.90988856736E+02  0.00000000000E+00 0.  1.
<mgrwt>
<rscale>  0 0.82844300E+03</rscale>
<asrwt>0</asrwt>
<pdfrwt beam="1">  1        1 0.78844448E-01 0.82844300E+03</pdfrwt>
<pdfrwt beam="2">  1       -2 0.21411011E+00 0.82844300E+03</pdfrwt>
<totfact> 0.41113736E+00</totfact>
</mgrwt>
</event>
<event>
12    3  0.2269558E-007  0.6535107E+03  0.7818608E-02  0.9800214E-01
          1   -1    0    0  501    0  0.00000000000E+00  0.00000000000E+00  0.12947718788E+04  0.12947718788E+04  0.00000000000E+00 0. -1.
         -2   -1    0    0    0  501 -0.00000000000E+00 -0.00000000000E+00 -0.34709951827E+03  0.34709951827E+03  0.00000000000E+00 0.  1.
        -24    2    1    2    0    0  0.46416899424E+03  0.26097045734E+03  0.41106849997E+03  0.67699379288E+03  0.76058195591E+02 0.  0.
    5000000    2    1    2    0    0 -0.46416899424E+03 -0.26097045734E+03  0.53660386056E+03  0.96487760420E+03  0.59957205830E+03 0.  0.
        -24    2    4    4    0    0 -0.51996699526E+03 -0.37629767022E+03  0.42784286601E+03  0.77543063556E+03  0.79230926989E+02 0.  0.
         24    2    4    4    0    0  0.55798001026E+02  0.11532721288E+03  0.10876099455E+03  0.18944696864E+03  0.87449511391E+02 0.  0.
         13    1    3    3    0    0  0.28534122648E+03  0.16713516806E+03  0.30012673496E+03  0.44657567888E+03  0.00000000000E+00 0. -1.
        -14    1    3    3    0    0  0.17882776776E+03  0.93835289273E+02  0.11094176501E+03  0.23041811400E+03  0.00000000000E+00 0.  1.
         13    1    5    5    0    0 -0.41473155534E+03 -0.27081479764E+03  0.29989502688E+03  0.57903363008E+03  0.00000000000E+00 0. -1.
        -14    1    5    5    0    0 -0.10523543992E+03 -0.10548287257E+03  0.12794783913E+03  0.19639700548E+03  0.00000000000E+00 0.  1.
          4    1    6    6  502    0  0.49863184551E+02  0.80205519240E+02  0.23908085902E+02  0.97421040138E+02  0.00000000000E+00 0. -1.
         -3    1    6    6    0  502  0.59348164747E+01  0.35121693639E+02  0.84852908647E+02  0.92025928501E+02  0.00000000000E+00 0.  1.
<mgrwt>
<rscale>  0 0.65351065E+03</rscale>
<asrwt>0</asrwt>
<pdfrwt beam="1">  1        1 0.19919567E+00 0.65351065E+03</pdfrwt>
<pdfrwt beam="2">  1       -2 0.53399926E-01 0.65351065E+03</pdfrwt>
<totfact> 0.27470266E+01</totfact>
</mgrwt>
</event>
<event>
12    3  0.2269558E-007  0.8232462E+03  0.7818608E-02  0.9526966E-01
         -2   -1    0    0    0  501 -0.00000000000E+00  0.00000000000E+00  0.31860335192E+03  0.31860335192E+03  0.00000000000E+00 0.  1.
          1   -1    0    0  501    0  0.00000000000E+00 -0.00000000000E+00 -0.28828255580E+04  0.28828255580E+04  0.00000000000E+00 0. -1.
        -24    2    1    2    0    0  0.79517972688E+03  0.18229209536E+03 -0.16257891273E+04  0.18207845483E+04  0.80776720577E+02 0.  0.
    5000000    2    1    2    0    0 -0.79517972688E+03 -0.18229209536E+03 -0.93843307877E+03  0.13806443617E+04  0.59998416979E+03 0.  0.
        -24    2    4    4    0    0 -0.45627976417E+03 -0.74594368782E+02 -0.11874827890E+03  0.48370793761E+03  0.78209156269E+02 0.  0.
         24    2    4    4    0    0 -0.33889996271E+03 -0.10769772658E+03 -0.81968479987E+03  0.89693642405E+03  0.78484346388E+02 0.  0.
         11    1    3    3    0    0  0.32901876036E+03  0.11279910580E+03 -0.72682510325E+03  0.80576157370E+03  0.00000000000E+00 0. -1.
        -12    1    3    3    0    0  0.46616096652E+03  0.69492989562E+02 -0.89896402408E+03  0.10150229746E+04  0.00000000000E+00 0.  1.
         13    1    5    5    0    0 -0.20947818762E+03 -0.58810083685E+01 -0.25634895730E+02  0.21112282025E+03  0.00000000000E+00 0. -1.
        -14    1    5    5    0    0 -0.24680157654E+03 -0.68713360413E+02 -0.93113383173E+02  0.27258511737E+03  0.00000000000E+00 0.  1.
          4    1    6    6  502    0 -0.19811128306E+03 -0.96544360125E+02 -0.44663348900E+03  0.49804655148E+03  0.00000000000E+00 0. -1.
         -1    1    6    6    0  502 -0.14078867965E+03 -0.11153366455E+02 -0.37305131087E+03  0.39888987257E+03  0.00000000000E+00 0.  1.
<mgrwt>
<rscale>  0 0.82324615E+03</rscale>
<asrwt>0</asrwt>
<pdfrwt beam="1">  1        1 0.44351161E+00 0.82324615E+03</pdfrwt>
<pdfrwt beam="2">  1       -2 0.49015902E-01 0.82324615E+03</pdfrwt>
<totfact> 0.26458033E+00</totfact>
</mgrwt>
</event>
<event>
12    3  0.2269558E-007  0.7230484E+03  0.7818608E-02  0.9678608E-01
          1   -1    0    0  501    0  0.00000000000E+00  0.00000000000E+00  0.11079702400E+04  0.11079702400E+04  0.00000000000E+00 0. -1.
         -2   -1    0    0    0  501 -0.00000000000E+00 -0.00000000000E+00 -0.49478072587E+03  0.49478072587E+03  0.00000000000E+00 0.  1.
        -24    2    1    2    0    0  0.46251754688E+03  0.39784548470E+03  0.34775835328E+03  0.70686044941E+03  0.80698895829E+02 0.  0.
    5000000    2    1    2    0    0 -0.46251754688E+03 -0.39784548470E+03  0.26543116088E+03  0.89589051649E+03  0.59996883711E+03 0.  0.
        -24    2    4    4    0    0  0.89048869698E+02  0.55091957824E+02  0.11101006189E+02  0.13397482862E+03  0.82832344849E+02 0.  0.
         24    2    4    4    0    0 -0.55156641658E+03 -0.45293744252E+03  0.25433015469E+03  0.76191568788E+03  0.80335851949E+02 0.  0.
         11    1    5    5    0    0 -0.74191388848E+01  0.75982587172E+01  0.23449986865E+02  0.25742553123E+02  0.00000000000E+00 0. -1.
        -12    1    5    5    0    0  0.96468008583E+02  0.47493699107E+02 -0.12348980676E+02  0.10823227549E+03  0.00000000000E+00 0.  1.
         13    1    3    3    0    0  0.17031399706E+03  0.18379878226E+03  0.17443454949E+03  0.30531338328E+03  0.00000000000E+00 0. -1.
        -14    1    3    3    0    0  0.29220354982E+03  0.21404670244E+03  0.17332380379E+03  0.40154706613E+03  0.00000000000E+00 0.  1.
          2    1    6    6  502    0 -0.10326197604E+03 -0.10878064486E+03  0.82599726997E+02  0.17122785781E+03  0.00000000000E+00 0. -1.
         -1    1    6    6    0  502 -0.44830444055E+03 -0.34415679766E+03  0.17173042769E+03  0.59068783006E+03  0.00000000000E+00 0.  1.
<mgrwt>
<rscale>  0 0.72304842E+03</rscale>
<asrwt>0</asrwt>
<pdfrwt beam="1">  1        1 0.17045696E+00 0.72304842E+03</pdfrwt>
<pdfrwt beam="2">  1       -2 0.76120112E-01 0.72304842E+03</pdfrwt>
<totfact> 0.17420498E+01</totfact>
</mgrwt>
</event>
<event>
12    3  0.2269558E-007  0.7356532E+03  0.7818608E-02  0.9658131E-01
          3   -1    0    0  501    0  0.00000000000E+00  0.00000000000E+00  0.39763554499E+03  0.39763554499E+03  0.00000000000E+00 0. -1.
         -4   -1    0    0    0  501 -0.00000000000E+00 -0.00000000000E+00 -0.17589486250E+04  0.17589486250E+04  0.00000000000E+00 0.  1.
        -24    2    1    2    0    0 -0.57543338879E+03 -0.25722048043E+03 -0.12945924292E+03  0.64835679284E+03  0.79503929154E+02 0.  0.
    5000000    2    1    2    0    0  0.57543338879E+03  0.25722048043E+03 -0.12318538371E+04  0.15082273771E+04  0.59999998727E+03 0.  0.
        -24    2    4    4    0    0  0.57800305757E+03 -0.43369561702E+01 -0.71023053648E+03  0.91919466617E+03  0.79906668188E+02 0.  0.
         24    2    4    4    0    0 -0.25696687779E+01  0.26155743660E+03 -0.52162330062E+03  0.58903271098E+03  0.80310466429E+02 0.  0.
         11    1    3    3    0    0 -0.30208263863E+03 -0.15514305482E+03 -0.33718016811E+02  0.34126264471E+03  0.00000000000E+00 0. -1.
        -12    1    3    3    0    0 -0.27335075017E+03 -0.10207742561E+03 -0.95741226110E+02  0.30709414813E+03  0.00000000000E+00 0.  1.
         13    1    5    5    0    0  0.32575543686E+03  0.53800273986E+01 -0.46056838676E+03  0.56415316026E+03  0.00000000000E+00 0. -1.
        -14    1    5    5    0    0  0.25224762071E+03 -0.97169835688E+01 -0.24966214972E+03  0.35504150592E+03  0.00000000000E+00 0.  1.
          4    1    6    6  502    0 -0.54553613004E+01  0.17582657724E+03 -0.42419660748E+03  0.45922489918E+03  0.00000000000E+00 0. -1.
         -3    1    6    6    0  502  0.28856925225E+01  0.85730859362E+02 -0.97426693139E+02  0.12980781180E+03  0.00000000000E+00 0.  1.
<mgrwt>
<rscale>  0 0.73565317E+03</rscale>
<asrwt>0</asrwt>
<pdfrwt beam="1">  1        3 0.61174699E-01 0.73565317E+03</pdfrwt>
<pdfrwt beam="2">  1       -4 0.27060748E+00 0.73565317E+03</pdfrwt>
<totfact> 0.28243827E-01</totfact>
</mgrwt>
</event>
<event>
12    3  0.2269558E-007  0.5269510E+03  0.7818608E-02  0.1006974E+00
         -4   -1    0    0    0  501 -0.00000000000E+00  0.00000000000E+00  0.79841266021E+03  0.79841266021E+03  0.00000000000E+00 0.  1.
          1   -1    0    0  501    0  0.00000000000E+00 -0.00000000000E+00 -0.48520682106E+03  0.48520682106E+03  0.00000000000E+00 0. -1.
        -24    2    1    2    0    0  0.11923033687E+02  0.38849520412E+03  0.39976477089E+03  0.56345946571E+03  0.81265091480E+02 0.  0.
    5000000    2    1    2    0    0 -0.11923033687E+02 -0.38849520412E+03 -0.86558931741E+02  0.72016001556E+03  0.60005609487E+03 0.  0.
        -24    2    4    4    0    0  0.23582161678E+03 -0.73667976729E+02 -0.16060969882E+03  0.30499543654E+03  0.78663430002E+02 0.  0.
         24    2    4    4    0    0 -0.24774465047E+03 -0.31482722739E+03  0.74050767084E+02  0.41516457902E+03  0.79903170305E+02 0.  0.
         11    1    5    5    0    0  0.28607230509E+02 -0.39875164308E+02 -0.25235267947E+02  0.55183522127E+02  0.00000000000E+00 0. -1.
        -12    1    5    5    0    0  0.20721438627E+03 -0.33792812421E+02 -0.13537443088E+03  0.24981191442E+03  0.00000000000E+00 0.  1.
         13    1    3    3    0    0  0.10149251794E+02  0.20001755822E+03  0.26304292141E+03  0.33060793913E+03  0.00000000000E+00 0. -1.
        -14    1    3    3    0    0  0.17737818925E+01  0.18847764590E+03  0.13672184948E+03  0.23285152658E+03  0.00000000000E+00 0.  1.
          2    1    6    6  502    0 -0.57945930975E+02 -0.12449746210E+03  0.46423277410E+02  0.14495678553E+03  0.00000000000E+00 0. -1.
         -3    1    6    6    0  502 -0.18979871949E+03 -0.19032976530E+03  0.27627489673E+02  0.27020779349E+03  0.00000000000E+00 0.  1.
<mgrwt>
<rscale>  0 0.52695095E+03</rscale>
<asrwt>0</asrwt>
<pdfrwt beam="1">  1        1 0.74647203E-01 0.52695095E+03</pdfrwt>
<pdfrwt beam="2">  1       -4 0.12283272E+00 0.52695095E+03</pdfrwt>
<totfact> 0.11209567E+01</totfact>
</mgrwt>
</event>
<event>
12    3  0.2269558E-007  0.8062242E+03  0.7818608E-02  0.9551051E-01
         -2   -1    0    0    0  501 -0.00000000000E+00  0.00000000000E+00  0.26443125970E+03  0.26443125970E+03  0.00000000000E+00 0.  1.
          1   -1    0    0  501    0  0.00000000000E+00 -0.00000000000E+00 -0.29600623263E+04  0.29600623263E+04  0.00000000000E+00 0. -1.
        -24    2    1    2    0    0  0.56076535946E+03  0.53933275355E+03 -0.13139678445E+04  0.15290975712E+04  0.79311276127E+02 0.  0.
    5000000    2    1    2    0    0 -0.56076535946E+03 -0.53933275355E+03 -0.13816632221E+04  0.16953960148E+04  0.60003064936E+03 0.  0.
        -24    2    4    4    0    0 -0.25134404162E+03 -0.43205128215E+03 -0.12227725387E+04  0.13233414524E+04  0.78852904006E+02 0.  0.
         24    2    4    4    0    0 -0.30942131785E+03 -0.10728147141E+03 -0.15889068341E+03  0.37205456242E+03  0.76990142867E+02 0.  0.
         11    1    3    3    0    0  0.89136459100E+02  0.66200082942E+02 -0.14397634853E+03  0.18181569860E+03  0.00000000000E+00 0. -1.
        -12    1    3    3    0    0  0.47162890036E+03  0.47313267061E+03 -0.11699914960E+04  0.13472818726E+04  0.00000000000E+00 0.  1.
         13    1    5    5    0    0 -0.50544773772E+02 -0.77007187810E+02 -0.31388899591E+03  0.32712563777E+03  0.00000000000E+00 0. -1.
        -14    1    5    5    0    0 -0.20079926784E+03 -0.35504409434E+03 -0.90888354278E+03  0.99621581459E+03  0.00000000000E+00 0.  1.
          2    1    6    6  502    0 -0.19307146159E+03 -0.34513707370E+02 -0.68595483247E+02  0.20778143709E+03  0.00000000000E+00 0. -1.
         -1    1    6    6    0  502 -0.11634985626E+03 -0.72767764037E+02 -0.90295200165E+02  0.16427312533E+03  0.00000000000E+00 0.  1.
<mgrwt>
<rscale>  0 0.80622417E+03</rscale>
<asrwt>0</asrwt>
<pdfrwt beam="1">  1        1 0.45539422E+00 0.80622417E+03</pdfrwt>
<pdfrwt beam="2">  1       -2 0.40681731E-01 0.80622417E+03</pdfrwt>
<totfact> 0.33903016E+00</totfact>
</mgrwt>
</event>
<event>
12    3  0.2269558E-007  0.7798595E+03  0.7818608E-02  0.9589636E-01
         -2   -1    0    0    0  501 -0.00000000000E+00  0.00000000000E+00  0.66911221435E+03  0.66911221435E+03  0.00000000000E+00 0.  1.
          1   -1    0    0  501    0  0.00000000000E+00 -0.00000000000E+00 -0.13050125547E+04  0.13050125547E+04  0.00000000000E+00 0. -1.
        -24    2    1    2    0    0  0.64846423262E+03  0.15972220678E+03 -0.81683096779E+03  0.10580472025E+04  0.78955736847E+02 0.  0.
    5000000    2    1    2    0    0 -0.64846423262E+03 -0.15972220678E+03  0.18093062747E+03  0.91607756656E+03  0.60037086178E+03 0.  0.
        -24    2    4    4    0    0  0.56219273413E+02 -0.15832949229E+03  0.24974156584E+02  0.18992413666E+03  0.84962546784E+02 0.  0.
         24    2    4    4    0    0 -0.70468350603E+03 -0.13927144871E+01  0.15595647089E+03  0.72615342990E+03  0.79972492910E+02 0.  0.
         11    1    3    3    0    0  0.17468920950E+03  0.43921875867E+02 -0.27811615782E+03  0.33135184976E+03  0.00000000000E+00 0. -1.
        -12    1    3    3    0    0  0.47377502312E+03  0.11580033091E+03 -0.53871480997E+03  0.72669535271E+03  0.00000000000E+00 0.  1.
         13    1    5    5    0    0  0.23643029469E+02 -0.15219571035E+03  0.12579701789E+02  0.15453406093E+03  0.00000000000E+00 0. -1.
        -14    1    5    5    0    0  0.32576243944E+02 -0.61337819455E+01  0.12394454795E+02  0.35390075729E+02  0.00000000000E+00 0.  1.
          2    1    6    6  502    0 -0.45660560019E+03 -0.31858678528E+01  0.61699077055E+02  0.46076631820E+03  0.00000000000E+00 0. -1.
         -1    1    6    6    0  502 -0.24807790584E+03  0.17931533657E+01  0.94257393834E+02  0.26538711170E+03  0.00000000000E+00 0.  1.
<mgrwt>
<rscale>  0 0.77985946E+03</rscale>
<asrwt>0</asrwt>
<pdfrwt beam="1">  1        1 0.20077116E+00 0.77985946E+03</pdfrwt>
<pdfrwt beam="2">  1       -2 0.10294034E+00 0.77985946E+03</pdfrwt>
<totfact> 0.62190866E+00</totfact>
</mgrwt>
</event>
<event>
12    3  0.2269558E-007  0.9156682E+03  0.7818608E-02  0.9406205E-01
          1   -1    0    0  501    0  0.00000000000E+00  0.00000000000E+00  0.11228469322E+04  0.11228469322E+04  0.00000000000E+00 0. -1.
         -2   -1    0    0    0  501 -0.00000000000E+00 -0.00000000000E+00 -0.78224456468E+03  0.78224456468E+03  0.00000000000E+00 0.  1.
        -24    2    1    2    0    0 -0.79563260253E+03 -0.21896568300E+03 -0.60760593248E+00  0.82931859506E+03  0.82412100894E+02 0.  0.
    5000000    2    1    2    0    0  0.79563260253E+03  0.21896568300E+03  0.34120997341E+03  0.10757729018E+04  0.59990489390E+03 0.  0.
        -24    2    4    4    0    0  0.48417003106E+03  0.40720280711E+03  0.13999113026E+03  0.65284094425E+03  0.79806245662E+02 0.  0.
         24    2    4    4    0    0  0.31146257148E+03 -0.18823712411E+03  0.20121884315E+03  0.42293195754E+03  0.77073144101E+02 0.  0.
         11    1    3    3    0    0 -0.53266916786E+03 -0.18347469282E+03 -0.14989368179E+02  0.56358148165E+03  0.00000000000E+00 0. -1.
        -12    1    3    3    0    0 -0.26296343467E+03 -0.35490990185E+02  0.14381762246E+02  0.26573711341E+03  0.00000000000E+00 0.  1.
         13    1    5    5    0    0  0.11254034804E+03  0.55092421034E+02  0.36837543394E+02  0.13060440037E+03  0.00000000000E+00 0. -1.
        -14    1    5    5    0    0  0.37162968301E+03  0.35211038608E+03  0.10315358687E+03  0.52223654388E+03  0.00000000000E+00 0.  1.
          4    1    6    6  502    0  0.57141453302E+02 -0.20526418376E+02  0.65848484529E+02  0.89568423295E+02  0.00000000000E+00 0. -1.
         -3    1    6    6    0  502  0.25432111818E+03 -0.16771070574E+03  0.13537035862E+03  0.33336353424E+03  0.00000000000E+00 0.  1.
<mgrwt>
<rscale>  0 0.91566818E+03</rscale>
<asrwt>0</asrwt>
<pdfrwt beam="1">  1        1 0.17274568E+00 0.91566818E+03</pdfrwt>
<pdfrwt beam="2">  1       -2 0.12034532E+00 0.91566818E+03</pdfrwt>
<totfact> 0.56694121E+00</totfact>
</mgrwt>
</event>
<event>
12    3  0.2269558E-007  0.1280383E+04  0.7818608E-02  0.9045268E-01
          1   -1    0    0  501    0  0.00000000000E+00  0.00000000000E+00  0.24106534276E+04  0.24106534276E+04  0.00000000000E+00 0. -1.
         -2   -1    0    0    0  501 -0.00000000000E+00 -0.00000000000E+00 -0.72676060665E+03  0.72676060665E+03  0.00000000000E+00 0.  1.
        -24    2    1    2    0    0 -0.11782017563E+04  0.39933232444E+03  0.61059389536E+03  0.13882666393E+04  0.82666031992E+02 0.  0.
    5000000    2    1    2    0    0  0.11782017563E+04 -0.39933232444E+03  0.10732989256E+04  0.17491473950E+04  0.59993361461E+03 0.  0.
        -24    2    4    4    0    0  0.53215872888E+03 -0.39426347514E+03  0.80397835499E+03  0.10445741418E+04  0.78213437959E+02 0.  0.
         24    2    4    4    0    0  0.64604302739E+03 -0.50688493020E+01  0.26932057065E+03  0.70457325323E+03  0.80576751717E+02 0.  0.
         13    1    3    3    0    0 -0.74944222237E+03  0.22560226187E+03  0.35069585266E+03  0.85764072099E+03  0.00000000000E+00 0. -1.
        -14    1    3    3    0    0 -0.42875953390E+03  0.17373006257E+03  0.25989804270E+03  0.53062591828E+03  0.00000000000E+00 0.  1.
         13    1    5    5    0    0  0.27245301739E+03 -0.16338855821E+03  0.34664311997E+03  0.47019987267E+03  0.00000000000E+00 0. -1.
        -14    1    5    5    0    0  0.25970571149E+03 -0.23087491693E+03  0.45733523502E+03  0.57437426913E+03  0.00000000000E+00 0.  1.
          2    1    6    6  502    0  0.22258352815E+03 -0.37019616350E+02  0.77299287093E+02  0.23851427376E+03  0.00000000000E+00 0. -1.
         -1    1    6    6    0  502  0.42345949923E+03  0.31950767048E+02  0.19202128356E+03  0.46605897947E+03  0.00000000000E+00 0.  1.
<mgrwt>
<rscale>  0 0.12803833E+04</rscale>
<asrwt>0</asrwt>
<pdfrwt beam="1">  1        1 0.37086975E+00 0.12803833E+04</pdfrwt>
<pdfrwt beam="2">  1       -2 0.11180933E+00 0.12803833E+04</pdfrwt>
<totfact> 0.84393420E-01</totfact>
</mgrwt>
</event>
<event>
12    3  0.2339596E-007  0.1911048E+04  0.7818608E-02  0.8649377E-01
         -2   -1    0    0    0  501 -0.00000000000E+00  0.00000000000E+00  0.15415723901E+04  0.15415723901E+04  0.00000000000E+00 0.  1.
          1   -1    0    0  501    0  0.00000000000E+00 -0.00000000000E+00 -0.25735086157E+04  0.25735086157E+04  0.00000000000E+00 0. -1.
        -24    2    1    2    0    0 -0.16067352288E+04 -0.10244436668E+04 -0.97809700605E+02  0.19096851710E+04  0.79042980969E+02 0.  0.
    5000000    2    1    2    0    0  0.16067352288E+04  0.10244436668E+04 -0.93412652504E+03  0.22053958348E+04  0.60007957911E+03 0.  0.
        -24    2    4    4    0    0  0.91604198787E+03  0.50364879913E+03 -0.19857492135E+03  0.10669784754E+04  0.78841811003E+02 0.  0.
         24    2    4    4    0    0  0.69069324094E+03  0.52079486765E+03 -0.73555160369E+03  0.11384173594E+04  0.81691340717E+02 0.  0.
         13    1    5    5    0    0  0.22459590418E+03  0.15309695445E+03 -0.28432420880E+02  0.27329544488E+03  0.00000000000E+00 0. -1.
        -14    1    5    5    0    0  0.69144608370E+03  0.35055184469E+03 -0.17014250047E+03  0.79368303052E+03  0.00000000000E+00 0.  1.
         13    1    3    3    0    0 -0.70231846265E+03 -0.49010359029E+03 -0.60474558351E+02  0.85855106104E+03  0.00000000000E+00 0. -1.
        -14    1    3    3    0    0 -0.90441676616E+03 -0.53434007649E+03 -0.37335142254E+02  0.10511341100E+04  0.00000000000E+00 0.  1.
          4    1    6    6  502    0  0.13801598000E+03  0.14273744272E+03 -0.14907351985E+03  0.24828472086E+03  0.00000000000E+00 0. -1.
         -3    1    6    6    0  502  0.55267726094E+03  0.37805742492E+03 -0.58647808383E+03  0.89013263850E+03  0.00000000000E+00 0.  1.
<mgrwt>
<rscale>  0 0.19110479E+04</rscale>
<asrwt>0</asrwt>
<pdfrwt beam="1">  1        1 0.39592440E+00 0.19110479E+04</pdfrwt>
<pdfrwt beam="2">  1       -2 0.23716499E+00 0.19110479E+04</pdfrwt>
<totfact> 0.73190718E-02</totfact>
</mgrwt>
</event>
<event>
12    3  0.2269558E-007  0.6236944E+03  0.7818608E-02  0.9857432E-01
          1   -1    0    0  501    0  0.00000000000E+00  0.00000000000E+00  0.83804286083E+03  0.83804286083E+03  0.00000000000E+00 0. -1.
         -2   -1    0    0    0  501 -0.00000000000E+00 -0.00000000000E+00 -0.60026634627E+03  0.60026634627E+03  0.00000000000E+00 0.  1.
        -24    2    1    2    0    0 -0.55575940699E+03 -0.14386645426E+03  0.20802663114E+02  0.57996219419E+03  0.79732808686E+02 0.  0.
    5000000    2    1    2    0    0  0.55575940699E+03  0.14386645426E+03  0.21697385145E+03  0.85834701292E+03  0.60009654828E+03 0.  0.
        -24    2    4    4    0    0  0.33024932244E+02 -0.84787226389E+02 -0.13624117250E+03  0.18258204578E+03  0.80591726919E+02 0.  0.
         24    2    4    4    0    0  0.52273447474E+03  0.22865368065E+03  0.35321502395E+03  0.67576496714E+03  0.79772181297E+02 0.  0.
         11    1    3    3    0    0 -0.95874540117E+02 -0.55047497037E+02 -0.68290468427E+01  0.11076457129E+03  0.00000000000E+00 0. -1.
        -12    1    3    3    0    0 -0.45988486687E+03 -0.88818957226E+02  0.27631709957E+02  0.46919762290E+03  0.00000000000E+00 0.  1.
         13    1    5    5    0    0  0.23264636020E+02 -0.35764632205E+02 -0.12397923687E+03  0.13111522940E+03  0.00000000000E+00 0. -1.
        -14    1    5    5    0    0  0.97602962235E+01 -0.49022594184E+02 -0.12261935635E+02  0.51466816381E+02  0.00000000000E+00 0.  1.
          2    1    6    6  502    0  0.49275474643E+03  0.23375840666E+03  0.33931451916E+03  0.64232746768E+03  0.00000000000E+00 0. -1.
         -1    1    6    6    0  502  0.29979728307E+02 -0.51047260057E+01  0.13900504789E+02  0.33437499463E+02  0.00000000000E+00 0.  1.
<mgrwt>
<rscale>  0 0.62369435E+03</rscale>
<asrwt>0</asrwt>
<pdfrwt beam="1">  1        1 0.12892967E+00 0.62369435E+03</pdfrwt>
<pdfrwt beam="2">  1       -2 0.92348668E-01 0.62369435E+03</pdfrwt>
<totfact> 0.18527829E+01</totfact>
</mgrwt>
</event>
<event>
12    3  0.2269558E-007  0.9926380E+03  0.7818608E-02  0.9316656E-01
          1   -1    0    0  501    0  0.00000000000E+00  0.00000000000E+00  0.20547214630E+04  0.20547214630E+04  0.00000000000E+00 0. -1.
         -2   -1    0    0    0  501 -0.00000000000E+00 -0.00000000000E+00 -0.16474968356E+04  0.16474968356E+04  0.00000000000E+00 0.  1.
        -24    2    1    2    0    0  0.68270175710E+03  0.67094150179E+03 -0.13235685630E+04  0.16353519024E+04  0.79359409429E+02 0.  0.
    5000000    2    1    2    0    0 -0.68270175710E+03 -0.67094150179E+03  0.17307931903E+04  0.20668663962E+04  0.60003953529E+03 0.  0.
        -24    2    4    4    0    0 -0.63647409453E+03 -0.43254697836E+03  0.16060330803E+04  0.17827173560E+04  0.80887297292E+02 0.  0.
         24    2    4    4    0    0 -0.46227662570E+02 -0.23839452344E+03  0.12476011001E+03  0.28414904015E+03  0.78782271961E+02 0.  0.
         11    1    5    5    0    0 -0.20352279958E+03 -0.17799723127E+03  0.60943412459E+03  0.66671920364E+03  0.00000000000E+00 0. -1.
        -12    1    5    5    0    0 -0.43295129495E+03 -0.25454974708E+03  0.99659895574E+03  0.11159981524E+04  0.00000000000E+00 0.  1.
         13    1    3    3    0    0  0.97367777565E+02  0.10473991101E+03 -0.24774880855E+03  0.28606014264E+03  0.00000000000E+00 0. -1.
        -14    1    3    3    0    0  0.58533397954E+03  0.56620159078E+03 -0.10758197545E+04  0.13492917598E+04  0.00000000000E+00 0.  1.
          4    1    6    6  502    0  0.19237383234E+02 -0.10431939991E+03  0.50438419517E+02  0.11745913449E+03  0.00000000000E+00 0. -1.
         -3    1    6    6    0  502 -0.65465045804E+02 -0.13407512353E+03  0.74321690497E+02  0.16668990566E+03  0.00000000000E+00 0.  1.
<mgrwt>
<rscale>  0 0.99263796E+03</rscale>
<asrwt>0</asrwt>
<pdfrwt beam="1">  1        1 0.31611099E+00 0.99263796E+03</pdfrwt>
<pdfrwt beam="2">  1       -2 0.25346105E+00 0.99263796E+03</pdfrwt>
<totfact> 0.14857891E-01</totfact>
</mgrwt>
</event>
<event>
12    3  0.2269558E-007  0.6960104E+03  0.7818608E-02  0.9724079E-01
         -2   -1    0    0    0  501 -0.00000000000E+00  0.00000000000E+00  0.26252062324E+03  0.26252062324E+03  0.00000000000E+00 0.  1.
          1   -1    0    0  501    0  0.00000000000E+00 -0.00000000000E+00 -0.28619966495E+04  0.28619966495E+04  0.00000000000E+00 0. -1.
        -24    2    1    2    0    0 -0.45772717964E+03  0.51419191557E+03 -0.17302236625E+04  0.18637243780E+04  0.76727687101E+02 0.  0.
    5000000    2    1    2    0    0  0.45772717964E+03 -0.51419191557E+03 -0.86925236373E+03  0.12607928947E+04  0.60007629049E+03 0.  0.
        -24    2    4    4    0    0  0.15635951620E+03 -0.21094205916E+03 -0.76314122846E+03  0.81093048629E+03  0.79239310881E+02 0.  0.
         24    2    4    4    0    0  0.30136766344E+03 -0.30324985641E+03 -0.10611113527E+03  0.44986240839E+03  0.91288934014E+02 0.  0.
         11    1    3    3    0    0 -0.96451921154E+02  0.12068517950E+03 -0.31015711058E+03  0.34650442838E+03  0.00000000000E+00 0. -1.
        -12    1    3    3    0    0 -0.36127525849E+03  0.39350673607E+03 -0.14200665519E+04  0.15172199496E+04  0.00000000000E+00 0.  1.
         13    1    5    5    0    0  0.58435456894E+02 -0.26040239540E+02 -0.21052056938E+03  0.22002660483E+03  0.00000000000E+00 0. -1.
        -14    1    5    5    0    0  0.97924059305E+02 -0.18490181962E+03 -0.55262065908E+03  0.59090388147E+03  0.00000000000E+00 0.  1.
          2    1    6    6  502    0  0.17889595232E+03 -0.14666042646E+03 -0.97046225560E+02  0.25086054361E+03  0.00000000000E+00 0. -1.
         -1    1    6    6    0  502  0.12247171112E+03 -0.15658942995E+03 -0.90649097071E+01  0.19900186478E+03  0.00000000000E+00 0.  1.
<mgrwt>
<rscale>  0 0.69601040E+03</rscale>
<asrwt>0</asrwt>
<pdfrwt beam="1">  1        1 0.44030716E+00 0.69601040E+03</pdfrwt>
<pdfrwt beam="2">  1       -2 0.40387790E-01 0.69601040E+03</pdfrwt>
<totfact> 0.41184489E+00</totfact>
</mgrwt>
</event>
<event>
12    3  0.2269558E-007  0.6983869E+03  0.7818608E-02  0.9719995E-01
         -2   -1    0    0    0  501 -0.00000000000E+00  0.00000000000E+00  0.48018122459E+03  0.48018122459E+03  0.00000000000E+00 0.  1.
          1   -1    0    0  501    0  0.00000000000E+00 -0.00000000000E+00 -0.16852783449E+04  0.16852783449E+04  0.00000000000E+00 0. -1.
        -24    2    1    2    0    0 -0.28694853001E+03  0.54423669010E+03  0.73909118060E+02  0.62444689625E+03  0.77060591550E+02 0.  0.
    5000000    2    1    2    0    0  0.28694853001E+03 -0.54423669010E+03 -0.12790062384E+04  0.15410126733E+04  0.60027499330E+03 0.  0.
        -24    2    4    4    0    0  0.26414480774E+03 -0.34963572584E+02 -0.75862008812E+03  0.80837066746E+03  0.83449188379E+02 0.  0.
         24    2    4    4    0    0  0.22803722272E+02 -0.50927311752E+03 -0.52038615029E+03  0.73264200582E+03  0.77996444173E+02 0.  0.
         13    1    5    5    0    0  0.18915107414E+03 -0.19821042295E+02 -0.63611573845E+03  0.66393842732E+03  0.00000000000E+00 0. -1.
        -14    1    5    5    0    0  0.74993733605E+02 -0.15142530288E+02 -0.12250434966E+03  0.14443224013E+03  0.00000000000E+00 0.  1.
         13    1    3    3    0    0 -0.20159351331E+02  0.97478839843E+02  0.17110652165E+02  0.10100147564E+03  0.00000000000E+00 0. -1.
        -14    1    3    3    0    0 -0.26678917868E+03  0.44675785026E+03  0.56798465896E+02  0.52344542061E+03  0.00000000000E+00 0.  1.
          2    1    6    6  502    0 -0.71530613372E+00 -0.20550649266E+03 -0.26320981761E+03  0.33393538039E+03  0.00000000000E+00 0. -1.
         -1    1    6    6    0  502  0.23519028405E+02 -0.30376662485E+03 -0.25717633269E+03  0.39870662544E+03  0.00000000000E+00 0.  1.
<mgrwt>
<rscale>  0 0.69838688E+03</rscale>
<asrwt>0</asrwt>
<pdfrwt beam="1">  1        1 0.25927359E+00 0.69838688E+03</pdfrwt>
<pdfrwt beam="2">  1       -2 0.73874034E-01 0.69838688E+03</pdfrwt>
<totfact> 0.73823487E+00</totfact>
</mgrwt>
</event>
<event>
12    3  0.2269558E-007  0.6942689E+03  0.7818608E-02  0.9727084E-01
         -2   -1    0    0    0  501 -0.00000000000E+00  0.00000000000E+00  0.50627135704E+03  0.50627135704E+03  0.00000000000E+00 0.  1.
          1   -1    0    0  501    0  0.00000000000E+00 -0.00000000000E+00 -0.12447790560E+04  0.12447790560E+04  0.00000000000E+00 0. -1.
        -24    2    1    2    0    0 -0.51585192965E+03  0.35158470761E+03 -0.26208878326E+02  0.62984673370E+03  0.79403921187E+02 0.  0.
    5000000    2    1    2    0    0  0.51585192965E+03 -0.35158470761E+03 -0.71229882062E+03  0.11212036793E+04  0.60001088384E+03 0.  0.
        -24    2    4    4    0    0 -0.61189874276E+02 -0.92126213404E+02  0.32923440447E+02  0.14079089934E+03  0.80664022317E+02 0.  0.
         24    2    4    4    0    0  0.57704180393E+03 -0.25945849421E+03 -0.74522226107E+03  0.98041277999E+03  0.74545603990E+02 0.  0.
         11    1    3    3    0    0 -0.28947802410E+03  0.15627793143E+03  0.68753339195E+01  0.32904040558E+03  0.00000000000E+00 0. -1.
        -12    1    3    3    0    0 -0.22637390555E+03  0.19530677618E+03 -0.33084212245E+02  0.30080632812E+03  0.00000000000E+00 0.  1.
         13    1    5    5    0    0  0.96165385032E+01 -0.21624032054E+02  0.33320395910E+02  0.40869614124E+02  0.00000000000E+00 0. -1.
        -14    1    5    5    0    0 -0.70806412779E+02 -0.70502181350E+02 -0.39695546250E+00  0.99921285217E+02  0.00000000000E+00 0.  1.
          2    1    6    6  502    0  0.13525196407E+03 -0.27499758642E+02 -0.16725971429E+03  0.21685281307E+03  0.00000000000E+00 0. -1.
         -1    1    6    6    0  502  0.44178983986E+03 -0.23195873557E+03 -0.57796254678E+03  0.76355996692E+03  0.00000000000E+00 0.  1.
<mgrwt>
<rscale>  0 0.69426890E+03</rscale>
<asrwt>0</asrwt>
<pdfrwt beam="1">  1        1 0.19150447E+00 0.69426890E+03</pdfrwt>
<pdfrwt beam="2">  1       -2 0.77887902E-01 0.69426890E+03</pdfrwt>
<totfact> 0.13206950E+01</totfact>
</mgrwt>
</event>
<event>
12    3  0.2269558E-007  0.7825146E+03  0.7818608E-02  0.9585677E-01
          1   -1    0    0  501    0  0.00000000000E+00  0.00000000000E+00  0.85104730392E+03  0.85104730392E+03  0.00000000000E+00 0. -1.
         -2   -1    0    0    0  501 -0.00000000000E+00 -0.00000000000E+00 -0.90673207560E+03  0.90673207560E+03  0.00000000000E+00 0.  1.
        -24    2    1    2    0    0 -0.77242446340E+03  0.44899021179E+02 -0.30642324726E+02  0.77845166520E+03  0.79953544097E+02 0.  0.
    5000000    2    1    2    0    0  0.77242446340E+03 -0.44899021179E+02 -0.25042446947E+02  0.97932771433E+03  0.59983345533E+03 0.  0.
        -24    2    4    4    0    0  0.25266879070E+03 -0.13983150683E+02 -0.28672786383E+03  0.39122017767E+03  0.82482199414E+02 0.  0.
         24    2    4    4    0    0  0.51975567270E+03 -0.30915870497E+02  0.26168541689E+03  0.58810753666E+03  0.79306159326E+02 0.  0.
         11    1    5    5    0    0  0.18484179932E+03 -0.38072985513E+02 -0.24037630035E+03  0.30560891475E+03  0.00000000000E+00 0. -1.
        -12    1    5    5    0    0  0.67826991385E+02  0.24089834830E+02 -0.46351563480E+02  0.85611262924E+02  0.00000000000E+00 0.  1.
         13    1    3    3    0    0 -0.53732572741E+03  0.67611174556E+02 -0.15819734232E+02  0.54179375435E+03  0.00000000000E+00 0. -1.
        -14    1    3    3    0    0 -0.23509873600E+03 -0.22712153376E+02 -0.14822590494E+02  0.23665791085E+03  0.00000000000E+00 0.  1.
          2    1    6    6  502    0  0.19033819200E+03 -0.49377995079E+02  0.92021998999E+02  0.21710564717E+03  0.00000000000E+00 0. -1.
         -1    1    6    6    0  502  0.32941748070E+03  0.18462124582E+02  0.16966341789E+03  0.37100188949E+03  0.00000000000E+00 0.  1.
<mgrwt>
<rscale>  0 0.78251464E+03</rscale>
<asrwt>0</asrwt>
<pdfrwt beam="1">  1        1 0.13093035E+00 0.78251464E+03</pdfrwt>
<pdfrwt beam="2">  1       -2 0.13949724E+00 0.78251464E+03</pdfrwt>
<totfact> 0.64716012E+00</totfact>
</mgrwt>
</event>
<event>
12    3  0.2269558E-007  0.8400318E+03  0.7818608E-02  0.9503814E-01
          1   -1    0    0  501    0  0.00000000000E+00  0.00000000000E+00  0.11601078203E+04  0.11601078203E+04  0.00000000000E+00 0. -1.
         -2   -1    0    0    0  501 -0.00000000000E+00 -0.00000000000E+00 -0.65528709887E+03  0.65528709887E+03  0.00000000000E+00 0.  1.
        -24    2    1    2    0    0 -0.73926857036E+03 -0.19576455245E+03  0.17416963305E+03  0.78856382118E+03  0.81584679213E+02 0.  0.
    5000000    2    1    2    0    0  0.73926857036E+03  0.19576455245E+03  0.33065108837E+03  0.10268310980E+04  0.60017512647E+03 0.  0.
        -24    2    4    4    0    0  0.17026693968E+03 -0.15713299357E+03  0.24576622591E+03  0.34710567101E+03  0.79998128941E+02 0.  0.
         24    2    4    4    0    0  0.56900163068E+03  0.35289754602E+03  0.84884862461E+02  0.67972542698E+03  0.80756934681E+02 0.  0.
         11    1    3    3    0    0 -0.47151399587E+03 -0.11395210489E+03  0.14902040626E+03  0.50746193156E+03  0.00000000000E+00 0. -1.
        -12    1    3    3    0    0 -0.26775457449E+03 -0.81812447564E+02  0.25149226796E+02  0.28110188962E+03  0.00000000000E+00 0.  1.
         13    1    5    5    0    0  0.10986530334E+03 -0.55233891639E+02  0.15511065208E+03  0.19794060234E+03  0.00000000000E+00 0. -1.
        -14    1    5    5    0    0  0.60401636339E+02 -0.10189910193E+03  0.90655573821E+02  0.14916506867E+03  0.00000000000E+00 0.  1.
          4    1    6    6  502    0  0.42166179722E+03  0.29802746063E+03  0.50769422239E+02  0.51884156807E+03  0.00000000000E+00 0. -1.
         -3    1    6    6    0  502  0.14733983346E+03  0.54870085394E+02  0.34115440222E+02  0.16088385891E+03  0.00000000000E+00 0.  1.
<mgrwt>
<rscale>  0 0.84003180E+03</rscale>
<asrwt>0</asrwt>
<pdfrwt beam="1">  1        1 0.17847813E+00 0.84003180E+03</pdfrwt>
<pdfrwt beam="2">  1       -2 0.10081340E+00 0.84003180E+03</pdfrwt>
<totfact> 0.82509102E+00</totfact>
</mgrwt>
</event>
<event>
12    3  0.2269558E-007  0.2524996E+03  0.7818608E-02  0.1111735E+00
         -2   -1    0    0    0  501 -0.00000000000E+00  0.00000000000E+00  0.76223860661E+03  0.76223860661E+03  0.00000000000E+00 0.  1.
          1   -1    0    0  501    0  0.00000000000E+00 -0.00000000000E+00 -0.23557594700E+03  0.23557594700E+03  0.00000000000E+00 0. -1.
        -24    2    1    2    0    0  0.38746455244E+01  0.19189096306E+03  0.68625339920E+02  0.21899348327E+03  0.80072179040E+02 0.  0.
    5000000    2    1    2    0    0 -0.38746455244E+01 -0.19189096306E+03  0.45803731969E+03  0.77882107034E+03  0.59993909591E+03 0.  0.
        -24    2    4    4    0    0  0.99496044692E+02 -0.11105607936E+03 -0.10303968524E+03  0.19740868191E+03  0.78231037870E+02 0.  0.
         24    2    4    4    0    0 -0.10337069022E+03 -0.80834883698E+02  0.56107700493E+03  0.58141238843E+03  0.77544709319E+02 0.  0.
         11    1    3    3    0    0  0.36408080049E+02  0.63513482670E+02  0.40280396123E+02  0.83558489009E+02  0.00000000000E+00 0. -1.
        -12    1    3    3    0    0 -0.32533434524E+02  0.12837748039E+03  0.28344943797E+02  0.13543499426E+03  0.00000000000E+00 0.  1.
         13    1    5    5    0    0  0.40325053563E+02  0.13898221779E+01 -0.16070159588E+02  0.43431458411E+02  0.00000000000E+00 0. -1.
        -14    1    5    5    0    0  0.59170991129E+02 -0.11244590153E+03 -0.86969525654E+02  0.15397722350E+03  0.00000000000E+00 0.  1.
          2    1    6    6  502    0 -0.23332752104E+02 -0.11334751137E+02  0.27684315543E+03  0.27805579766E+03  0.00000000000E+00 0. -1.
         -1    1    6    6    0  502 -0.80037938113E+02 -0.69500132562E+02  0.28423384950E+03  0.30335659077E+03  0.00000000000E+00 0.  1.
<mgrwt>
<rscale>  0 0.25249962E+03</rscale>
<asrwt>0</asrwt>
<pdfrwt beam="1">  1        1 0.36242454E-01 0.25249962E+03</pdfrwt>
<pdfrwt beam="2">  1       -2 0.11726748E+00 0.25249962E+03</pdfrwt>
<totfact> 0.62129525E+01</totfact>
</mgrwt>
</event>
<event>
12    3  0.2269558E-007  0.6171565E+03  0.7818608E-02  0.9870437E-01
          1   -1    0    0  501    0  0.00000000000E+00  0.00000000000E+00  0.59284885429E+03  0.59284885429E+03  0.00000000000E+00 0. -1.
         -2   -1    0    0    0  501 -0.00000000000E+00 -0.00000000000E+00 -0.88788166227E+03  0.88788166227E+03  0.00000000000E+00 0.  1.
        -24    2    1    2    0    0  0.47783614369E+03  0.35993997145E+03 -0.12306426306E+03  0.61630251137E+03  0.82460956902E+02 0.  0.
    5000000    2    1    2    0    0 -0.47783614369E+03 -0.35993997145E+03 -0.17196854493E+03  0.86442800519E+03  0.59981533195E+03 0.  0.
        -24    2    4    4    0    0 -0.12188127380E+03 -0.16905827828E+02  0.19468732106E+03  0.24374780852E+03  0.79805947497E+02 0.  0.
         24    2    4    4    0    0 -0.35595486989E+03 -0.34303414362E+03 -0.36665586599E+03  0.62068019667E+03  0.80194073226E+02 0.  0.
         11    1    5    5    0    0 -0.10103060987E+03 -0.31338376359E+02  0.99435165109E+02  0.14517792540E+03  0.00000000000E+00 0. -1.
        -12    1    5    5    0    0 -0.20850663931E+02  0.14432548531E+02  0.95252155954E+02  0.98569883115E+02  0.00000000000E+00 0.  1.
         11    1    3    3    0    0  0.35628814912E+03  0.22514697050E+03 -0.70309476989E+02  0.42728892577E+03  0.00000000000E+00 0. -1.
        -12    1    3    3    0    0  0.12154799457E+03  0.13479300095E+03 -0.52754786068E+02  0.18901358560E+03  0.00000000000E+00 0.  1.
          4    1    6    6  502    0 -0.15167821812E+03 -0.95373334780E+02 -0.11691359262E+03  0.21394191497E+03  0.00000000000E+00 0. -1.
         -3    1    6    6    0  502 -0.20427665177E+03 -0.24766080884E+03 -0.24974227337E+03  0.40673828171E+03  0.00000000000E+00 0.  1.
<mgrwt>
<rscale>  0 0.61715652E+03</rscale>
<asrwt>0</asrwt>
<pdfrwt beam="1">  1        1 0.91207516E-01 0.61715652E+03</pdfrwt>
<pdfrwt beam="2">  1       -2 0.13659718E+00 0.61715652E+03</pdfrwt>
<totfact> 0.12086172E+01</totfact>
</mgrwt>
</event>
<event>
12    3  0.2269558E-007  0.1306362E+04  0.7818608E-02  0.9024535E-01
         -2   -1    0    0    0  501 -0.00000000000E+00  0.00000000000E+00  0.98939458793E+03  0.98939458793E+03  0.00000000000E+00 0.  1.
          1   -1    0    0  501    0  0.00000000000E+00 -0.00000000000E+00 -0.18553726912E+04  0.18553726912E+04  0.00000000000E+00 0. -1.
        -24    2    1    2    0    0 -0.12546392873E+04 -0.10855872119E+03 -0.69165376615E+03  0.14390009125E+04  0.80211949521E+02 0.  0.
    5000000    2    1    2    0    0  0.12546392873E+04  0.10855872119E+03 -0.17432433707E+03  0.14057663665E+04  0.59990446368E+03 0.  0.
        -24    2    4    4    0    0  0.70664802496E+03  0.29896926550E+03 -0.25925635025E+03  0.81386770983E+03  0.80204370691E+02 0.  0.
         24    2    4    4    0    0  0.54799126237E+03 -0.19041054431E+03  0.84932013171E+02  0.59189865670E+03  0.81117038456E+02 0.  0.
         11    1    5    5    0    0  0.78413502863E+02  0.15181953890E+02 -0.85041126608E+01  0.80321162138E+02  0.00000000000E+00 0. -1.
        -12    1    5    5    0    0  0.62823452209E+03  0.28378731161E+03 -0.25075223759E+03  0.73354654769E+03  0.00000000000E+00 0.  1.
         13    1    3    3    0    0 -0.87953102832E+03 -0.10371576785E+03 -0.51325325901E+03  0.10236018260E+04  0.00000000000E+00 0. -1.
        -14    1    3    3    0    0 -0.37510825900E+03 -0.48429533421E+01 -0.17840050714E+03  0.41539908656E+03  0.00000000000E+00 0.  1.
          4    1    6    6  502    0  0.23253727610E+03 -0.52176430409E+02  0.51905990696E+01  0.23837555870E+03  0.00000000000E+00 0. -1.
         -3    1    6    6    0  502  0.31545398626E+03 -0.13823411390E+03  0.79741414102E+02  0.35352309800E+03  0.00000000000E+00 0.  1.
<mgrwt>
<rscale>  0 0.13063616E+04</rscale>
<asrwt>0</asrwt>
<pdfrwt beam="1">  1        1 0.28544195E+00 0.13063616E+04</pdfrwt>
<pdfrwt beam="2">  1       -2 0.15221455E+00 0.13063616E+04</pdfrwt>
<totfact> 0.91137814E-01</totfact>
</mgrwt>
</event>
<event>
12    3  0.2269558E-007  0.7970678E+03  0.7818608E-02  0.9564271E-01
          1   -1    0    0  501    0  0.00000000000E+00  0.00000000000E+00  0.20600824229E+04  0.20600824229E+04  0.00000000000E+00 0. -1.
         -4   -1    0    0    0  501 -0.00000000000E+00 -0.00000000000E+00 -0.32076138466E+03  0.32076138466E+03  0.00000000000E+00 0.  1.
        -24    2    1    2    0    0 -0.83102368317E+02 -0.68807737341E+03  0.61658467737E+03  0.93148860916E+03  0.84486029606E+02 0.  0.
    5000000    2    1    2    0    0  0.83102368317E+02  0.68807737341E+03  0.11227363609E+04  0.14493551984E+04  0.59978085976E+03 0.  0.
        -24    2    4    4    0    0  0.21657122171E+03  0.72015176508E+03  0.94011561859E+03  0.12065859771E+04  0.80688816042E+02 0.  0.
         24    2    4    4    0    0 -0.13346885339E+03 -0.32074391665E+02  0.18262074229E+03  0.24276922131E+03  0.82120995331E+02 0.  0.
         11    1    3    3    0    0 -0.14348335630E+02 -0.19762224084E+03  0.22742088560E+03  0.30163004495E+03  0.00000000000E+00 0. -1.
        -12    1    3    3    0    0 -0.68754032688E+02 -0.49045513257E+03  0.38916379177E+03  0.62985856421E+03  0.00000000000E+00 0.  1.
         13    1    5    5    0    0  0.12554085586E+03  0.32002574176E+03  0.38290062340E+03  0.51457736958E+03  0.00000000000E+00 0. -1.
        -14    1    5    5    0    0  0.91030365846E+02  0.40012602332E+03  0.55721499519E+03  0.69200860754E+03  0.00000000000E+00 0.  1.
          2    1    6    6  502    0 -0.99998248614E+02 -0.46371762330E+02  0.86899957657E+02  0.14036236215E+03  0.00000000000E+00 0. -1.
         -1    1    6    6    0  502 -0.33470604777E+02  0.14297370665E+02  0.95720784633E+02  0.10240685916E+03  0.00000000000E+00 0.  1.
<mgrwt>
<rscale>  0 0.79706784E+03</rscale>
<asrwt>0</asrwt>
<pdfrwt beam="1">  1        1 0.31693575E+00 0.79706784E+03</pdfrwt>
<pdfrwt beam="2">  1       -4 0.49347906E-01 0.79706784E+03</pdfrwt>
<totfact> 0.53751065E+00</totfact>
</mgrwt>
</event>
<event>
12    3  0.2269558E-007  0.1320191E+04  0.7818608E-02  0.9013705E-01
         -2   -1    0    0    0  501 -0.00000000000E+00  0.00000000000E+00  0.12605822942E+04  0.12605822942E+04  0.00000000000E+00 0.  1.
          1   -1    0    0  501    0  0.00000000000E+00 -0.00000000000E+00 -0.17006152089E+04  0.17006152089E+04  0.00000000000E+00 0. -1.
        -24    2    1    2    0    0  0.67912204965E+03  0.11258326496E+04 -0.70164269937E+03  0.14924796495E+04  0.80542618313E+02 0.  0.
    5000000    2    1    2    0    0 -0.67912204965E+03 -0.11258326496E+04  0.26160978473E+03  0.14687178536E+04  0.59998878374E+03 0.  0.
        -24    2    4    4    0    0 -0.66140097081E+03 -0.10825771308E+04  0.87453672674E+02  0.12741846634E+04  0.80460693209E+02 0.  0.
         24    2    4    4    0    0 -0.17721078842E+02 -0.43255518830E+02  0.17415611206E+03  0.19453319021E+03  0.72991329482E+02 0.  0.
         11    1    5    5    0    0 -0.36212805501E+03 -0.60620648587E+03  0.92117733052E+01  0.70619252935E+03  0.00000000000E+00 0. -1.
        -12    1    5    5    0    0 -0.29927291580E+03 -0.47637064494E+03  0.78241899369E+02  0.56799213402E+03  0.00000000000E+00 0.  1.
         13    1    3    3    0    0  0.49076671509E+03  0.80357987542E+03 -0.54264805949E+03  0.10867656147E+04  0.00000000000E+00 0. -1.
        -14    1    3    3    0    0  0.18835533456E+03  0.32225277422E+03 -0.15899463988E+03  0.40571403483E+03  0.00000000000E+00 0.  1.
          2    1    6    6  502    0 -0.25241323641E+02 -0.42272913020E+02  0.50092709910E+02  0.70238188904E+02  0.00000000000E+00 0. -1.
         -1    1    6    6    0  502  0.75202447988E+01 -0.98260580971E+00  0.12406340215E+03  0.12429500130E+03  0.00000000000E+00 0.  1.
<mgrwt>
<rscale>  0 0.13201909E+04</rscale>
<asrwt>0</asrwt>
<pdfrwt beam="1">  1        1 0.26163311E+00 0.13201909E+04</pdfrwt>
<pdfrwt beam="2">  1       -2 0.19393574E+00 0.13201909E+04</pdfrwt>
<totfact> 0.58534318E-01</totfact>
</mgrwt>
</event>
<event>
12    3  0.2269558E-007  0.8010845E+03  0.7818608E-02  0.9558449E-01
         -2   -1    0    0    0  501 -0.00000000000E+00  0.00000000000E+00  0.32455209218E+03  0.32455209218E+03  0.00000000000E+00 0.  1.
          1   -1    0    0  501    0  0.00000000000E+00 -0.00000000000E+00 -0.23368095650E+04  0.23368095650E+04  0.00000000000E+00 0. -1.
        -24    2    1    2    0    0  0.60883293385E+03  0.38884314400E+03 -0.50360996836E+03  0.88431880317E+03  0.80747838581E+02 0.  0.
    5000000    2    1    2    0    0 -0.60883293385E+03 -0.38884314400E+03 -0.15086475045E+04  0.17770428540E+04  0.59998956684E+03 0.  0.
        -24    2    4    4    0    0 -0.35004942365E+02 -0.27559091952E+03 -0.23527988598E+03  0.37350724024E+03  0.83518458185E+02 0.  0.
         24    2    4    4    0    0 -0.57382799148E+03 -0.11325222448E+03 -0.12733676185E+04  0.14035356138E+04  0.79639796307E+02 0.  0.
         11    1    3    3    0    0  0.21352036398E+02  0.35288177265E+02 -0.28561332315E+02  0.50168861026E+02  0.00000000000E+00 0. -1.
        -12    1    3    3    0    0  0.58748089745E+03  0.35355496673E+03 -0.47504863605E+03  0.83414994214E+03  0.00000000000E+00 0.  1.
         13    1    5    5    0    0 -0.60373477621E+02 -0.22945607176E+03 -0.19743085125E+03  0.30866484525E+03  0.00000000000E+00 0. -1.
        -14    1    5    5    0    0  0.25368535256E+02 -0.46134847762E+02 -0.37849034724E+02  0.64842394994E+02  0.00000000000E+00 0.  1.
          2    1    6    6  502    0 -0.31720425888E+03 -0.74190876681E+02 -0.61735657704E+03  0.69803436252E+03  0.00000000000E+00 0. -1.
         -1    1    6    6    0  502 -0.25662373260E+03 -0.39061347795E+02 -0.65601104145E+03  0.70550125126E+03  0.00000000000E+00 0.  1.
<mgrwt>
<rscale>  0 0.80108449E+03</rscale>
<asrwt>0</asrwt>
<pdfrwt beam="1">  1        1 0.35950917E+00 0.80108449E+03</pdfrwt>
<pdfrwt beam="2">  1       -2 0.49931090E-01 0.80108449E+03</pdfrwt>
<totfact> 0.60949730E+00</totfact>
</mgrwt>
</event>
<event>
12    3  0.2269558E-007  0.9445783E+03  0.7818608E-02  0.9371510E-01
          1   -1    0    0  501    0  0.00000000000E+00  0.00000000000E+00  0.27112574130E+04  0.27112574130E+04  0.00000000000E+00 0. -1.
         -2   -1    0    0    0  501 -0.00000000000E+00 -0.00000000000E+00 -0.46631620908E+03  0.46631620908E+03  0.00000000000E+00 0.  1.
        -24    2    1    2    0    0 -0.57389163337E+02  0.88872693587E+03  0.27791328356E+03  0.93651488582E+03  0.81824541456E+02 0.  0.
    5000000    2    1    2    0    0  0.57389163337E+02 -0.88872693587E+03  0.19670279204E+04  0.22410587363E+04  0.60001361424E+03 0.  0.
        -24    2    4    4    0    0 -0.14614861395E+03 -0.71352532844E+03  0.10379425223E+04  0.12705576917E+04  0.80711564630E+02 0.  0.
         24    2    4    4    0    0  0.20353777729E+03 -0.17520160743E+03  0.92908539806E+03  0.97050104455E+03  0.80928181527E+02 0.  0.
         11    1    5    5    0    0 -0.13936989631E+03 -0.66283571140E+03  0.92401565146E+03  0.11456788697E+04  0.00000000000E+00 0. -1.
        -12    1    5    5    0    0 -0.67787176430E+01 -0.50689617035E+02  0.11392687085E+03  0.12487882202E+03  0.00000000000E+00 0.  1.
         11    1    3    3    0    0 -0.16416376125E+02  0.58871014786E+03  0.14955814581E+03  0.60763210463E+03  0.00000000000E+00 0. -1.
        -12    1    3    3    0    0 -0.40972787212E+02  0.30001678800E+03  0.12835513776E+03  0.32888278119E+03  0.00000000000E+00 0.  1.
          4    1    6    6  502    0  0.16278835699E+03 -0.13223418957E+03  0.58731555910E+03  0.62363891477E+03  0.00000000000E+00 0. -1.
         -3    1    6    6    0  502  0.40749420300E+02 -0.42967417862E+02  0.34176983896E+03  0.34686212978E+03  0.00000000000E+00 0.  1.
<mgrwt>
<rscale>  0 0.94457834E+03</rscale>
<asrwt>0</asrwt>
<pdfrwt beam="1">  1        1 0.41711652E+00 0.94457834E+03</pdfrwt>
<pdfrwt beam="2">  1       -2 0.71740957E-01 0.94457834E+03</pdfrwt>
<totfact> 0.15313364E+00</totfact>
</mgrwt>
</event>
<event>
12    3  0.2269558E-007  0.4587199E+03  0.7818608E-02  0.1025153E+00
          1   -1    0    0  501    0  0.00000000000E+00  0.00000000000E+00  0.36839544988E+03  0.36839544988E+03  0.00000000000E+00 0. -1.
         -2   -1    0    0    0  501 -0.00000000000E+00 -0.00000000000E+00 -0.95023640114E+03  0.95023640114E+03  0.00000000000E+00 0.  1.
        -24    2    1    2    0    0 -0.16939300589E+03 -0.37415141115E+03 -0.57707024822E+02  0.42233471760E+03  0.79707239719E+02 0.  0.
    5000000    2    1    2    0    0  0.16939300589E+03  0.37415141115E+03 -0.52413392644E+03  0.89629713343E+03  0.59995742319E+03 0.  0.
        -24    2    4    4    0    0  0.20454933336E+03  0.11315828868E+03  0.56895228592E+02  0.25344332488E+03  0.79694565770E+02 0.  0.
         24    2    4    4    0    0 -0.35156327475E+02  0.26099312248E+03 -0.58102915503E+03  0.64285380855E+03  0.79452896938E+02 0.  0.
         13    1    3    3    0    0 -0.50326891973E+02 -0.14170180283E+03 -0.57982337142E+02  0.16116497263E+03  0.00000000000E+00 0. -1.
        -14    1    3    3    0    0 -0.11906611391E+03 -0.23244960832E+03  0.27531232027E+00  0.26116974497E+03  0.00000000000E+00 0.  1.
         13    1    5    5    0    0  0.38460799909E+02  0.16850637824E+02 -0.20144324586E+02  0.46572212077E+02  0.00000000000E+00 0. -1.
        -14    1    5    5    0    0  0.16608853345E+03  0.96307650852E+02  0.77039553178E+02  0.20687111280E+03  0.00000000000E+00 0.  1.
          2    1    6    6  502    0 -0.54952936171E+02  0.16526897346E+03 -0.32362839478E+03  0.36751734202E+03  0.00000000000E+00 0. -1.
         -1    1    6    6    0  502  0.19796608696E+02  0.95724149019E+02 -0.25740076026E+03  0.27533646653E+03  0.00000000000E+00 0.  1.
<mgrwt>
<rscale>  0 0.45871988E+03</rscale>
<asrwt>0</asrwt>
<pdfrwt beam="1">  1        1 0.56676224E-01 0.45871988E+03</pdfrwt>
<pdfrwt beam="2">  1       -2 0.14619021E+00 0.45871988E+03</pdfrwt>
<totfact> 0.19676660E+01</totfact>
</mgrwt>
</event>
<event>
12    3  0.2269558E-007  0.5299206E+03  0.7818608E-02  0.1006251E+00
         -2   -1    0    0    0  501 -0.00000000000E+00  0.00000000000E+00  0.23873082148E+03  0.23873082148E+03  0.00000000000E+00 0.  1.
          1   -1    0    0  501    0  0.00000000000E+00 -0.00000000000E+00 -0.14449739831E+04  0.14449739831E+04  0.00000000000E+00 0. -1.
        -24    2    1    2    0    0  0.17944614355E+03 -0.38753926396E+03 -0.51087400587E+03  0.67076672252E+03  0.80920619198E+02 0.  0.
    5000000    2    1    2    0    0 -0.17944614355E+03  0.38753926396E+03 -0.69536915579E+03  0.10129380821E+04  0.60009807183E+03 0.  0.
        -24    2    4    4    0    0 -0.30488828038E+03  0.38024896233E+03 -0.27087816034E+03  0.56341256640E+03  0.80700714769E+02 0.  0.
         24    2    4    4    0    0  0.12544213683E+03  0.72903016319E+01 -0.42449099545E+03  0.44952551571E+03  0.78049380940E+02 0.  0.
         13    1    5    5    0    0 -0.19039649307E+03  0.19035228117E+03 -0.17949754276E+03  0.32358025802E+03  0.00000000000E+00 0. -1.
        -14    1    5    5    0    0 -0.11449178731E+03  0.18989668116E+03 -0.91380617577E+02  0.23983230838E+03  0.00000000000E+00 0.  1.
         13    1    3    3    0    0  0.45087912231E+02 -0.10988367303E+03 -0.90291310548E+02  0.14919739337E+03  0.00000000000E+00 0. -1.
        -14    1    3    3    0    0  0.13435823132E+03 -0.27765559093E+03 -0.42058269533E+03  0.52156932915E+03  0.00000000000E+00 0.  1.
          4    1    6    6  502    0  0.54575930750E+01 -0.18180540854E+02 -0.23582265134E+02  0.30272770220E+02  0.00000000000E+00 0. -1.
         -3    1    6    6    0  502  0.11998454375E+03  0.25470842486E+02 -0.40090873032E+03  0.41925274549E+03  0.00000000000E+00 0.  1.
<mgrwt>
<rscale>  0 0.52992062E+03</rscale>
<asrwt>0</asrwt>
<pdfrwt beam="1">  1        1 0.22230369E+00 0.52992062E+03</pdfrwt>
<pdfrwt beam="2">  1       -2 0.36727819E-01 0.52992062E+03</pdfrwt>
<totfact> 0.46144674E+01</totfact>
</mgrwt>
</event>
<event>
12    3  0.2269558E-007  0.7421954E+03  0.7818608E-02  0.9647675E-01
         -2   -1    0    0    0  501 -0.00000000000E+00  0.00000000000E+00  0.29952008426E+03  0.29952008426E+03  0.00000000000E+00 0.  1.
          1   -1    0    0  501    0  0.00000000000E+00 -0.00000000000E+00 -0.24147015449E+04  0.24147015449E+04  0.00000000000E+00 0. -1.
        -24    2    1    2    0    0 -0.50621030889E+03 -0.40252788139E+03 -0.15095510934E+04  0.16441940515E+04  0.79699456721E+02 0.  0.
    5000000    2    1    2    0    0  0.50621030889E+03  0.40252788139E+03 -0.60563036728E+03  0.10700275777E+04  0.59991107929E+03 0.  0.
        -24    2    4    4    0    0  0.43471865257E+03  0.53182547324E+03 -0.56190040945E+03  0.89188544976E+03  0.88932246599E+02 0.  0.
         24    2    4    4    0    0  0.71491656325E+02 -0.12929759184E+03 -0.43729957831E+02  0.17814212790E+03  0.89405728789E+02 0.  0.
         11    1    3    3    0    0 -0.29243218763E+03 -0.24058805826E+03 -0.78401213965E+03  0.87067458517E+03  0.00000000000E+00 0. -1.
        -12    1    3    3    0    0 -0.21377812127E+03 -0.16193982313E+03 -0.72553895370E+03  0.77351946633E+03  0.00000000000E+00 0.  1.
         13    1    5    5    0    0  0.36116413806E+03  0.40205155490E+03 -0.47321812845E+03  0.71834558850E+03  0.00000000000E+00 0. -1.
        -14    1    5    5    0    0  0.73554514503E+02  0.12977391834E+03 -0.88682281002E+02  0.17353986127E+03  0.00000000000E+00 0.  1.
          4    1    6    6  502    0  0.67783705381E+02 -0.11891554850E+03 -0.66997584785E+02  0.15239493022E+03  0.00000000000E+00 0. -1.
         -3    1    6    6    0  502  0.37079509436E+01 -0.10382043345E+02  0.23267626955E+02  0.25747197679E+02  0.00000000000E+00 0.  1.
<mgrwt>
<rscale>  0 0.74219542E+03</rscale>
<asrwt>0</asrwt>
<pdfrwt beam="1">  1        1 0.37149255E+00 0.74219542E+03</pdfrwt>
<pdfrwt beam="2">  1       -2 0.46080012E-01 0.74219542E+03</pdfrwt>
<totfact> 0.64070001E+00</totfact>
</mgrwt>
</event>
<event>
12    3  0.2269558E-007  0.3862168E+03  0.7818608E-02  0.1048660E+00
          1   -1    0    0  501    0  0.00000000000E+00  0.00000000000E+00  0.73553985761E+03  0.73553985761E+03  0.00000000000E+00 0. -1.
         -2   -1    0    0    0  501 -0.00000000000E+00 -0.00000000000E+00 -0.25083791438E+03  0.25083791438E+03  0.00000000000E+00 0.  1.
        -24    2    1    2    0    0  0.15768991808E+03 -0.45070715031E+02  0.27592800783E+03  0.33026131061E+03  0.77709640086E+02 0.  0.
    5000000    2    1    2    0    0 -0.15768991808E+03  0.45070715031E+02  0.20877393539E+03  0.65611646138E+03  0.60000397930E+03 0.  0.
        -24    2    4    4    0    0  0.99790549794E+02  0.24260081697E+03  0.25765210753E+02  0.27465801124E+03  0.77200173775E+02 0.  0.
         24    2    4    4    0    0 -0.25748046787E+03 -0.19753010193E+03  0.18300872464E+03  0.38145845014E+03  0.81878100757E+02 0.  0.
         11    1    5    5    0    0 -0.10835317271E+02  0.20867244808E+02 -0.74017660739E+01  0.24650195684E+02  0.00000000000E+00 0. -1.
        -12    1    5    5    0    0  0.11062586707E+03  0.22173357216E+03  0.33166976827E+02  0.25000781555E+03  0.00000000000E+00 0.  1.
         11    1    3    3    0    0  0.14029471478E+03 -0.14000836161E+02  0.24689941247E+03  0.28432015456E+03  0.00000000000E+00 0. -1.
        -12    1    3    3    0    0  0.17395203301E+02 -0.31069878870E+02  0.29028595358E+02  0.45941156052E+02  0.00000000000E+00 0.  1.
          4    1    6    6  502    0 -0.10495472068E+03 -0.81164504802E+02  0.12173979410E+03  0.18006595375E+03  0.00000000000E+00 0. -1.
         -3    1    6    6    0  502 -0.15252574719E+03 -0.11636559713E+03  0.61268930540E+02  0.20139249639E+03  0.00000000000E+00 0.  1.
<mgrwt>
<rscale>  0 0.38621684E+03</rscale>
<asrwt>0</asrwt>
<pdfrwt beam="1">  1        1 0.11315998E+00 0.38621684E+03</pdfrwt>
<pdfrwt beam="2">  1       -2 0.38590449E-01 0.38621684E+03</pdfrwt>
<totfact> 0.14640343E+02</totfact>
</mgrwt>
</event>
<event>
12    3  0.2269558E-007  0.3972845E+03  0.7818608E-02  0.1044724E+00
          1   -1    0    0  501    0  0.00000000000E+00  0.00000000000E+00  0.49116749925E+03  0.49116749925E+03  0.00000000000E+00 0. -1.
         -2   -1    0    0    0  501 -0.00000000000E+00 -0.00000000000E+00 -0.49219537317E+03  0.49219537317E+03  0.00000000000E+00 0.  1.
        -24    2    1    2    0    0  0.24905090321E+03  0.16341034539E+03  0.41946664365E+02  0.31204417266E+03  0.82962338842E+02 0.  0.
    5000000    2    1    2    0    0 -0.24905090321E+03 -0.16341034539E+03 -0.42974538285E+02  0.67131869976E+03  0.60007723865E+03 0.  0.
        -24    2    4    4    0    0 -0.98908373859E+02  0.11077707723E+03 -0.23988092191E+03  0.29338210750E+03  0.80472212895E+02 0.  0.
         24    2    4    4    0    0 -0.15014252935E+03 -0.27418742262E+03  0.19690638363E+03  0.37793659226E+03  0.79639324523E+02 0.  0.
         11    1    5    5    0    0 -0.88166230888E+02  0.43098173148E+02 -0.11721133793E+03  0.15286999227E+03  0.00000000000E+00 0. -1.
        -12    1    5    5    0    0 -0.10742142970E+02  0.67678904082E+02 -0.12266958398E+03  0.14051211523E+03  0.00000000000E+00 0.  1.
         13    1    3    3    0    0  0.91052198550E+02  0.10221549825E+03  0.39941575655E+02  0.14259677559E+03  0.00000000000E+00 0. -1.
        -14    1    3    3    0    0  0.15799870466E+03  0.61194847142E+02  0.20050887102E+01  0.16944739706E+03  0.00000000000E+00 0.  1.
          2    1    6    6  502    0 -0.88198339203E+02 -0.84916299027E+02  0.60620200225E+02  0.13661820360E+03  0.00000000000E+00 0. -1.
         -1    1    6    6    0  502 -0.61944190149E+02 -0.18927112360E+03  0.13628618340E+03  0.24131838866E+03  0.00000000000E+00 0.  1.
<mgrwt>
<rscale>  0 0.39728448E+03</rscale>
<asrwt>0</asrwt>
<pdfrwt beam="1">  1        1 0.75564231E-01 0.39728448E+03</pdfrwt>
<pdfrwt beam="2">  1       -2 0.75722365E-01 0.39728448E+03</pdfrwt>
<totfact> 0.65049938E+01</totfact>
</mgrwt>
</event>
<event>
12    3  0.2269558E-007  0.1315647E+04  0.7818608E-02  0.9017248E-01
         -2   -1    0    0    0  501 -0.00000000000E+00  0.00000000000E+00  0.20087453374E+04  0.20087453374E+04  0.00000000000E+00 0.  1.
          1   -1    0    0  501    0  0.00000000000E+00 -0.00000000000E+00 -0.95806623876E+03  0.95806623876E+03  0.00000000000E+00 0. -1.
        -24    2    1    2    0    0 -0.12864369156E+04  0.19864871726E+03  0.25970192965E+03  0.13297157070E+04  0.79482818774E+02 0.  0.
    5000000    2    1    2    0    0  0.12864369156E+04 -0.19864871726E+03  0.79097716899E+03  0.16370958692E+04  0.60004729169E+03 0.  0.
        -24    2    4    4    0    0  0.49798059659E+03  0.44832620820E+02  0.60199413886E+03  0.78697001996E+03  0.83248006735E+02 0.  0.
         24    2    4    4    0    0  0.78845631902E+03 -0.24348133808E+03  0.18898303013E+03  0.85012584920E+03  0.77800030909E+02 0.  0.
         11    1    3    3    0    0 -0.68472837604E+03  0.79984853284E+02  0.10638405929E+03  0.69754433105E+03  0.00000000000E+00 0. -1.
        -12    1    3    3    0    0 -0.60170853957E+03  0.11866386397E+03  0.15331787037E+03  0.63217137596E+03  0.00000000000E+00 0.  1.
         11    1    5    5    0    0  0.61816204716E+02  0.18890544720E+02  0.12075985413E+03  0.13697093930E+03  0.00000000000E+00 0. -1.
        -12    1    5    5    0    0  0.43616439187E+03  0.25942076100E+02  0.48123428474E+03  0.64999908066E+03  0.00000000000E+00 0.  1.
          4    1    6    6  502    0  0.53192448521E+03 -0.13699126599E+03  0.98807226961E+02  0.55809778088E+03  0.00000000000E+00 0. -1.
         -3    1    6    6    0  502  0.25653183381E+03 -0.10649007208E+03  0.90175803165E+02  0.29202806832E+03  0.00000000000E+00 0.  1.
<mgrwt>
<rscale>  0 0.13156468E+04</rscale>
<asrwt>0</asrwt>
<pdfrwt beam="1">  1        1 0.14739481E+00 0.13156468E+04</pdfrwt>
<pdfrwt beam="2">  1       -2 0.30903774E+00 0.13156468E+04</pdfrwt>
<totfact> 0.38794642E-01</totfact>
</mgrwt>
</event>
<event>
12    3  0.2269558E-007  0.6488766E+03  0.7818608E-02  0.9808889E-01
          1   -1    0    0  501    0  0.00000000000E+00  0.00000000000E+00  0.12308861235E+04  0.12308861235E+04  0.00000000000E+00 0. -1.
         -2   -1    0    0    0  501 -0.00000000000E+00 -0.00000000000E+00 -0.59521157141E+03  0.59521157141E+03  0.00000000000E+00 0.  1.
        -24    2    1    2    0    0  0.22673996584E+03  0.46338918685E+03 -0.29889240083E+03  0.60154189601E+03  0.79846319746E+02 0.  0.
    5000000    2    1    2    0    0 -0.22673996584E+03 -0.46338918685E+03  0.93456695292E+03  0.12245557989E+04  0.59998413691E+03 0.  0.
        -24    2    4    4    0    0 -0.30855488167E+03 -0.92559296521E+01  0.44594990614E+03  0.54821693740E+03  0.79866791767E+02 0.  0.
         24    2    4    4    0    0  0.81814915827E+02 -0.45413325720E+03  0.48861704678E+03  0.67633886151E+03  0.75874511095E+02 0.  0.
         11    1    5    5    0    0 -0.25900242915E+03  0.21968824151E+02  0.37366607803E+03  0.45518262864E+03  0.00000000000E+00 0. -1.
        -12    1    5    5    0    0 -0.49552452513E+02 -0.31224753803E+02  0.72283828114E+02  0.93034308762E+02  0.00000000000E+00 0.  1.
         13    1    3    3    0    0  0.13609263202E+03  0.27642961800E+03 -0.22297100978E+03  0.38032960626E+03  0.00000000000E+00 0. -1.
        -14    1    3    3    0    0  0.90647333824E+02  0.18695956886E+03 -0.75921391044E+02  0.22121228974E+03  0.00000000000E+00 0.  1.
          4    1    6    6  502    0  0.51454934881E+02 -0.37653486682E+03  0.36261543479E+03  0.52527713619E+03  0.00000000000E+00 0. -1.
         -3    1    6    6    0  502  0.30359980946E+02 -0.77598390387E+02  0.12600161199E+03  0.15106172532E+03  0.00000000000E+00 0.  1.
<mgrwt>
<rscale>  0 0.64887659E+03</rscale>
<asrwt>0</asrwt>
<pdfrwt beam="1">  1        1 0.18936709E+00 0.64887659E+03</pdfrwt>
<pdfrwt beam="2">  1       -2 0.91571012E-01 0.64887659E+03</pdfrwt>
<totfact> 0.94154512E+00</totfact>
</mgrwt>
</event>
<event>
12    3  0.2269558E-007  0.1054503E+04  0.7818608E-02  0.9250708E-01
          1   -1    0    0  501    0  0.00000000000E+00  0.00000000000E+00  0.21939872717E+04  0.21939872717E+04  0.00000000000E+00 0. -1.
         -2   -1    0    0    0  501 -0.00000000000E+00 -0.00000000000E+00 -0.93041403568E+03  0.93041403568E+03  0.00000000000E+00 0.  1.
        -24    2    1    2    0    0  0.66817198314E+03 -0.81214839094E+03  0.15552808342E+04  0.18790232036E+04  0.76098084655E+02 0.  0.
    5000000    2    1    2    0    0 -0.66817198314E+03  0.81214839094E+03 -0.29170759824E+03  0.12453781037E+04  0.59986205949E+03 0.  0.
        -24    2    4    4    0    0 -0.36796971654E+03  0.44134548199E+03  0.14059676976E+03  0.59681995661E+03  0.78987734359E+02 0.  0.
         24    2    4    4    0    0 -0.30020226659E+03  0.37080290895E+03 -0.43230436800E+03  0.64855814711E+03  0.78258580655E+02 0.  0.
         11    1    3    3    0    0  0.37416606820E+03 -0.39526195501E+03  0.79573534069E+03  0.96406793956E+03  0.00000000000E+00 0. -1.
        -12    1    3    3    0    0  0.29400591494E+03 -0.41688643593E+03  0.75954549356E+03  0.91495526408E+03  0.00000000000E+00 0.  1.
         13    1    5    5    0    0 -0.23435304696E+03  0.26142416146E+03  0.48086532311E+02  0.35436740455E+03  0.00000000000E+00 0. -1.
        -14    1    5    5    0    0 -0.13361666959E+03  0.17992132053E+03  0.92510237446E+02  0.24245255207E+03  0.00000000000E+00 0.  1.
          4    1    6    6  502    0 -0.14277377333E+02  0.50317713726E+01 -0.15094145370E+01  0.15213170574E+02  0.00000000000E+00 0. -1.
         -3    1    6    6    0  502 -0.28592488926E+03  0.36577113757E+03 -0.43079495346E+03  0.63334497654E+03  0.00000000000E+00 0.  1.
<mgrwt>
<rscale>  0 0.10545026E+04</rscale>
<asrwt>0</asrwt>
<pdfrwt beam="1">  1        1 0.33753650E+00 0.10545026E+04</pdfrwt>
<pdfrwt beam="2">  1       -2 0.14314062E+00 0.10545026E+04</pdfrwt>
<totfact> 0.65292955E-01</totfact>
</mgrwt>
</event>
<event>
12    3  0.2269558E-007  0.6249559E+03  0.7818608E-02  0.9854942E-01
          1   -1    0    0  501    0  0.00000000000E+00  0.00000000000E+00  0.34825089900E+04  0.34825089900E+04  0.00000000000E+00 0. -1.
         -2   -1    0    0    0  501 -0.00000000000E+00 -0.00000000000E+00 -0.13385785548E+03  0.13385785548E+03  0.00000000000E+00 0.  1.
        -24    2    1    2    0    0 -0.89425036138E+02 -0.51873850152E+03  0.96702680664E+03  0.11045436046E+04  0.88256782613E+02 0.  0.
    5000000    2    1    2    0    0  0.89425036138E+02  0.51873850152E+03  0.23816243279E+04  0.25118232409E+04  0.60002923610E+03 0.  0.
        -24    2    4    4    0    0  0.68718537452E+02  0.59914705489E+03  0.22754104924E+04  0.23553274443E+04  0.79843785708E+02 0.  0.
         24    2    4    4    0    0  0.20706498686E+02 -0.80408553373E+02  0.10621383546E+03  0.15649579656E+03  0.79468616162E+02 0.  0.
         11    1    3    3    0    0 -0.81404004448E+02 -0.22312942166E+03  0.40696937659E+03  0.47120847216E+03  0.00000000000E+00 0. -1.
        -12    1    3    3    0    0 -0.80210316897E+01 -0.29560907986E+03  0.56005743005E+03  0.63333513245E+03  0.00000000000E+00 0.  1.
         13    1    5    5    0    0  0.85656817610E+02  0.51159123108E+03  0.19723433040E+04  0.20394118728E+04  0.00000000000E+00 0. -1.
        -14    1    5    5    0    0 -0.16938280158E+02  0.87555823810E+02  0.30306718841E+03  0.31591557148E+03  0.00000000000E+00 0.  1.
          2    1    6    6  502    0 -0.20737784320E+02 -0.58164561042E+02  0.84578892636E+02  0.10472230392E+03  0.00000000000E+00 0. -1.
         -1    1    6    6    0  502  0.41444283006E+02 -0.22243992331E+02  0.21634942821E+02  0.51773492635E+02  0.00000000000E+00 0.  1.
<mgrwt>
<rscale>  0 0.62495592E+03</rscale>
<asrwt>0</asrwt>
<pdfrwt beam="1">  1        1 0.53577055E+00 0.62495592E+03</pdfrwt>
<pdfrwt beam="2">  1       -2 0.20593519E-01 0.62495592E+03</pdfrwt>
<totfact> 0.50771408E+00</totfact>
</mgrwt>
</event>
<event>
12    3  0.2269558E-007  0.8484349E+03  0.7818608E-02  0.9492440E-01
          1   -1    0    0  501    0  0.00000000000E+00  0.00000000000E+00  0.17242001089E+04  0.17242001089E+04  0.00000000000E+00 0. -1.
         -2   -1    0    0    0  501 -0.00000000000E+00 -0.00000000000E+00 -0.49844026659E+03  0.49844026659E+03  0.00000000000E+00 0.  1.
        -24    2    1    2    0    0 -0.12521822236E+03 -0.75808431398E+03  0.18201227402E+03  0.79452529652E+03  0.88150715224E+02 0.  0.
    5000000    2    1    2    0    0  0.12521822236E+03  0.75808431398E+03  0.10437475682E+04  0.14281150789E+04  0.59977684362E+03 0.  0.
        -24    2    4    4    0    0  0.12285257878E+02  0.78774659708E+03  0.10052832128E+04  0.12797672572E+04  0.80711001889E+02 0.  0.
         24    2    4    4    0    0  0.11293296448E+03 -0.29662283097E+02  0.38464355440E+02  0.14834782176E+03  0.83029296493E+02 0.  0.
         11    1    5    5    0    0 -0.29243247399E+02  0.44335852499E+03  0.53659231099E+03  0.69667299174E+03  0.00000000000E+00 0. -1.
        -12    1    5    5    0    0  0.41528505277E+02  0.34438807209E+03  0.46869090181E+03  0.58309426544E+03  0.00000000000E+00 0.  1.
         11    1    3    3    0    0 -0.12283650881E+03 -0.52777988262E+03  0.14780562926E+03  0.56168222015E+03  0.00000000000E+00 0. -1.
        -12    1    3    3    0    0 -0.23817135483E+01 -0.23030443137E+03  0.34206644755E+02  0.23284307637E+03  0.00000000000E+00 0.  1.
          2    1    6    6  502    0  0.92373446525E+02  0.57092704163E+01  0.52463461905E+00  0.92551200063E+02  0.00000000000E+00 0. -1.
         -1    1    6    6    0  502  0.20559517953E+02 -0.35371553513E+02  0.37939720821E+02  0.55796621693E+02  0.00000000000E+00 0.  1.
<mgrwt>
<rscale>  0 0.84843493E+03</rscale>
<asrwt>0</asrwt>
<pdfrwt beam="1">  1        1 0.26526155E+00 0.84843493E+03</pdfrwt>
<pdfrwt beam="2">  1       -2 0.76683119E-01 0.84843493E+03</pdfrwt>
<totfact> 0.62616007E+00</totfact>
</mgrwt>
</event>
<event>
12    3  0.2269558E-007  0.1035944E+04  0.7818608E-02  0.9269978E-01
          1   -1    0    0  501    0  0.00000000000E+00  0.00000000000E+00  0.20157402826E+04  0.20157402826E+04  0.00000000000E+00 0. -1.
         -2   -1    0    0    0  501 -0.00000000000E+00 -0.00000000000E+00 -0.56683943101E+03  0.56683943101E+03  0.00000000000E+00 0.  1.
        -24    2    1    2    0    0  0.22107777306E+03  0.94614873208E+03  0.49006892970E+03  0.10914808036E+04  0.84202041289E+02 0.  0.
    5000000    2    1    2    0    0 -0.22107777306E+03 -0.94614873208E+03  0.95883192188E+03  0.14910989100E+04  0.59995374828E+03 0.  0.
        -24    2    4    4    0    0 -0.24318271276E+02  0.44720545147E+02  0.21270587853E+03  0.23264578668E+03  0.79303000069E+02 0.  0.
         24    2    4    4    0    0 -0.19675950178E+03 -0.99086927723E+03  0.74612604335E+03  0.12584531233E+04  0.80398787200E+02 0.  0.
         11    1    3    3    0    0  0.62947990247E+02  0.25755956202E+03  0.92645586316E+02  0.28086043176E+03  0.00000000000E+00 0. -1.
        -12    1    3    3    0    0  0.15812978281E+03  0.68858917007E+03  0.39742334339E+03  0.81062037182E+03  0.00000000000E+00 0.  1.
         11    1    5    5    0    0  0.21497010094E+02 -0.17790520060E+01  0.10088658291E+03  0.10316680222E+03  0.00000000000E+00 0. -1.
        -12    1    5    5    0    0 -0.45815281371E+02  0.46499597153E+02  0.11181929562E+03  0.12947898446E+03  0.00000000000E+00 0.  1.
          4    1    6    6  502    0 -0.71568360147E+02 -0.19476827258E+03  0.15633266939E+03  0.25980110411E+03  0.00000000000E+00 0. -1.
         -3    1    6    6    0  502 -0.12519114164E+03 -0.79610100466E+03  0.58979337396E+03  0.99865201924E+03  0.00000000000E+00 0.  1.
<mgrwt>
<rscale>  0 0.10359436E+04</rscale>
<asrwt>0</asrwt>
<pdfrwt beam="1">  1        1 0.31011389E+00 0.10359436E+04</pdfrwt>
<pdfrwt beam="2">  1       -2 0.87206067E-01 0.10359436E+04</pdfrwt>
<totfact> 0.29078695E+00</totfact>
</mgrwt>
</event>
<event>
12    3  0.2269558E-007  0.7347945E+03  0.7818608E-02  0.9659512E-01
          1   -1    0    0  501    0  0.00000000000E+00  0.00000000000E+00  0.60386920958E+03  0.60386920958E+03  0.00000000000E+00 0. -1.
         -2   -1    0    0    0  501 -0.00000000000E+00 -0.00000000000E+00 -0.10167373498E+04  0.10167373498E+04  0.00000000000E+00 0.  1.
        -24    2    1    2    0    0 -0.49188146363E+03 -0.39679376672E+03 -0.39407305841E+03  0.74887740268E+03  0.78301477028E+02 0.  0.
    5000000    2    1    2    0    0  0.49188146363E+03  0.39679376672E+03 -0.18795081788E+02  0.87172915669E+03  0.60013815072E+03 0.  0.
        -24    2    4    4    0    0  0.20724127101E+03 -0.11762780259E+03  0.85278490074E+02  0.26890929352E+03  0.90854515120E+02 0.  0.
         24    2    4    4    0    0  0.28464019262E+03  0.51442156931E+03 -0.10407357186E+03  0.60281986317E+03  0.83131755938E+02 0.  0.
         11    1    3    3    0    0 -0.24272263556E+03 -0.24536653816E+03 -0.22041561639E+03  0.40951441954E+03  0.00000000000E+00 0. -1.
        -12    1    3    3    0    0 -0.24915882807E+03 -0.15142722855E+03 -0.17365744202E+03  0.33936298314E+03  0.00000000000E+00 0.  1.
         13    1    5    5    0    0  0.14506455296E+03 -0.10322287503E+03  0.98874358711E+02  0.20365368955E+03  0.00000000000E+00 0. -1.
        -14    1    5    5    0    0  0.62176718049E+02 -0.14404927561E+02 -0.13595868637E+02  0.65255603969E+02  0.00000000000E+00 0.  1.
          4    1    6    6  502    0  0.22770176349E+03  0.45458656967E+03 -0.10935894338E+03  0.52005424805E+03  0.00000000000E+00 0. -1.
         -3    1    6    6    0  502  0.56938429126E+02  0.59834999643E+02  0.52853715189E+01  0.82765615117E+02  0.00000000000E+00 0.  1.
<mgrwt>
<rscale>  0 0.73479453E+03</rscale>
<asrwt>0</asrwt>
<pdfrwt beam="1">  1        1 0.92902955E-01 0.73479453E+03</pdfrwt>
<pdfrwt beam="2">  1       -2 0.15642113E+00 0.73479453E+03</pdfrwt>
<totfact> 0.81392215E+00</totfact>
</mgrwt>
</event>
<event>
12    3  0.2269558E-007  0.1113212E+04  0.7818608E-02  0.9192410E-01
          1   -1    0    0  501    0  0.00000000000E+00  0.00000000000E+00  0.93581295839E+03  0.93581295839E+03  0.00000000000E+00 0. -1.
         -2   -1    0    0    0  501 -0.00000000000E+00 -0.00000000000E+00 -0.13520553276E+04  0.13520553276E+04  0.00000000000E+00 0.  1.
        -24    2    1    2    0    0 -0.33794418047E+03  0.98594636446E+03 -0.14856342028E+03  0.10558778053E+04  0.80686722217E+02 0.  0.
    5000000    2    1    2    0    0  0.33794418047E+03 -0.98594636446E+03 -0.26767894894E+03  0.12319904807E+04  0.59987667247E+03 0.  0.
        -24    2    4    4    0    0  0.17726101322E+03 -0.99479727302E+03 -0.17115767016E+03  0.10279578346E+04  0.79745097251E+02 0.  0.
         24    2    4    4    0    0  0.16068316725E+03  0.88509085635E+01 -0.96521278784E+02  0.20403264607E+03  0.80097094742E+02 0.  0.
         11    1    5    5    0    0  0.13656377268E+03 -0.59520793130E+03 -0.77950349301E+02  0.61562846137E+03  0.00000000000E+00 0. -1.
        -12    1    5    5    0    0  0.40697240535E+02 -0.39958934172E+03 -0.93207320854E+02  0.41232937328E+03  0.00000000000E+00 0.  1.
         13    1    3    3    0    0 -0.15119361235E+03  0.56439045510E+03 -0.85685718833E+02  0.59054054614E+03  0.00000000000E+00 0. -1.
        -14    1    3    3    0    0 -0.18675056811E+03  0.42155590935E+03 -0.62877701444E+02  0.46533725914E+03  0.00000000000E+00 0.  1.
          2    1    6    6  502    0  0.11951445694E+03 -0.16098713211E+02 -0.34325877211E+02  0.12538396960E+03  0.00000000000E+00 0. -1.
         -1    1    6    6    0  502  0.41168710307E+02  0.24949621774E+02 -0.62195401572E+02  0.78648676478E+02  0.00000000000E+00 0.  1.
<mgrwt>
<rscale>  0 0.11132117E+04</rscale>
<asrwt>0</asrwt>
<pdfrwt beam="1">  1        1 0.14397122E+00 0.11132117E+04</pdfrwt>
<pdfrwt beam="2">  1       -2 0.20800851E+00 0.11132117E+04</pdfrwt>
<totfact> 0.17324426E+00</totfact>
</mgrwt>
</event>
<event>
12    3  0.2269558E-007  0.6500364E+03  0.7818608E-02  0.9806711E-01
          1   -1    0    0  501    0  0.00000000000E+00  0.00000000000E+00  0.77548023857E+03  0.77548023857E+03  0.00000000000E+00 0. -1.
         -2   -1    0    0    0  501 -0.00000000000E+00 -0.00000000000E+00 -0.77728511148E+03  0.77728511148E+03  0.00000000000E+00 0.  1.
        -24    2    1    2    0    0 -0.36782846269E+03  0.43144912612E+03 -0.33404549094E+03  0.66286895761E+03  0.79766776026E+02 0.  0.
    5000000    2    1    2    0    0  0.36782846269E+03 -0.43144912612E+03  0.33224061803E+03  0.88989639245E+03  0.60007135795E+03 0.  0.
        -24    2    4    4    0    0  0.41357491086E+03 -0.15698057239E+03 -0.47950682242E+01  0.44579674040E+03  0.54996673305E+02 0.  0.
         24    2    4    4    0    0 -0.45746448170E+02 -0.27446855373E+03  0.33703568625E+03  0.44409965204E+03  0.78776409109E+02 0.  0.
         11    1    5    5    0    0  0.10293818563E+03 -0.32008114512E+02  0.21535463816E+02  0.10992982151E+03  0.00000000000E+00 0. -1.
        -12    1    5    5    0    0  0.31063672522E+03 -0.12497245788E+03 -0.26330532041E+02  0.33586691889E+03  0.00000000000E+00 0.  1.
         13    1    3    3    0    0 -0.16002345707E+03  0.14940630340E+03 -0.94391631730E+02  0.23841042437E+03  0.00000000000E+00 0. -1.
        -14    1    3    3    0    0 -0.20780500561E+03  0.28204282273E+03 -0.23965385921E+03  0.42445853324E+03  0.00000000000E+00 0.  1.
          2    1    6    6  502    0 -0.79211421865E+01 -0.22855945651E+03  0.28181285104E+03  0.36293339976E+03  0.00000000000E+00 0. -1.
         -1    1    6    6    0  502 -0.37825305984E+02 -0.45909097220E+02  0.55222835212E+02  0.81166252280E+02  0.00000000000E+00 0.  1.
<mgrwt>
<rscale>  0 0.65003635E+03</rscale>
<asrwt>0</asrwt>
<pdfrwt beam="1">  1        1 0.11930465E+00 0.65003635E+03</pdfrwt>
<pdfrwt beam="2">  1       -2 0.11958232E+00 0.65003635E+03</pdfrwt>
<totfact> 0.11267807E+01</totfact>
</mgrwt>
</event>
<event>
12    3  0.2269558E-007  0.8882752E+03  0.7818608E-02  0.9440358E-01
         -2   -1    0    0    0  501 -0.00000000000E+00  0.00000000000E+00  0.42435494140E+03  0.42435494140E+03  0.00000000000E+00 0.  1.
          1   -1    0    0  501    0  0.00000000000E+00 -0.00000000000E+00 -0.19379778685E+04  0.19379778685E+04  0.00000000000E+00 0. -1.
        -24    2    1    2    0    0  0.27052028150E+03  0.75237458105E+03 -0.53901570881E+03  0.96627006706E+03  0.62379285283E+02 0.  0.
    5000000    2    1    2    0    0 -0.27052028150E+03 -0.75237458105E+03 -0.97460721833E+03  0.13960627429E+04  0.59990267472E+03 0.  0.
        -24    2    4    4    0    0 -0.32286021569E+03 -0.81088574678E+03 -0.78939860426E+03  0.11794853206E+04  0.79126808712E+02 0.  0.
         24    2    4    4    0    0  0.52339934186E+02  0.58511165732E+02 -0.18520861407E+03  0.21657742230E+03  0.80252874710E+02 0.  0.
         11    1    5    5    0    0 -0.24214727595E+03 -0.57797190239E+03 -0.61083300757E+03  0.87510215766E+03  0.00000000000E+00 0. -1.
        -12    1    5    5    0    0 -0.80712939738E+02 -0.23291384440E+03 -0.17856559669E+03  0.30438316293E+03  0.00000000000E+00 0.  1.
         13    1    3    3    0    0  0.37220308771E+02  0.56279982584E+02 -0.53323699375E+02  0.86001190339E+02  0.00000000000E+00 0. -1.
        -14    1    3    3    0    0  0.23329997273E+03  0.69609459847E+03 -0.48569200944E+03  0.88026887672E+03  0.00000000000E+00 0.  1.
          4    1    6    6  502    0 -0.14874118574E+02  0.17790290865E+02 -0.90930602458E+02  0.93840866981E+02  0.00000000000E+00 0. -1.
         -3    1    6    6    0  502  0.67214052760E+02  0.40720874867E+02 -0.94278011612E+02  0.12273655532E+03  0.00000000000E+00 0.  1.
<mgrwt>
<rscale>  0 0.88827519E+03</rscale>
<asrwt>0</asrwt>
<pdfrwt beam="1">  1        1 0.29815044E+00 0.88827519E+03</pdfrwt>
<pdfrwt beam="2">  1       -2 0.65285376E-01 0.88827519E+03</pdfrwt>
<totfact> 0.63674549E+00</totfact>
</mgrwt>
</event>
<event>
12    3  0.2269558E-007  0.4049609E+03  0.7818608E-02  0.1042075E+00
          1   -1    0    0  501    0  0.00000000000E+00  0.00000000000E+00  0.23248517103E+04  0.23248517103E+04  0.00000000000E+00 0. -1.
         -2   -1    0    0    0  501 -0.00000000000E+00 -0.00000000000E+00 -0.13452255088E+03  0.13452255088E+03  0.00000000000E+00 0.  1.
        -24    2    1    2    0    0  0.32678827444E+03 -0.14772112489E+03  0.43258078422E+03  0.56766607353E+03  0.80663059166E+02 0.  0.
    5000000    2    1    2    0    0 -0.32678827444E+03  0.14772112489E+03  0.17577483752E+04  0.18917081876E+04  0.60022363301E+03 0.  0.
        -24    2    4    4    0    0 -0.80010299670E+02  0.17443531810E+03  0.15364389011E+04  0.15502616190E+04  0.76401978400E+02 0.  0.
         24    2    4    4    0    0 -0.24677797477E+03 -0.26714193207E+02  0.22130947403E+03  0.34144656857E+03  0.77426474426E+02 0.  0.
         11    1    3    3    0    0  0.17758710837E+03 -0.12150777097E+03  0.23389627033E+03  0.31781879231E+03  0.00000000000E+00 0. -1.
        -12    1    3    3    0    0  0.14920116606E+03 -0.26213353926E+02  0.19868451389E+03  0.24984728123E+03  0.00000000000E+00 0.  1.
         13    1    5    5    0    0 -0.71931401956E+02  0.12660433430E+03  0.87378874737E+03  0.88583833687E+03  0.00000000000E+00 0. -1.
        -14    1    5    5    0    0 -0.80788977136E+01  0.47830983801E+02  0.66265015376E+03  0.66442328216E+03  0.00000000000E+00 0.  1.
          2    1    6    6  502    0 -0.16941430576E+03 -0.83259738240E+01  0.19323020499E+03  0.25711561787E+03  0.00000000000E+00 0. -1.
         -1    1    6    6    0  502 -0.77363669010E+02 -0.18388219383E+02  0.28079269041E+02  0.84330950692E+02  0.00000000000E+00 0.  1.
<mgrwt>
<rscale>  0 0.40496088E+03</rscale>
<asrwt>0</asrwt>
<pdfrwt beam="1">  1        1 0.35766946E+00 0.40496088E+03</pdfrwt>
<pdfrwt beam="2">  1       -2 0.20695779E-01 0.40496088E+03</pdfrwt>
<totfact> 0.34904427E+01</totfact>
</mgrwt>
</event>
<event>
12    3  0.2269558E-007  0.6969738E+03  0.7818608E-02  0.9722421E-01
         -2   -1    0    0    0  501 -0.00000000000E+00  0.00000000000E+00  0.23278017036E+03  0.23278017036E+03  0.00000000000E+00 0.  1.
          1   -1    0    0  501    0  0.00000000000E+00 -0.00000000000E+00 -0.23348424813E+04  0.23348424813E+04  0.00000000000E+00 0. -1.
        -24    2    1    2    0    0  0.60010110700E+02  0.60873053736E+03 -0.83580470808E+03  0.10387414864E+04  0.79121963121E+02 0.  0.
    5000000    2    1    2    0    0 -0.60010110700E+02 -0.60873053736E+03 -0.12662576028E+04  0.15288811652E+04  0.59992934592E+03 0.  0.
        -24    2    4    4    0    0 -0.24498778827E+03 -0.18395120920E+03 -0.23228536664E+03  0.39244171841E+03  0.78720689951E+02 0.  0.
         24    2    4    4    0    0  0.18497767757E+03 -0.42477932817E+03 -0.10339722362E+04  0.11364394468E+04  0.87987568385E+02 0.  0.
         11    1    3    3    0    0  0.66400042616E+02  0.38597372760E+03 -0.57481070049E+03  0.69555159798E+03  0.00000000000E+00 0. -1.
        -12    1    3    3    0    0 -0.63899319167E+01  0.22275680976E+03 -0.26099400759E+03  0.34318988843E+03  0.00000000000E+00 0.  1.
         13    1    5    5    0    0 -0.13364288829E+03 -0.70584274619E+02 -0.74472988063E+02  0.16848972480E+03  0.00000000000E+00 0. -1.
        -14    1    5    5    0    0 -0.11134489998E+03 -0.11336693458E+03 -0.15781237858E+03  0.22395199361E+03  0.00000000000E+00 0.  1.
          4    1    6    6  502    0  0.14821867467E+03 -0.24850626251E+03 -0.58324410727E+03  0.65107436342E+03  0.00000000000E+00 0. -1.
         -3    1    6    6    0  502  0.36759002899E+02 -0.17627306566E+03 -0.45072812892E+03  0.48536508338E+03  0.00000000000E+00 0.  1.
<mgrwt>
<rscale>  0 0.69697377E+03</rscale>
<asrwt>0</asrwt>
<pdfrwt beam="1">  1        1 0.35920652E+00 0.69697377E+03</pdfrwt>
<pdfrwt beam="2">  1       -2 0.35812335E-01 0.69697377E+03</pdfrwt>
<totfact> 0.11965975E+01</totfact>
</mgrwt>
</event>
<event>
12    3  0.2269558E-007  0.7402342E+03  0.7818608E-02  0.9650797E-01
         -2   -1    0    0    0  501 -0.00000000000E+00  0.00000000000E+00  0.79015467892E+03  0.79015467892E+03  0.00000000000E+00 0.  1.
          1   -1    0    0  501    0  0.00000000000E+00 -0.00000000000E+00 -0.10988253719E+04  0.10988253719E+04  0.00000000000E+00 0. -1.
        -24    2    1    2    0    0  0.60625849557E+03 -0.17875777614E+03 -0.68877995023E+03  0.93834199873E+03  0.81019631890E+02 0.  0.
    5000000    2    1    2    0    0 -0.60625849557E+03  0.17875777614E+03  0.38010925729E+03  0.95063805206E+03  0.59977158366E+03 0.  0.
        -24    2    4    4    0    0  0.14326509865E+02  0.21144536446E+03  0.18775260708E+03  0.29542173493E+03  0.84312329847E+02 0.  0.
         24    2    4    4    0    0 -0.62058500543E+03 -0.32687588324E+02  0.19235665022E+03  0.65521631714E+03  0.78186405236E+02 0.  0.
         13    1    5    5    0    0  0.43788883964E+02  0.77629959440E+02  0.93111466032E+02  0.12889384030E+03  0.00000000000E+00 0. -1.
        -14    1    5    5    0    0 -0.29462374099E+02  0.13381540502E+03  0.94641141047E+02  0.16652789462E+03  0.00000000000E+00 0.  1.
         13    1    3    3    0    0  0.14460413770E+03 -0.54174622335E+02 -0.12198571558E+03  0.19678862048E+03  0.00000000000E+00 0. -1.
        -14    1    3    3    0    0  0.46165435786E+03 -0.12458315380E+03 -0.56679423466E+03  0.74155337825E+03  0.00000000000E+00 0.  1.
          2    1    6    6  502    0 -0.15976630764E+03 -0.16680887280E+02  0.15557542155E+02  0.16138637544E+03  0.00000000000E+00 0. -1.
         -1    1    6    6    0  502 -0.46081869779E+03 -0.16006701044E+02  0.17679910806E+03  0.49382994170E+03  0.00000000000E+00 0.  1.
<mgrwt>
<rscale>  0 0.74023420E+03</rscale>
<asrwt>0</asrwt>
<pdfrwt beam="1">  1        1 0.16905006E+00 0.74023420E+03</pdfrwt>
<pdfrwt beam="2">  1       -2 0.12156226E+00 0.74023420E+03</pdfrwt>
<totfact> 0.58853474E+00</totfact>
</mgrwt>
</event>
<event>
12    3  0.2269558E-007  0.7692553E+03  0.7818608E-02  0.9605617E-01
          1   -1    0    0  501    0  0.00000000000E+00  0.00000000000E+00  0.14836093543E+04  0.14836093543E+04  0.00000000000E+00 0. -1.
         -2   -1    0    0    0  501 -0.00000000000E+00 -0.00000000000E+00 -0.47661015266E+03  0.47661015266E+03  0.00000000000E+00 0.  1.
        -24    2    1    2    0    0 -0.19261508088E+03 -0.67866991246E+03  0.66602738363E+03  0.97335179129E+03  0.78280357659E+02 0.  0.
    5000000    2    1    2    0    0  0.19261508088E+03  0.67866991246E+03  0.34097181800E+03  0.98686771567E+03  0.59996057212E+03 0.  0.
        -24    2    4    4    0    0 -0.13781529201E+03  0.27084517490E+03 -0.63237670526E+02  0.31934102238E+03  0.75030141450E+02 0.  0.
         24    2    4    4    0    0  0.33043037288E+03  0.40782473756E+03  0.40420948852E+03  0.66752669328E+03  0.81861637817E+02 0.  0.
         11    1    3    3    0    0 -0.15729158626E+03 -0.46033689373E+03  0.49232335693E+03  0.69212208938E+03  0.00000000000E+00 0. -1.
        -12    1    3    3    0    0 -0.35323494620E+02 -0.21833301873E+03  0.17370402671E+03  0.28122970190E+03  0.00000000000E+00 0.  1.
         13    1    5    5    0    0 -0.74271127532E+02  0.13054104867E+03  0.63564847361E+01  0.15032488374E+03  0.00000000000E+00 0. -1.
        -14    1    5    5    0    0 -0.63544164473E+02  0.14030412623E+03 -0.69594155262E+02  0.16901613865E+03  0.00000000000E+00 0.  1.
          4    1    6    6  502    0  0.79595988694E+02  0.12927160251E+03  0.15764657599E+03  0.21885865657E+03  0.00000000000E+00 0. -1.
         -3    1    6    6    0  502  0.25083438419E+03  0.27855313505E+03  0.24656291253E+03  0.44866803672E+03  0.00000000000E+00 0.  1.
<mgrwt>
<rscale>  0 0.76925533E+03</rscale>
<asrwt>0</asrwt>
<pdfrwt beam="1">  1        1 0.22824759E+00 0.76925533E+03</pdfrwt>
<pdfrwt beam="2">  1       -2 0.73324639E-01 0.76925533E+03</pdfrwt>
<totfact> 0.10182053E+01</totfact>
</mgrwt>
</event>
<event>
12    3  0.2269558E-007  0.6486285E+03  0.7818608E-02  0.9809356E-01
          1   -1    0    0  501    0  0.00000000000E+00  0.00000000000E+00  0.21408538383E+04  0.21408538383E+04  0.00000000000E+00 0. -1.
         -2   -1    0    0    0  501 -0.00000000000E+00 -0.00000000000E+00 -0.20834834064E+03  0.20834834064E+03  0.00000000000E+00 0.  1.
        -24    2    1    2    0    0 -0.50109938780E+02  0.52570181950E+03  0.84260843110E+03  0.99757245594E+03  0.79299607161E+02 0.  0.
    5000000    2    1    2    0    0  0.50109938780E+02 -0.52570181950E+03  0.10898970666E+04  0.13516297231E+04  0.60012822251E+03 0.  0.
        -24    2    4    4    0    0 -0.28139746191E+02  0.10360499503E+03  0.33898083266E+03  0.36483564395E+03  0.81677425707E+02 0.  0.
         24    2    4    4    0    0  0.78249684971E+02 -0.62930681453E+03  0.75091623394E+03  0.98679407911E+03  0.87961833494E+02 0.  0.
         11    1    3    3    0    0  0.45513512938E+01  0.69010375954E+02  0.16173171146E+03  0.17589853120E+03  0.00000000000E+00 0. -1.
        -12    1    3    3    0    0 -0.54661290074E+02  0.45669144355E+03  0.68087671964E+03  0.82167392473E+03  0.00000000000E+00 0.  1.
         13    1    5    5    0    0  0.24737002127E+02  0.59874242514E+02  0.19180819553E+03  0.20245302681E+03  0.00000000000E+00 0. -1.
        -14    1    5    5    0    0 -0.52876748318E+02  0.43730752513E+02  0.14717263713E+03  0.16238261713E+03  0.00000000000E+00 0.  1.
          4    1    6    6  502    0  0.11434578323E+02 -0.38206149960E+02  0.84886876205E+02  0.93788278735E+02  0.00000000000E+00 0. -1.
         -3    1    6    6    0  502  0.66815106648E+02 -0.59110066457E+03  0.66602935774E+03  0.89300580037E+03  0.00000000000E+00 0.  1.
<mgrwt>
<rscale>  0 0.64862855E+03</rscale>
<asrwt>0</asrwt>
<pdfrwt beam="1">  1        1 0.32936211E+00 0.64862855E+03</pdfrwt>
<pdfrwt beam="2">  1       -2 0.32053592E-01 0.64862855E+03</pdfrwt>
<totfact> 0.20067137E+01</totfact>
</mgrwt>
</event>
<event>
12    3  0.2269558E-007  0.1080436E+04  0.7818608E-02  0.9224473E-01
         -2   -1    0    0    0  501 -0.00000000000E+00  0.00000000000E+00  0.55464006304E+03  0.55464006304E+03  0.00000000000E+00 0.  1.
          1   -1    0    0  501    0  0.00000000000E+00 -0.00000000000E+00 -0.22442885000E+04  0.22442885000E+04  0.00000000000E+00 0. -1.
        -24    2    1    2    0    0 -0.98220192674E+03  0.24713068751E+03 -0.52745052910E+03  0.11446803716E+04  0.79340348844E+02 0.  0.
    5000000    2    1    2    0    0  0.98220192674E+03 -0.24713068751E+03 -0.11621979079E+04  0.16542481914E+04  0.60003241591E+03 0.  0.
        -24    2    4    4    0    0  0.91600286870E+03 -0.38242734446E+03 -0.90367567866E+03  0.13448110756E+04  0.81087407276E+02 0.  0.
         24    2    4    4    0    0  0.66199058047E+02  0.13529665695E+03 -0.25852222925E+03  0.30943711584E+03  0.78930887330E+02 0.  0.
         11    1    5    5    0    0  0.75785832803E+03 -0.28257439285E+03 -0.74058072298E+03  0.10966573485E+04  0.00000000000E+00 0. -1.
        -12    1    5    5    0    0  0.15814454067E+03 -0.99852951612E+02 -0.16309495569E+03  0.24815372707E+03  0.00000000000E+00 0.  1.
         13    1    3    3    0    0 -0.24735545990E+03  0.54767111191E+02 -0.94805161918E+02  0.27050356511E+03  0.00000000000E+00 0. -1.
        -14    1    3    3    0    0 -0.73484646685E+03  0.19236357632E+03 -0.43264536718E+03  0.87417680653E+03  0.00000000000E+00 0.  1.
          4    1    6    6  502    0  0.53659481485E+02  0.12429268816E+03 -0.16034995830E+03  0.20985738350E+03  0.00000000000E+00 0. -1.
         -3    1    6    6    0  502  0.12539576563E+02  0.11003968796E+02 -0.98172270953E+02  0.99579732344E+02  0.00000000000E+00 0.  1.
<mgrwt>
<rscale>  0 0.10804361E+04</rscale>
<asrwt>0</asrwt>
<pdfrwt beam="1">  1        1 0.34527515E+00 0.10804361E+04</pdfrwt>
<pdfrwt beam="2">  1       -2 0.85329241E-01 0.10804361E+04</pdfrwt>
<totfact> 0.21304924E+00</totfact>
</mgrwt>
</event>
<event>
12    3  0.2269558E-007  0.5957999E+03  0.7818608E-02  0.9914158E-01
         -2   -1    0    0    0  501 -0.00000000000E+00  0.00000000000E+00  0.37608534885E+03  0.37608534885E+03  0.00000000000E+00 0.  1.
          1   -1    0    0  501    0  0.00000000000E+00 -0.00000000000E+00 -0.19853223626E+04  0.19853223626E+04  0.00000000000E+00 0. -1.
        -24    2    1    2    0    0 -0.25257028196E+02  0.57835180174E+03 -0.41968345435E+02  0.58615985684E+03  0.81812662303E+02 0.  0.
    5000000    2    1    2    0    0  0.25257028196E+02 -0.57835180174E+03 -0.15672686683E+04  0.17752478546E+04  0.60003761761E+03 0.  0.
        -24    2    4    4    0    0 -0.45439918560E+02 -0.29947291922E+03 -0.19111800232E+03  0.36707342472E+03  0.80423832159E+02 0.  0.
         24    2    4    4    0    0  0.70696946757E+02 -0.27887888252E+03 -0.13761506659E+04  0.14081744298E+04  0.79956738853E+02 0.  0.
         11    1    5    5    0    0 -0.80056758681E+01  0.47509159853E+00  0.21388046850E+01  0.83000628680E+01  0.00000000000E+00 0. -1.
        -12    1    5    5    0    0 -0.37434242692E+02 -0.29994801081E+03 -0.19325680701E+03  0.35877336185E+03  0.00000000000E+00 0.  1.
         11    1    3    3    0    0  0.25517781564E+02  0.32776368379E+03 -0.31573770447E+02  0.33026821308E+03  0.00000000000E+00 0. -1.
        -12    1    3    3    0    0 -0.50774809761E+02  0.25058811794E+03 -0.10394574988E+02  0.25589164377E+03  0.00000000000E+00 0.  1.
          2    1    6    6  502    0  0.51552629618E+02 -0.69065579928E+02 -0.47174707663E+03  0.47955503570E+03  0.00000000000E+00 0. -1.
         -1    1    6    6    0  502  0.19144317139E+02 -0.20981330259E+03 -0.90440358931E+03  0.92861939415E+03  0.00000000000E+00 0.  1.
<mgrwt>
<rscale>  0 0.59579990E+03</rscale>
<asrwt>0</asrwt>
<pdfrwt beam="1">  1        1 0.30543420E+00 0.59579990E+03</pdfrwt>
<pdfrwt beam="2">  1       -2 0.57859286E-01 0.59579990E+03</pdfrwt>
<totfact> 0.80080520E+00</totfact>
</mgrwt>
</event>
<event>
12    3  0.2813767E-007  0.1354854E+04  0.7818608E-02  0.8987162E-01
         -2   -1    0    0    0  501 -0.00000000000E+00  0.00000000000E+00  0.11109503544E+04  0.11109503544E+04  0.00000000000E+00 0.  1.
          1   -1    0    0  501    0  0.00000000000E+00 -0.00000000000E+00 -0.18749550391E+04  0.18749550391E+04  0.00000000000E+00 0. -1.
        -24    2    1    2    0    0  0.71907331991E+03  0.11261710884E+04 -0.72133059022E+03  0.15205723461E+04  0.80589575128E+02 0.  0.
    5000000    2    1    2    0    0 -0.71907331991E+03 -0.11261710884E+04 -0.42674094488E+02  0.14653330473E+04  0.60004341620E+03 0.  0.
        -24    2    4    4    0    0 -0.32985920240E+03 -0.77561288370E+03 -0.27085103719E+03  0.88892110237E+03  0.80237168018E+02 0.  0.
         24    2    4    4    0    0 -0.38921411751E+03 -0.35055820475E+03  0.22817694270E+03  0.57641194493E+03  0.76205832424E+02 0.  0.
         11    1    3    3    0    0  0.43705797298E+03  0.72850610115E+03 -0.42320404332E+03  0.94912721668E+03  0.00000000000E+00 0. -1.
        -12    1    3    3    0    0  0.28201534693E+03  0.39766498729E+03 -0.29812654690E+03  0.57144512946E+03  0.00000000000E+00 0.  1.
         13    1    5    5    0    0 -0.10341383731E+03 -0.33382871309E+03 -0.93707398437E+02  0.36182469229E+03  0.00000000000E+00 0. -1.
        -14    1    5    5    0    0 -0.22644536509E+03 -0.44178417061E+03 -0.17714363875E+03  0.52709641008E+03  0.00000000000E+00 0.  1.
          2    1    6    6  502    0 -0.19513962623E+03 -0.13870548381E+03  0.13224988734E+03  0.27351182363E+03  0.00000000000E+00 0. -1.
         -1    1    6    6    0  502 -0.19407449129E+03 -0.21185272094E+03  0.95927055353E+02  0.30290012130E+03  0.00000000000E+00 0.  1.
<mgrwt>
<rscale>  0 0.13548537E+04</rscale>
<asrwt>0</asrwt>
<pdfrwt beam="1">  1        1 0.28845462E+00 0.13548537E+04</pdfrwt>
<pdfrwt beam="2">  1       -2 0.17091544E+00 0.13548537E+04</pdfrwt>
<totfact> 0.63961603E-01</totfact>
</mgrwt>
</event>
<event>
12    3  0.2269558E-007  0.4792542E+03  0.7818608E-02  0.1019340E+00
         -2   -1    0    0    0  501 -0.00000000000E+00  0.00000000000E+00  0.10043351968E+04  0.10043351968E+04  0.00000000000E+00 0.  1.
          1   -1    0    0  501    0  0.00000000000E+00 -0.00000000000E+00 -0.34931677144E+03  0.34931677144E+03  0.00000000000E+00 0. -1.
        -24    2    1    2    0    0 -0.42142386949E+02  0.43046989067E+03  0.18290417451E+03  0.47609857396E+03  0.78330118828E+02 0.  0.
    5000000    2    1    2    0    0  0.42142386949E+02 -0.43046989067E+03  0.47211425080E+03  0.87755339424E+03  0.60010647920E+03 0.  0.
        -24    2    4    4    0    0  0.14365562727E+03 -0.17267654513E+03  0.53221333149E+03  0.58322228532E+03  0.80268769723E+02 0.  0.
         24    2    4    4    0    0 -0.10151324032E+03 -0.25779334555E+03 -0.60099080696E+02  0.29433110892E+03  0.79098389417E+02 0.  0.
         13    1    5    5    0    0  0.96306879442E+02 -0.54606376372E+02  0.22695053550E+03  0.25251419155E+03  0.00000000000E+00 0. -1.
        -14    1    5    5    0    0  0.47348747824E+02 -0.11807016876E+03  0.30526279599E+03  0.33070809377E+03  0.00000000000E+00 0.  1.
         13    1    3    3    0    0 -0.12007989101E+02  0.31678460944E+02  0.37552131327E+02  0.50575480791E+02  0.00000000000E+00 0. -1.
        -14    1    3    3    0    0 -0.30134397848E+02  0.39879142973E+03  0.14535204318E+03  0.42552309316E+03  0.00000000000E+00 0.  1.
          4    1    6    6  502    0 -0.16255094326E+02 -0.14231029906E+03 -0.15793562787E+02  0.14410373325E+03  0.00000000000E+00 0. -1.
         -3    1    6    6    0  502 -0.85258145991E+02 -0.11548304649E+03 -0.44305517909E+02  0.15022737567E+03  0.00000000000E+00 0.  1.
<mgrwt>
<rscale>  0 0.47925423E+03</rscale>
<asrwt>0</asrwt>
<pdfrwt beam="1">  1        1 0.53741042E-01 0.47925423E+03</pdfrwt>
<pdfrwt beam="2">  1       -2 0.15451311E+00 0.47925423E+03</pdfrwt>
<totfact> 0.18183670E+01</totfact>
</mgrwt>
</event>
<event>
12    3  0.2269558E-007  0.8846244E+03  0.7818608E-02  0.9445008E-01
          1   -1    0    0  501    0  0.00000000000E+00  0.00000000000E+00  0.12919350097E+04  0.12919350097E+04  0.00000000000E+00 0. -1.
         -2   -1    0    0    0  501 -0.00000000000E+00 -0.00000000000E+00 -0.93721243443E+03  0.93721243443E+03  0.00000000000E+00 0.  1.
        -24    2    1    2    0    0 -0.51595705003E+03 -0.69442232345E+03  0.70579782041E+03  0.11193281275E+04  0.79440876494E+02 0.  0.
    5000000    2    1    2    0    0  0.51595705003E+03  0.69442232345E+03 -0.35107524518E+03  0.11098193166E+04  0.60000920577E+03 0.  0.
        -24    2    4    4    0    0  0.10080584038E+03  0.28901167855E+03  0.13881167141E+03  0.34639930717E+03  0.83870329050E+02 0.  0.
         24    2    4    4    0    0  0.41515120965E+03  0.40541064490E+03 -0.48988691660E+03  0.76342000946E+03  0.78183130671E+02 0.  0.
         13    1    3    3    0    0 -0.34590595927E+03 -0.42387324694E+03  0.40751651861E+03  0.68219438218E+03  0.00000000000E+00 0. -1.
        -14    1    3    3    0    0 -0.17005109076E+03 -0.27054907651E+03  0.29828130180E+03  0.43713374529E+03  0.00000000000E+00 0.  1.
         13    1    5    5    0    0 -0.15439374640E+00  0.12155055134E+03  0.60296025073E+02  0.13568408531E+03  0.00000000000E+00 0. -1.
        -14    1    5    5    0    0  0.10096023412E+03  0.16746112721E+03  0.78515646341E+02  0.21071522185E+03  0.00000000000E+00 0.  1.
          4    1    6    6  502    0  0.20571654328E+03  0.14680332718E+03 -0.21313961142E+03  0.33060400331E+03  0.00000000000E+00 0. -1.
         -3    1    6    6    0  502  0.20943466637E+03  0.25860731772E+03 -0.27674730518E+03  0.43281600615E+03  0.00000000000E+00 0.  1.
<mgrwt>
<rscale>  0 0.88462439E+03</rscale>
<asrwt>0</asrwt>
<pdfrwt beam="1">  1        1 0.19875923E+00 0.88462439E+03</pdfrwt>
<pdfrwt beam="2">  1       -2 0.14418653E+00 0.88462439E+03</pdfrwt>
<totfact> 0.27035512E+00</totfact>
</mgrwt>
</event>
<event>
12    3  0.2269558E-007  0.3555321E+03  0.7818608E-02  0.1060367E+00
          1   -1    0    0  501    0  0.00000000000E+00  0.00000000000E+00  0.37519683117E+03  0.37519683117E+03  0.00000000000E+00 0. -1.
         -2   -1    0    0    0  501 -0.00000000000E+00 -0.00000000000E+00 -0.56432321823E+03  0.56432321823E+03  0.00000000000E+00 0.  1.
        -24    2    1    2    0    0  0.37515298232E+02 -0.16209207557E+03 -0.25367580933E+03  0.31351302087E+03  0.79106001366E+02 0.  0.
    5000000    2    1    2    0    0 -0.37515298232E+02  0.16209207557E+03  0.64549422267E+02  0.62600702853E+03  0.60003077695E+03 0.  0.
        -24    2    4    4    0    0  0.96432350506E+02  0.29695862767E+03  0.19795279425E+03  0.37812603004E+03  0.79437781140E+02 0.  0.
         24    2    4    4    0    0 -0.13394764874E+03 -0.13486655209E+03 -0.13340337198E+03  0.24788099849E+03  0.86703923086E+02 0.  0.
         13    1    5    5    0    0  0.99655763768E+02  0.21440274356E+03  0.16883827874E+03  0.29052740330E+03  0.00000000000E+00 0. -1.
        -14    1    5    5    0    0 -0.32234132627E+01  0.82555884108E+02  0.29114515507E+02  0.87598626742E+02  0.00000000000E+00 0.  1.
         13    1    3    3    0    0  0.58166225490E+02 -0.82383721180E+02 -0.15603411946E+03  0.18578760383E+03  0.00000000000E+00 0. -1.
        -14    1    3    3    0    0 -0.20650927258E+02 -0.79708354391E+02 -0.97641689871E+02  0.12772541704E+03  0.00000000000E+00 0.  1.
          2    1    6    6  502    0 -0.63915389110E+02 -0.12184741117E+03 -0.84303694372E+02  0.16136629592E+03  0.00000000000E+00 0. -1.
         -1    1    6    6    0  502 -0.70032259628E+02 -0.13019140925E+02 -0.49099677612E+02  0.86514702569E+02  0.00000000000E+00 0.  1.
<mgrwt>
<rscale>  0 0.35553209E+03</rscale>
<asrwt>0</asrwt>
<pdfrwt beam="1">  1        1 0.57722590E-01 0.35553209E+03</pdfrwt>
<pdfrwt beam="2">  1       -2 0.86818956E-01 0.35553209E+03</pdfrwt>
<totfact> 0.68638743E+01</totfact>
</mgrwt>
</event>
<event>
12    3  0.2269558E-007  0.4874578E+03  0.7818608E-02  0.1017105E+00
         -2   -1    0    0    0  501 -0.00000000000E+00  0.00000000000E+00  0.19868442596E+03  0.19868442596E+03  0.00000000000E+00 0.  1.
          1   -1    0    0  501    0  0.00000000000E+00 -0.00000000000E+00 -0.18537541009E+04  0.18537541009E+04  0.00000000000E+00 0. -1.
        -24    2    1    2    0    0  0.32559733560E+02  0.32404916550E+03 -0.93551552485E+02  0.34816417142E+03  0.79989995478E+02 0.  0.
    5000000    2    1    2    0    0 -0.32559733560E+02 -0.32404916550E+03 -0.15615181225E+04  0.17042743554E+04  0.60012018290E+03 0.  0.
        -24    2    4    4    0    0 -0.28906872335E+03 -0.15732271348E+03 -0.10424515393E+04  0.10959225466E+04  0.77652131566E+02 0.  0.
         24    2    4    4    0    0  0.25650898979E+03 -0.16672645203E+03 -0.51906658320E+03  0.60835180880E+03  0.84066841377E+02 0.  0.
         11    1    5    5    0    0 -0.11704249877E+03 -0.91338648238E+02 -0.56423095184E+03  0.58343659655E+03  0.00000000000E+00 0. -1.
        -12    1    5    5    0    0 -0.17202622458E+03 -0.65984065237E+02 -0.47822058743E+03  0.51248595010E+03  0.00000000000E+00 0.  1.
         11    1    3    3    0    0  0.45470819676E+02  0.89382592116E+02 -0.30867659715E+02  0.10492690614E+03  0.00000000000E+00 0. -1.
        -12    1    3    3    0    0 -0.12911086116E+02  0.23466657339E+03 -0.62683892770E+02  0.24323726528E+03  0.00000000000E+00 0.  1.
          2    1    6    6  502    0  0.19630414340E+03 -0.13950757113E+03 -0.46219930869E+03  0.52117739789E+03  0.00000000000E+00 0. -1.
         -1    1    6    6    0  502  0.60204846391E+02 -0.27218880894E+02 -0.56867274511E+02  0.87174410903E+02  0.00000000000E+00 0.  1.
<mgrwt>
<rscale>  0 0.48745779E+03</rscale>
<asrwt>0</asrwt>
<pdfrwt beam="1">  1        1 0.28519293E+00 0.48745779E+03</pdfrwt>
<pdfrwt beam="2">  1       -2 0.30566836E-01 0.48745779E+03</pdfrwt>
<totfact> 0.34944603E+01</totfact>
</mgrwt>
</event>
<event>
12    3  0.2269558E-007  0.1606680E+04  0.7818608E-02  0.8816455E-01
         -2   -1    0    0    0  501 -0.00000000000E+00  0.00000000000E+00  0.26199137801E+04  0.26199137801E+04  0.00000000000E+00 0.  1.
          1   -1    0    0  501    0  0.00000000000E+00 -0.00000000000E+00 -0.10484834777E+04  0.10484834777E+04  0.00000000000E+00 0. -1.
        -24    2    1    2    0    0 -0.15438639032E+04  0.15526572408E+03  0.31970232268E+03  0.15863848068E+04  0.82364941399E+02 0.  0.
    5000000    2    1    2    0    0  0.15438639032E+04 -0.15526572408E+03  0.12517279797E+04  0.20820124510E+04  0.60027469931E+03 0.  0.
        -24    2    4    4    0    0  0.13626073641E+04  0.64757345544E+02  0.10131065289E+04  0.17010605496E+04  0.79560114906E+02 0.  0.
         24    2    4    4    0    0  0.18125653901E+03 -0.22002306962E+03  0.23862145080E+03  0.38095190145E+03  0.83186960139E+02 0.  0.
         11    1    3    3    0    0 -0.13493769609E+04  0.13711274130E+03  0.30702852639E+03  0.13906417952E+04  0.00000000000E+00 0. -1.
        -12    1    3    3    0    0 -0.19448694224E+03  0.18152982780E+02  0.12673796286E+02  0.19574301162E+03  0.00000000000E+00 0.  1.
         13    1    5    5    0    0  0.62183701666E+03  0.51475316113E+02  0.42213519091E+03  0.75334527467E+03  0.00000000000E+00 0. -1.
        -14    1    5    5    0    0  0.74077034748E+03  0.13282029431E+02  0.59097133797E+03  0.94771527492E+03  0.00000000000E+00 0.  1.
          4    1    6    6  502    0  0.18002951969E+03 -0.17257596543E+03  0.19661117563E+03  0.31756738842E+03  0.00000000000E+00 0. -1.
         -3    1    6    6    0  502  0.12270193220E+01 -0.47447104194E+02  0.42010275164E+02  0.63384513031E+02  0.00000000000E+00 0.  1.
<mgrwt>
<rscale>  0 0.16066796E+04</rscale>
<asrwt>0</asrwt>
<pdfrwt beam="1">  1        1 0.16130515E+00 0.16066796E+04</pdfrwt>
<pdfrwt beam="2">  1       -2 0.40306366E+00 0.16066796E+04</pdfrwt>
<totfact> 0.80913920E-02</totfact>
</mgrwt>
</event>
<event>
12    3  0.2269558E-007  0.7502417E+03  0.7818608E-02  0.9634971E-01
          1   -1    0    0  501    0  0.00000000000E+00  0.00000000000E+00  0.69593465630E+03  0.69593465630E+03  0.00000000000E+00 0. -1.
         -2   -1    0    0    0  501 -0.00000000000E+00 -0.00000000000E+00 -0.97711720405E+03  0.97711720405E+03  0.00000000000E+00 0.  1.
        -24    2    1    2    0    0  0.55329770658E+03 -0.30420502360E+03  0.21365493429E+03  0.67129844122E+03  0.79461422988E+02 0.  0.
    5000000    2    1    2    0    0 -0.55329770658E+03  0.30420502360E+03 -0.49483748203E+03  0.10017534191E+04  0.59997227488E+03 0.  0.
        -24    2    4    4    0    0 -0.32129631227E+03 -0.14207819063E+03 -0.23239414101E+03  0.42882446554E+03  0.80410527592E+02 0.  0.
         24    2    4    4    0    0 -0.23200139431E+03  0.44628321423E+03 -0.26244334103E+03  0.57292895359E+03  0.79860655795E+02 0.  0.
         13    1    3    3    0    0  0.17510728608E+03 -0.11778794704E+03  0.37507134621E+02  0.21434399281E+03  0.00000000000E+00 0. -1.
        -14    1    3    3    0    0  0.37819042050E+03 -0.18641707657E+03  0.17614779967E+03  0.45695444841E+03  0.00000000000E+00 0.  1.
         13    1    5    5    0    0 -0.17252383655E+03 -0.32470229414E+02 -0.11682792733E+03  0.21087331406E+03  0.00000000000E+00 0. -1.
        -14    1    5    5    0    0 -0.14877247571E+03 -0.10960796121E+03 -0.11556621368E+03  0.21795115149E+03  0.00000000000E+00 0.  1.
          2    1    6    6  502    0 -0.17001428986E+03  0.25576337590E+03 -0.18228743338E+03  0.35713928876E+03  0.00000000000E+00 0. -1.
         -1    1    6    6    0  502 -0.61987104456E+02  0.19051983833E+03 -0.80155907643E+02  0.21578966483E+03  0.00000000000E+00 0.  1.
<mgrwt>
<rscale>  0 0.75024174E+03</rscale>
<asrwt>0</asrwt>
<pdfrwt beam="1">  1        1 0.10706687E+00 0.75024174E+03</pdfrwt>
<pdfrwt beam="2">  1       -2 0.15032572E+00 0.75024174E+03</pdfrwt>
<totfact> 0.73282313E+00</totfact>
</mgrwt>
</event>
<event>
12    3  0.2269558E-007  0.5882608E+03  0.7818608E-02  0.9930065E-01
         -2   -1    0    0    0  501 -0.00000000000E+00  0.00000000000E+00  0.23590916935E+03  0.23590916935E+03  0.00000000000E+00 0.  1.
          1   -1    0    0  501    0  0.00000000000E+00 -0.00000000000E+00 -0.24606802495E+04  0.24606802495E+04  0.00000000000E+00 0. -1.
        -24    2    1    2    0    0 -0.67197440181E+01 -0.57187028243E+03 -0.14548594300E+04  0.15652774872E+04  0.79980472137E+02 0.  0.
    5000000    2    1    2    0    0  0.67197440181E+01  0.57187028243E+03 -0.76991165018E+03  0.11313119317E+04  0.60001830208E+03 0.  0.
        -24    2    4    4    0    0 -0.28338909053E+02  0.13955264153E+02  0.75729280714E+02  0.11455517206E+03  0.79938228174E+02 0.  0.
         24    2    4    4    0    0  0.35058653071E+02  0.55791501828E+03 -0.84564093089E+03  0.10167567596E+04  0.78660329902E+02 0.  0.
         11    1    3    3    0    0 -0.98015532806E+01 -0.13382801472E+03 -0.43754309031E+03  0.45765703737E+03  0.00000000000E+00 0. -1.
        -12    1    3    3    0    0  0.30818092625E+01 -0.43804226771E+03 -0.10173163397E+04  0.11076204498E+04  0.00000000000E+00 0.  1.
         11    1    5    5    0    0 -0.99849294699E+01  0.22096144599E+02  0.87827765935E+02  0.91113417737E+02  0.00000000000E+00 0. -1.
        -12    1    5    5    0    0 -0.18353979583E+02 -0.81408804463E+01 -0.12098485220E+02  0.23441754320E+02  0.00000000000E+00 0.  1.
          2    1    6    6  502    0 -0.59788438351E+01  0.43834076393E+02 -0.10803742905E+03  0.11674441701E+03  0.00000000000E+00 0. -1.
         -1    1    6    6    0  502  0.41037496906E+02  0.51408094188E+03 -0.73760350184E+03  0.90001234263E+03  0.00000000000E+00 0.  1.
<mgrwt>
<rscale>  0 0.58826083E+03</rscale>
<asrwt>0</asrwt>
<pdfrwt beam="1">  1        1 0.37856617E+00 0.58826083E+03</pdfrwt>
<pdfrwt beam="2">  1       -2 0.36293721E-01 0.58826083E+03</pdfrwt>
<totfact> 0.97817377E+00</totfact>
</mgrwt>
</event>
<event>
12    3  0.2269558E-007  0.8379386E+03  0.7818608E-02  0.9506670E-01
         -2   -1    0    0    0  501 -0.00000000000E+00  0.00000000000E+00  0.12956423318E+04  0.12956423318E+04  0.00000000000E+00 0.  1.
          1   -1    0    0  501    0  0.00000000000E+00 -0.00000000000E+00 -0.55016874158E+03  0.55016874158E+03  0.00000000000E+00 0. -1.
        -24    2    1    2    0    0 -0.70104619951E+03 -0.20686512465E+03  0.23962273267E+03  0.77333409211E+03  0.79797307976E+02 0.  0.
    5000000    2    1    2    0    0  0.70104619951E+03  0.20686512465E+03  0.50585085750E+03  0.10724769812E+04  0.60005235735E+03 0.  0.
        -24    2    4    4    0    0  0.77196006532E+03  0.80809550243E+02  0.42000492393E+03  0.88644631171E+03  0.83249033435E+02 0.  0.
         24    2    4    4    0    0 -0.70913865804E+02  0.12605557441E+03  0.85845933575E+02  0.18603066951E+03  0.79492776300E+02 0.  0.
         13    1    3    3    0    0 -0.19706758217E+03 -0.52676028224E+02  0.30186220146E+02  0.20620767149E+03  0.00000000000E+00 0. -1.
        -14    1    3    3    0    0 -0.50397861734E+03 -0.15418909643E+03  0.20943651252E+03  0.56712642062E+03  0.00000000000E+00 0.  1.
         13    1    5    5    0    0  0.31541485896E+03  0.73350710835E+02  0.16460206572E+03  0.36326395372E+03  0.00000000000E+00 0. -1.
        -14    1    5    5    0    0  0.45654520636E+03  0.74588394077E+01  0.25540285821E+03  0.52318235799E+03  0.00000000000E+00 0.  1.
          4    1    6    6  502    0  0.79635912513E+01  0.62811583866E+02  0.25270006448E+02  0.68171013483E+02  0.00000000000E+00 0. -1.
         -3    1    6    6    0  502 -0.78877457056E+02  0.63243990541E+02  0.60575927128E+02  0.11785965603E+03  0.00000000000E+00 0.  1.
<mgrwt>
<rscale>  0 0.83793862E+03</rscale>
<asrwt>0</asrwt>
<pdfrwt beam="1">  1        1 0.84641345E-01 0.83793862E+03</pdfrwt>
<pdfrwt beam="2">  1       -2 0.19932959E+00 0.83793862E+03</pdfrwt>
<totfact> 0.46286833E+00</totfact>
</mgrwt>
</event>
<event>
12    3  0.2269558E-007  0.4874926E+03  0.7818608E-02  0.1017096E+00
         -2   -1    0    0    0  501 -0.00000000000E+00  0.00000000000E+00  0.19307851794E+03  0.19307851794E+03  0.00000000000E+00 0.  1.
          1   -1    0    0  501    0  0.00000000000E+00 -0.00000000000E+00 -0.14207796582E+04  0.14207796582E+04  0.00000000000E+00 0. -1.
        -24    2    1    2    0    0 -0.26637955255E+03  0.17646756977E+03 -0.20862182092E+03  0.38884705797E+03  0.74700074484E+02 0.  0.
    5000000    2    1    2    0    0  0.26637955255E+03 -0.17646756977E+03 -0.10190793193E+04  0.12250111182E+04  0.60002559225E+03 0.  0.
        -24    2    4    4    0    0  0.39089118735E+03  0.48498746129E+02 -0.70413688860E+03  0.81068036751E+03  0.79030700667E+02 0.  0.
         24    2    4    4    0    0 -0.12451163479E+03 -0.22496631589E+03 -0.31494243073E+03  0.41433075066E+03  0.79801289366E+02 0.  0.
         13    1    5    5    0    0  0.17292258875E+03  0.34584190116E+01 -0.37969798160E+03  0.41723463374E+03  0.00000000000E+00 0. -1.
        -14    1    5    5    0    0  0.21796859860E+03  0.45040327117E+02 -0.32443890700E+03  0.39344573377E+03  0.00000000000E+00 0.  1.
         13    1    3    3    0    0 -0.17555295101E+03  0.92038003538E+02 -0.16328893487E+03  0.25681337378E+03  0.00000000000E+00 0. -1.
        -14    1    3    3    0    0 -0.90826601547E+02  0.84429566227E+02 -0.45332886050E+02  0.13203368418E+03  0.00000000000E+00 0.  1.
          2    1    6    6  502    0 -0.62078668732E+02 -0.10454257073E+03 -0.21067240965E+03  0.24324015785E+03  0.00000000000E+00 0. -1.
         -1    1    6    6    0  502 -0.62432966063E+02 -0.12042374517E+03 -0.10427002108E+03  0.17109059281E+03  0.00000000000E+00 0.  1.
<mgrwt>
<rscale>  0 0.48749264E+03</rscale>
<asrwt>0</asrwt>
<pdfrwt beam="1">  1        1 0.21858149E+00 0.48749264E+03</pdfrwt>
<pdfrwt beam="2">  1       -2 0.29704387E-01 0.48749264E+03</pdfrwt>
<totfact> 0.71790135E+01</totfact>
</mgrwt>
</event>
<event>
12    3  0.2269558E-007  0.6564474E+03  0.7818608E-02  0.9794756E-01
          1   -1    0    0  501    0  0.00000000000E+00  0.00000000000E+00  0.20240489380E+04  0.20240489380E+04  0.00000000000E+00 0. -1.
         -2   -1    0    0    0  501 -0.00000000000E+00 -0.00000000000E+00 -0.26151266163E+03  0.26151266163E+03  0.00000000000E+00 0.  1.
        -24    2    1    2    0    0 -0.35871093538E+03  0.41360262909E+03  0.34475861918E+03  0.65181725279E+03  0.79161579032E+02 0.  0.
    5000000    2    1    2    0    0  0.35871093538E+03 -0.41360262909E+03  0.14177776572E+04  0.16337443468E+04  0.59940506807E+03 0.  0.
        -24    2    4    4    0    0 -0.34226889834E+02 -0.34839462257E+03  0.94301858703E+03  0.10089078203E+04  0.77850120613E+02 0.  0.
         24    2    4    4    0    0  0.39293782521E+03 -0.65208006518E+02  0.47475907018E+03  0.62483652659E+03  0.79826634897E+02 0.  0.
         11    1    3    3    0    0 -0.20976043827E+03  0.29679634078E+03  0.21409063708E+03  0.42180838096E+03  0.00000000000E+00 0. -1.
        -12    1    3    3    0    0 -0.14895049711E+03  0.11680628831E+03  0.13066798209E+03  0.23000887183E+03  0.00000000000E+00 0.  1.
         11    1    5    5    0    0 -0.52220703381E+02 -0.15071453734E+03  0.39082843635E+03  0.42212408162E+03  0.00000000000E+00 0. -1.
        -12    1    5    5    0    0  0.17993813547E+02 -0.19768008523E+03  0.55219015068E+03  0.58678373863E+03  0.00000000000E+00 0.  1.
          4    1    6    6  502    0  0.23579834175E+03 -0.66588998667E+02  0.24516557848E+03  0.34661378159E+03  0.00000000000E+00 0. -1.
         -3    1    6    6    0  502  0.15713948346E+03  0.13809921491E+01  0.22959349170E+03  0.27822274500E+03  0.00000000000E+00 0.  1.
<mgrwt>
<rscale>  0 0.65644739E+03</rscale>
<asrwt>0</asrwt>
<pdfrwt beam="1">  1        1 0.31139213E+00 0.65644739E+03</pdfrwt>
<pdfrwt beam="2">  1       -2 0.40232719E-01 0.65644739E+03</pdfrwt>
<totfact> 0.15538045E+01</totfact>
</mgrwt>
</event>
<event>
12    3  0.2269558E-007  0.3802962E+03  0.7818608E-02  0.1050824E+00
         -2   -1    0    0    0  501 -0.00000000000E+00  0.00000000000E+00  0.21283048851E+03  0.21283048851E+03  0.00000000000E+00 0.  1.
          1   -1    0    0  501    0  0.00000000000E+00 -0.00000000000E+00 -0.90248405521E+03  0.90248405521E+03  0.00000000000E+00 0. -1.
        -24    2    1    2    0    0  0.69012808083E+02 -0.19663912583E+03 -0.28447247958E+03  0.36203276511E+03  0.81935449529E+02 0.  0.
    5000000    2    1    2    0    0 -0.69012808083E+02  0.19663912583E+03 -0.40518108711E+03  0.75328177861E+03  0.59985999295E+03 0.  0.
        -24    2    4    4    0    0 -0.24105006315E+03 -0.35184547133E+02 -0.37174322596E+03  0.45189892690E+03  0.81710028657E+02 0.  0.
         24    2    4    4    0    0  0.17203725507E+03  0.23182367296E+03 -0.33437861144E+02  0.30138285170E+03  0.79840467584E+02 0.  0.
         11    1    3    3    0    0  0.46533882209E+00 -0.20147554246E+02 -0.83594007379E+02  0.85988944359E+02  0.00000000000E+00 0. -1.
        -12    1    3    3    0    0  0.68547469261E+02 -0.17649157158E+03 -0.20087847221E+03  0.27604382076E+03  0.00000000000E+00 0.  1.
         11    1    5    5    0    0 -0.18638882578E+03  0.77729946257E+01 -0.25369722699E+03  0.31490236075E+03  0.00000000000E+00 0. -1.
        -12    1    5    5    0    0 -0.54661237375E+02 -0.42957541759E+02 -0.11804599898E+03  0.13699656616E+03  0.00000000000E+00 0.  1.
          4    1    6    6  502    0  0.10075672912E+03  0.85006987699E+02 -0.40846547626E+02  0.13800922749E+03  0.00000000000E+00 0. -1.
         -3    1    6    6    0  502  0.71280525952E+02  0.14681668526E+03  0.74086864819E+01  0.16337362421E+03  0.00000000000E+00 0.  1.
<mgrwt>
<rscale>  0 0.38029618E+03</rscale>
<asrwt>0</asrwt>
<pdfrwt beam="1">  1        1 0.13884370E+00 0.38029618E+03</pdfrwt>
<pdfrwt beam="2">  1       -2 0.32743152E-01 0.38029618E+03</pdfrwt>
<totfact> 0.14469551E+02</totfact>
</mgrwt>
</event>
<event>
12    3  0.2269558E-007  0.5354497E+03  0.7818608E-02  0.1004919E+00
         -2   -1    0    0    0  501 -0.00000000000E+00  0.00000000000E+00  0.20532084219E+03  0.20532084219E+03  0.00000000000E+00 0.  1.
          1   -1    0    0  501    0  0.00000000000E+00 -0.00000000000E+00 -0.21032959414E+04  0.21032959414E+04  0.00000000000E+00 0. -1.
        -24    2    1    2    0    0 -0.29581083899E+03 -0.26204876425E+03 -0.17107606602E+03  0.43822046303E+03  0.81219126722E+02 0.  0.
    5000000    2    1    2    0    0  0.29581083899E+03  0.26204876425E+03 -0.17268990332E+04  0.18703963205E+04  0.60002376436E+03 0.  0.
        -24    2    4    4    0    0  0.10411829097E+03  0.40933258831E+03 -0.79482118073E+03  0.90419103553E+03  0.86179655569E+02 0.  0.
         24    2    4    4    0    0  0.19169254803E+03 -0.14728382407E+03 -0.93207785244E+03  0.96620528500E+03  0.79655332229E+02 0.  0.
         11    1    3    3    0    0 -0.25278618791E+02 -0.61079979182E+02 -0.34743987073E+02  0.74678759113E+02  0.00000000000E+00 0. -1.
        -12    1    3    3    0    0 -0.27053222020E+03 -0.20096878506E+03 -0.13633207895E+03  0.36354170392E+03  0.00000000000E+00 0.  1.
         11    1    5    5    0    0  0.10415580262E+03  0.33500864796E+03 -0.70610149581E+03  0.78845326293E+03  0.00000000000E+00 0. -1.
        -12    1    5    5    0    0 -0.37511652477E-01  0.74323940352E+02 -0.88719684913E+02  0.11573777261E+03  0.00000000000E+00 0.  1.
          4    1    6    6  502    0  0.12240564856E+03 -0.10639247516E+03 -0.74690481915E+03  0.76430969538E+03  0.00000000000E+00 0. -1.
         -3    1    6    6    0  502  0.69286899469E+02 -0.40891348911E+02 -0.18517303328E+03  0.20189558962E+03  0.00000000000E+00 0.  1.
<mgrwt>
<rscale>  0 0.53544965E+03</rscale>
<asrwt>0</asrwt>
<pdfrwt beam="1">  1        1 0.32358401E+00 0.53544965E+03</pdfrwt>
<pdfrwt beam="2">  1       -2 0.31587820E-01 0.53544965E+03</pdfrwt>
<totfact> 0.22276524E+01</totfact>
</mgrwt>
</event>
<event>
12    3  0.2269558E-007  0.4913020E+03  0.7818608E-02  0.1016074E+00
         -2   -1    0    0    0  501 -0.00000000000E+00  0.00000000000E+00  0.20036786941E+03  0.20036786941E+03  0.00000000000E+00 0.  1.
          1   -1    0    0  501    0  0.00000000000E+00 -0.00000000000E+00 -0.17012176458E+04  0.17012176458E+04  0.00000000000E+00 0. -1.
        -24    2    1    2    0    0  0.68199869543E+02 -0.35530285585E+03 -0.91928046804E+03  0.99112559910E+03  0.79762351406E+02 0.  0.
    5000000    2    1    2    0    0 -0.68199869543E+02  0.35530285585E+03 -0.58156930839E+03  0.91045991614E+03  0.59985252926E+03 0.  0.
        -24    2    4    4    0    0 -0.84704319923E+02 -0.11126721869E+03  0.58859235398E+00  0.15991680102E+03  0.77574615959E+02 0.  0.
         24    2    4    4    0    0  0.16504450380E+02  0.46657007454E+03 -0.58215790074E+03  0.75054311511E+03  0.80293928246E+02 0.  0.
         11    1    3    3    0    0  0.73034456964E+02 -0.17534040963E+03 -0.49783288980E+03  0.53283757123E+03  0.00000000000E+00 0. -1.
        -12    1    3    3    0    0 -0.48345874210E+01 -0.17996244622E+03 -0.42144757824E+03  0.45828802787E+03  0.00000000000E+00 0.  1.
         13    1    5    5    0    0  0.15933673905E+01 -0.20300100078E+02  0.24928196827E+02  0.32187697648E+02  0.00000000000E+00 0. -1.
        -14    1    5    5    0    0 -0.86297687313E+02 -0.90967118607E+02 -0.24339604473E+02  0.12772910338E+03  0.00000000000E+00 0.  1.
          4    1    6    6  502    0  0.76323922153E+01  0.15692789650E+03 -0.13850743502E+03  0.20944910519E+03  0.00000000000E+00 0. -1.
         -3    1    6    6    0  502  0.88720581647E+01  0.30964217804E+03 -0.44365046573E+03  0.54109400992E+03  0.00000000000E+00 0.  1.
<mgrwt>
<rscale>  0 0.49130202E+03</rscale>
<asrwt>0</asrwt>
<pdfrwt beam="1">  1        1 0.26172578E+00 0.49130202E+03</pdfrwt>
<pdfrwt beam="2">  1       -2 0.30825828E-01 0.49130202E+03</pdfrwt>
<totfact> 0.43393203E+01</totfact>
</mgrwt>
</event>
<event>
12    3  0.2269558E-007  0.1477795E+04  0.7818608E-02  0.8899355E-01
          1   -1    0    0  501    0  0.00000000000E+00  0.00000000000E+00  0.93992541675E+03  0.93992541675E+03  0.00000000000E+00 0. -1.
         -2   -1    0    0    0  501 -0.00000000000E+00 -0.00000000000E+00 -0.25482949015E+04  0.25482949015E+04  0.00000000000E+00 0.  1.
        -24    2    1    2    0    0  0.96718720870E+03  0.10431196345E+04 -0.12687871801E+04  0.19074318016E+04  0.70181914103E+02 0.  0.
    5000000    2    1    2    0    0 -0.96718720870E+03 -0.10431196345E+04 -0.33958230466E+03  0.15807885166E+04  0.60002210298E+03 0.  0.
        -24    2    4    4    0    0 -0.47311436405E+03 -0.13700731211E+03 -0.19660898456E+03  0.53585793218E+03  0.76683933325E+02 0.  0.
         24    2    4    4    0    0 -0.49407284465E+03 -0.90611232236E+03 -0.14297332010E+03  0.10449305844E+04  0.79316072947E+02 0.  0.
         13    1    3    3    0    0  0.36024988855E+03  0.36398486356E+03 -0.49615294870E+03  0.71304467715E+03  0.00000000000E+00 0. -1.
        -14    1    3    3    0    0  0.60693732015E+03  0.67913477090E+03 -0.77263423137E+03  0.11943871245E+04  0.00000000000E+00 0.  1.
         13    1    5    5    0    0 -0.16808038966E+03 -0.85137669686E+02 -0.61096185228E+02  0.19807115903E+03  0.00000000000E+00 0. -1.
        -14    1    5    5    0    0 -0.30503397439E+03 -0.51869642422E+02 -0.13551279933E+03  0.33778677315E+03  0.00000000000E+00 0.  1.
          4    1    6    6  502    0 -0.21462313890E+03 -0.31739341854E+03 -0.41216563276E+02  0.38535759882E+03  0.00000000000E+00 0. -1.
         -3    1    6    6    0  502 -0.27944970575E+03 -0.58871890381E+03 -0.10175675683E+03  0.65957298559E+03  0.00000000000E+00 0.  1.
<mgrwt>
<rscale>  0 0.14777946E+04</rscale>
<asrwt>0</asrwt>
<pdfrwt beam="1">  1        1 0.14460391E+00 0.14777946E+04</pdfrwt>
<pdfrwt beam="2">  1       -2 0.39204536E+00 0.14777946E+04</pdfrwt>
<totfact> 0.11816422E-01</totfact>
</mgrwt>
</event>
<event>
12    3  0.2269558E-007  0.6307509E+03  0.7818608E-02  0.9843585E-01
          1   -1    0    0  501    0  0.00000000000E+00  0.00000000000E+00  0.36543804316E+04  0.36543804316E+04  0.00000000000E+00 0. -1.
         -2   -1    0    0    0  501 -0.00000000000E+00 -0.00000000000E+00 -0.12819612196E+03  0.12819612196E+03  0.00000000000E+00 0.  1.
        -24    2    1    2    0    0  0.51091931976E+03 -0.14838622178E+03  0.10564611967E+04  0.11859227192E+04  0.85119994958E+02 0.  0.
    5000000    2    1    2    0    0 -0.51091931976E+03  0.14838622178E+03  0.24697231129E+04  0.25966538343E+04  0.60001821558E+03 0.  0.
        -24    2    4    4    0    0  0.66816927739E+02 -0.58795757487E+02  0.14903877003E+03  0.19485231379E+03  0.88506645433E+02 0.  0.
         24    2    4    4    0    0 -0.57773624749E+03  0.20718197927E+03  0.23206843428E+04  0.24018015205E+04  0.79819676886E+02 0.  0.
         11    1    5    5    0    0  0.70506126425E+02 -0.17243347065E+02  0.13023145910E+03  0.14909285637E+03  0.00000000000E+00 0. -1.
        -12    1    5    5    0    0 -0.36891986859E+01 -0.41552410423E+02  0.18807310933E+02  0.45759457420E+02  0.00000000000E+00 0.  1.
         13    1    3    3    0    0  0.26725688266E+03 -0.66758579683E+02  0.45538735209E+03  0.53222231232E+03  0.00000000000E+00 0. -1.
        -14    1    3    3    0    0  0.24366243709E+03 -0.81627642095E+02  0.60107384465E+03  0.65370040686E+03  0.00000000000E+00 0.  1.
          4    1    6    6  502    0 -0.28761862754E+03  0.84532691698E+02  0.12711525716E+04  0.13060241618E+04  0.00000000000E+00 0. -1.
         -3    1    6    6    0  502 -0.29011761996E+03  0.12264928757E+03  0.10495317713E+04  0.10957773588E+04  0.00000000000E+00 0.  1.
<mgrwt>
<rscale>  0 0.63075090E+03</rscale>
<asrwt>0</asrwt>
<pdfrwt beam="1">  1        1 0.56221229E+00 0.63075090E+03</pdfrwt>
<pdfrwt beam="2">  1       -2 0.19722483E-01 0.63075090E+03</pdfrwt>
<totfact> 0.40148386E+00</totfact>
</mgrwt>
</event>
<event>
12    3  0.2306758E-007  0.1551289E+04  0.7818608E-02  0.8851045E-01
         -2   -1    0    0    0  501 -0.00000000000E+00  0.00000000000E+00  0.21828028897E+04  0.21828028897E+04  0.00000000000E+00 0.  1.
          1   -1    0    0  501    0  0.00000000000E+00 -0.00000000000E+00 -0.16644934202E+04  0.16644934202E+04  0.00000000000E+00 0. -1.
        -24    2    1    2    0    0 -0.30169543700E+03 -0.14987322403E+04 -0.81279934576E+03  0.17332784147E+04  0.79955121709E+02 0.  0.
    5000000    2    1    2    0    0  0.30169543700E+03  0.14987322403E+04  0.13311088152E+04  0.21140178952E+04  0.60000209843E+03 0.  0.
        -24    2    4    4    0    0  0.98594679099E+02  0.77202937711E+02 -0.88274184874E+01  0.14836366074E+03  0.79073688250E+02 0.  0.
         24    2    4    4    0    0  0.20310075790E+03  0.14215293026E+04  0.13399362337E+04  0.19656542344E+04  0.79824700153E+02 0.  0.
         11    1    3    3    0    0 -0.18706926517E+03 -0.90793019818E+03 -0.53657981386E+03  0.10710975919E+04  0.00000000000E+00 0. -1.
        -12    1    3    3    0    0 -0.11462617184E+03 -0.59080204215E+03 -0.27621953190E+03  0.66218082280E+03  0.00000000000E+00 0.  1.
         13    1    5    5    0    0  0.10282996401E+03  0.61741024006E+02  0.13692285020E+02  0.12072047967E+03  0.00000000000E+00 0. -1.
        -14    1    5    5    0    0 -0.42352849071E+01  0.15461913705E+02 -0.22519703507E+02  0.27643181071E+02  0.00000000000E+00 0.  1.
          4    1    6    6  502    0  0.18411288696E+03  0.10686436228E+04  0.10303157942E+04  0.14958099423E+04  0.00000000000E+00 0. -1.
         -3    1    6    6    0  502  0.18987870944E+02  0.35288567981E+03  0.30962043955E+03  0.46984429213E+03  0.00000000000E+00 0.  1.
<mgrwt>
<rscale>  0 0.15512888E+04</rscale>
<asrwt>0</asrwt>
<pdfrwt beam="1">  1        1 0.25607591E+00 0.15512888E+04</pdfrwt>
<pdfrwt beam="2">  1       -2 0.33581583E+00 0.15512888E+04</pdfrwt>
<totfact> 0.79054780E-02</totfact>
</mgrwt>
</event>
<event>
12    3  0.2269558E-007  0.7712559E+03  0.7818608E-02  0.9602581E-01
          1   -1    0    0  501    0  0.00000000000E+00  0.00000000000E+00  0.12873537002E+04  0.12873537002E+04  0.00000000000E+00 0. -1.
         -2   -1    0    0    0  501 -0.00000000000E+00 -0.00000000000E+00 -0.52254539352E+03  0.52254539352E+03  0.00000000000E+00 0.  1.
        -24    2    1    2    0    0  0.60977386599E+03  0.28672772222E+03  0.57165994818E+03  0.88714328571E+03  0.78683916356E+02 0.  0.
    5000000    2    1    2    0    0 -0.60977386599E+03 -0.28672772222E+03  0.19314835853E+03  0.92275580804E+03  0.60011252156E+03 0.  0.
        -24    2    4    4    0    0 -0.58957659303E+03 -0.41012216596E+03  0.25080422307E+03  0.76490579380E+03  0.79858406028E+02 0.  0.
         24    2    4    4    0    0 -0.20197272960E+02  0.12339444374E+03 -0.57655864545E+02  0.15785001424E+03  0.77190088097E+02 0.  0.
         11    1    3    3    0    0  0.42601313532E+02  0.66992559086E+01  0.58221236078E+02  0.72453186782E+02  0.00000000000E+00 0. -1.
        -12    1    3    3    0    0  0.56717255246E+03  0.28002846631E+03  0.51343871210E+03  0.81469009893E+03  0.00000000000E+00 0.  1.
         11    1    5    5    0    0 -0.20623268584E+03 -0.11330774098E+03  0.52489352126E+02  0.24109271445E+03  0.00000000000E+00 0. -1.
        -12    1    5    5    0    0 -0.38334390719E+03 -0.29681442498E+03  0.19831487095E+03  0.52381307934E+03  0.00000000000E+00 0.  1.
          2    1    6    6  502    0 -0.49758798494E+02  0.80106607881E+02 -0.41191019632E+02  0.10290630084E+03  0.00000000000E+00 0. -1.
         -1    1    6    6    0  502  0.29561525534E+02  0.43287835854E+02 -0.16464844913E+02  0.54943713406E+02  0.00000000000E+00 0.  1.
<mgrwt>
<rscale>  0 0.77125592E+03</rscale>
<asrwt>0</asrwt>
<pdfrwt beam="1">  1        1 0.19805442E+00 0.77125592E+03</pdfrwt>
<pdfrwt beam="2">  1       -2 0.80391599E-01 0.77125592E+03</pdfrwt>
<totfact> 0.11361883E+01</totfact>
</mgrwt>
</event>
<event>
12    3  0.2269558E-007  0.7680888E+03  0.7818608E-02  0.9607392E-01
          1   -1    0    0  501    0  0.00000000000E+00  0.00000000000E+00  0.24155510691E+04  0.24155510691E+04  0.00000000000E+00 0. -1.
         -2   -1    0    0    0  501 -0.00000000000E+00 -0.00000000000E+00 -0.24883478314E+03  0.24883478314E+03  0.00000000000E+00 0.  1.
        -24    2    1    2    0    0  0.50680928594E+03  0.41268273394E+03  0.10288109766E+04  0.12215220081E+04  0.80630635784E+02 0.  0.
    5000000    2    1    2    0    0 -0.50680928594E+03 -0.41268273394E+03  0.11379053093E+04  0.14428638442E+04  0.59988739654E+03 0.  0.
        -24    2    4    4    0    0 -0.39390552320E+03  0.49620925497E+02  0.52081520526E+03  0.65962717044E+03  0.78966628957E+02 0.  0.
         24    2    4    4    0    0 -0.11290376274E+03 -0.46230365944E+03  0.61709010408E+03  0.78323667371E+03  0.78661028029E+02 0.  0.
         11    1    3    3    0    0  0.93490546814E+02  0.40240335048E+02  0.14449751470E+03  0.17674642476E+03  0.00000000000E+00 0. -1.
        -12    1    3    3    0    0  0.41331873913E+03  0.37244239889E+03  0.88431346192E+03  0.10447755833E+04  0.00000000000E+00 0.  1.
         13    1    5    5    0    0 -0.16580237145E+03  0.11872705781E+02  0.28117531941E+03  0.32663580294E+03  0.00000000000E+00 0. -1.
        -14    1    5    5    0    0 -0.22810315176E+03  0.37748219715E+02  0.23963988585E+03  0.33299136750E+03  0.00000000000E+00 0.  1.
          2    1    6    6  502    0 -0.78054367575E+02 -0.41242874910E+03  0.55958524309E+03  0.69951812105E+03  0.00000000000E+00 0. -1.
         -1    1    6    6    0  502 -0.34849395160E+02 -0.49874910336E+02  0.57504860984E+02  0.83718552668E+02  0.00000000000E+00 0.  1.
<mgrwt>
<rscale>  0 0.76808875E+03</rscale>
<asrwt>0</asrwt>
<pdfrwt beam="1">  1        1 0.37162323E+00 0.76808875E+03</pdfrwt>
<pdfrwt beam="2">  1       -2 0.38282276E-01 0.76808875E+03</pdfrwt>
<totfact> 0.91789991E+00</totfact>
</mgrwt>
</event>
<event>
12    3  0.2269558E-007  0.6390498E+03  0.7818608E-02  0.9827546E-01
          1   -1    0    0  501    0  0.00000000000E+00  0.00000000000E+00  0.18329630365E+04  0.18329630365E+04  0.00000000000E+00 0. -1.
         -2   -1    0    0    0  501 -0.00000000000E+00 -0.00000000000E+00 -0.36174708809E+03  0.36174708809E+03  0.00000000000E+00 0.  1.
        -24    2    1    2    0    0 -0.51320815887E+03 -0.32530482717E+03  0.16617042156E+03  0.63498877395E+03  0.79951792502E+02 0.  0.
    5000000    2    1    2    0    0  0.51320815887E+03  0.32530482717E+03  0.13050455268E+04  0.15597213506E+04  0.60031743233E+03 0.  0.
        -24    2    4    4    0    0  0.61375409555E+02  0.15335403274E+03  0.19831527559E+02  0.18405094104E+03  0.78721402152E+02 0.  0.
         24    2    4    4    0    0  0.45183274932E+03  0.17195079443E+03  0.12852139993E+04  0.13756704096E+04  0.83511333427E+02 0.  0.
         11    1    3    3    0    0 -0.31404445822E+03 -0.23896122080E+03  0.88388284528E+02  0.40439940112E+03  0.00000000000E+00 0. -1.
        -12    1    3    3    0    0 -0.19916370066E+03 -0.86343606361E+02  0.77782137030E+02  0.23058937282E+03  0.00000000000E+00 0.  1.
         13    1    5    5    0    0  0.33518885231E+02  0.15133032541E+03  0.15229555131E+02  0.15574441372E+03  0.00000000000E+00 0. -1.
        -14    1    5    5    0    0  0.27856524324E+02  0.20237073320E+01  0.46019724273E+01  0.28306527321E+02  0.00000000000E+00 0.  1.
          4    1    6    6  502    0  0.14849255245E+03  0.53839070050E+02  0.53612574750E+03  0.55890920616E+03  0.00000000000E+00 0. -1.
         -3    1    6    6    0  502  0.30334019687E+03  0.11811172438E+03  0.74908825175E+03  0.81676120340E+03  0.00000000000E+00 0.  1.
<mgrwt>
<rscale>  0 0.63904980E+03</rscale>
<asrwt>0</asrwt>
<pdfrwt beam="1">  1        1 0.28199431E+00 0.63904980E+03</pdfrwt>
<pdfrwt beam="2">  1       -2 0.55653399E-01 0.63904980E+03</pdfrwt>
<totfact> 0.10881077E+01</totfact>
</mgrwt>
</event>
<event>
12    3  0.2269558E-007  0.9629694E+03  0.7818608E-02  0.9350118E-01
          1   -1    0    0  501    0  0.00000000000E+00  0.00000000000E+00  0.34610866544E+04  0.34610866544E+04  0.00000000000E+00 0. -1.
         -2   -1    0    0    0  501 -0.00000000000E+00 -0.00000000000E+00 -0.31942909870E+03  0.31942909870E+03  0.00000000000E+00 0.  1.
        -24    2    1    2    0    0  0.50661013365E+03 -0.80200937089E+03  0.11364415177E+04  0.14825326897E+04  0.80814567598E+02 0.  0.
    5000000    2    1    2    0    0 -0.50661013365E+03  0.80200937089E+03  0.20052160380E+04  0.22979830634E+04  0.59996828435E+03 0.  0.
        -24    2    4    4    0    0 -0.51315574597E+03  0.70675243442E+03  0.12175980270E+04  0.15006400050E+04  0.80917525003E+02 0.  0.
         24    2    4    4    0    0  0.65456123208E+01  0.95256936465E+02  0.78761801099E+03  0.79734305849E+03  0.79354222957E+02 0.  0.
         11    1    5    5    0    0 -0.29049076135E+03  0.45973999557E+03  0.78556303046E+03  0.95543446702E+03  0.00000000000E+00 0. -1.
        -12    1    5    5    0    0 -0.22266498463E+03  0.24701243885E+03  0.43203499657E+03  0.54520553793E+03  0.00000000000E+00 0.  1.
         13    1    3    3    0    0  0.48875024347E+03 -0.73474675973E+03  0.10542545952E+04  0.13748390280E+04  0.00000000000E+00 0. -1.
        -14    1    3    3    0    0  0.17859890180E+02 -0.67262611153E+02  0.82186922524E+02  0.10769366170E+03  0.00000000000E+00 0.  1.
          2    1    6    6  502    0 -0.66310616728E+01  0.19123353968E+02  0.47096373707E+03  0.47139846762E+03  0.00000000000E+00 0. -1.
         -1    1    6    6    0  502  0.13176673994E+02  0.76133582497E+02  0.31665427392E+03  0.32594459087E+03  0.00000000000E+00 0.  1.
<mgrwt>
<rscale>  0 0.96296944E+03</rscale>
<asrwt>0</asrwt>
<pdfrwt beam="1">  1        1 0.53247485E+00 0.96296944E+03</pdfrwt>
<pdfrwt beam="2">  1       -2 0.49142940E-01 0.96296944E+03</pdfrwt>
<totfact> 0.96252140E-01</totfact>
</mgrwt>
</event>
<event>
12    3  0.2269558E-007  0.3509582E+03  0.7818608E-02  0.1062222E+00
          1   -1    0    0  501    0  0.00000000000E+00  0.00000000000E+00  0.19374447140E+04  0.19374447140E+04  0.00000000000E+00 0. -1.
         -2   -1    0    0    0  501 -0.00000000000E+00 -0.00000000000E+00 -0.12297261343E+03  0.12297261343E+03  0.00000000000E+00 0.  1.
        -24    2    1    2    0    0 -0.52808917595E+02 -0.17366404832E+03  0.77310348827E+02  0.21357197554E+03  0.81780897791E+02 0.  0.
    5000000    2    1    2    0    0  0.52808917595E+02  0.17366404832E+03  0.17371617517E+04  0.18468453519E+04  0.60013233426E+03 0.  0.
        -24    2    4    4    0    0 -0.18609878215E+03  0.18885666568E+03  0.40246381552E+03  0.48831236226E+03  0.78563626747E+02 0.  0.
         24    2    4    4    0    0  0.23890769974E+03 -0.15192617365E+02  0.13346979362E+04  0.13585329896E+04  0.82979505482E+02 0.  0.
         11    1    5    5    0    0 -0.76723919050E+02  0.11116434780E+03  0.25762328056E+03  0.29088455900E+03  0.00000000000E+00 0. -1.
        -12    1    5    5    0    0 -0.10937486310E+03  0.77692317881E+02  0.14484053496E+03  0.19742780326E+03  0.00000000000E+00 0.  1.
         13    1    3    3    0    0 -0.59461168102E+02 -0.13014147334E+03  0.88375875211E+02  0.16817469760E+03  0.00000000000E+00 0. -1.
        -14    1    3    3    0    0  0.66522505071E+01 -0.43522574979E+02 -0.11065526384E+02  0.45397277933E+02  0.00000000000E+00 0.  1.
          2    1    6    6  502    0  0.12707214960E+03  0.19327676737E+02  0.86363961847E+03  0.87315192314E+03  0.00000000000E+00 0. -1.
         -1    1    6    6    0  502  0.11183555014E+03 -0.34520294101E+02  0.47105831776E+03  0.48538106649E+03  0.00000000000E+00 0.  1.
<mgrwt>
<rscale>  0 0.35095821E+03</rscale>
<asrwt>0</asrwt>
<pdfrwt beam="1">  1        1 0.29806840E+00 0.35095821E+03</pdfrwt>
<pdfrwt beam="2">  1       -2 0.18918865E-01 0.35095821E+03</pdfrwt>
<totfact> 0.74268771E+01</totfact>
</mgrwt>
</event>
<event>
12    3  0.2269558E-007  0.6828332E+03  0.7818608E-02  0.9747049E-01
          1   -1    0    0  501    0  0.00000000000E+00  0.00000000000E+00  0.59654343234E+03  0.59654343234E+03  0.00000000000E+00 0. -1.
         -2   -1    0    0    0  501 -0.00000000000E+00 -0.00000000000E+00 -0.92470219388E+03  0.92470219388E+03  0.00000000000E+00 0.  1.
        -24    2    1    2    0    0  0.31540004051E+03  0.50171207895E+03  0.43847146839E+02  0.59950686996E+03  0.79332963683E+02 0.  0.
    5000000    2    1    2    0    0 -0.31540004051E+03 -0.50171207895E+03 -0.37200590838E+03  0.92173875625E+03  0.60001811905E+03 0.  0.
        -24    2    4    4    0    0 -0.29037478366E+03 -0.33390836712E+02 -0.32434974078E+03  0.44354109057E+03  0.78060756582E+02 0.  0.
         24    2    4    4    0    0 -0.25025256848E+02 -0.46832124224E+03 -0.47656167607E+02  0.47819766569E+03  0.80317169670E+02 0.  0.
         11    1    5    5    0    0 -0.13630436352E+03 -0.54326042363E+02 -0.14738043526E+03  0.20796920707E+03  0.00000000000E+00 0. -1.
        -12    1    5    5    0    0 -0.15407042014E+03  0.20935205651E+02 -0.17696930552E+03  0.23557188350E+03  0.00000000000E+00 0.  1.
         13    1    3    3    0    0  0.17762514978E+03  0.25772036623E+03 -0.14320283699E+02  0.31332978078E+03  0.00000000000E+00 0. -1.
        -14    1    3    3    0    0  0.13777489073E+03  0.24399171272E+03  0.58167430538E+02  0.28617708918E+03  0.00000000000E+00 0.  1.
          2    1    6    6  502    0 -0.29603131645E+02 -0.23249854156E+03 -0.60245808198E+02  0.24199478225E+03  0.00000000000E+00 0. -1.
         -1    1    6    6    0  502  0.45778747969E+01 -0.23582270068E+03  0.12589640591E+02  0.23620288344E+03  0.00000000000E+00 0.  1.
<mgrwt>
<rscale>  0 0.68283317E+03</rscale>
<asrwt>0</asrwt>
<pdfrwt beam="1">  1        1 0.91775912E-01 0.68283317E+03</pdfrwt>
<pdfrwt beam="2">  1       -2 0.14226188E+00 0.68283317E+03</pdfrwt>
<totfact> 0.10702326E+01</totfact>
</mgrwt>
</event>
<event>
12    3  0.2269558E-007  0.6870128E+03  0.7818608E-02  0.9739704E-01
         -2   -1    0    0    0  501 -0.00000000000E+00  0.00000000000E+00  0.58601186503E+03  0.58601186503E+03  0.00000000000E+00 0.  1.
          1   -1    0    0  501    0  0.00000000000E+00 -0.00000000000E+00 -0.94304860515E+03  0.94304860515E+03  0.00000000000E+00 0. -1.
        -24    2    1    2    0    0  0.37142429078E+03 -0.42627253082E+03 -0.41036188408E+03  0.70287198075E+03  0.77251997468E+02 0.  0.
    5000000    2    1    2    0    0 -0.37142429078E+03  0.42627253082E+03  0.53325143953E+02  0.82618848942E+03  0.60006630864E+03 0.  0.
        -24    2    4    4    0    0  0.75826593902E+02  0.32869886651E+03  0.95657895467E+02  0.35967078737E+03  0.80125059347E+02 0.  0.
         24    2    4    4    0    0 -0.44725088468E+03  0.97573664310E+02 -0.42332751514E+02  0.46651770206E+03  0.79326733613E+02 0.  0.
         11    1    3    3    0    0  0.22186947778E+03 -0.29594291656E+03 -0.29724183348E+03  0.47451130925E+03  0.00000000000E+00 0. -1.
        -12    1    3    3    0    0  0.14955481300E+03 -0.13032961426E+03 -0.11312005060E+03  0.22836067151E+03  0.00000000000E+00 0.  1.
         13    1    5    5    0    0  0.60390270425E+01  0.17338210597E+03  0.71694831171E+02  0.18771780239E+03  0.00000000000E+00 0. -1.
        -14    1    5    5    0    0  0.69787566860E+02  0.15531676054E+03  0.23963064295E+02  0.17195298498E+03  0.00000000000E+00 0.  1.
          4    1    6    6  502    0 -0.18224402365E+03  0.85202642578E+01  0.72418219187E+01  0.18258675484E+03  0.00000000000E+00 0. -1.
         -3    1    6    6    0  502 -0.26500686103E+03  0.89053400052E+02 -0.49574573432E+02  0.28393094721E+03  0.00000000000E+00 0.  1.
<mgrwt>
<rscale>  0 0.68701276E+03</rscale>
<asrwt>0</asrwt>
<pdfrwt beam="1">  1        1 0.14508440E+00 0.68701276E+03</pdfrwt>
<pdfrwt beam="2">  1       -2 0.90155672E-01 0.68701276E+03</pdfrwt>
<totfact> 0.15958778E+01</totfact>
</mgrwt>
</event>
<event>
12    3  0.2269558E-007  0.3960674E+03  0.7818608E-02  0.1045150E+00
         -2   -1    0    0    0  501 -0.00000000000E+00  0.00000000000E+00  0.90663712333E+03  0.90663712333E+03  0.00000000000E+00 0.  1.
          1   -1    0    0  501    0  0.00000000000E+00 -0.00000000000E+00 -0.21338431816E+03  0.21338431816E+03  0.00000000000E+00 0. -1.
        -24    2    1    2    0    0  0.21612293964E+03  0.52860577342E+02  0.15647216252E+03  0.28475348047E+03  0.84247500383E+02 0.  0.
    5000000    2    1    2    0    0 -0.21612293964E+03 -0.52860577342E+02  0.53678064265E+03  0.83526796101E+03  0.60002978484E+03 0.  0.
        -24    2    4    4    0    0 -0.79148723293E+02 -0.27458957867E+03  0.46909581430E+03  0.55471959495E+03  0.77453140084E+02 0.  0.
         24    2    4    4    0    0 -0.13697421635E+03  0.22172900133E+03  0.67684828350E+02  0.28054836607E+03  0.78743023442E+02 0.  0.
         11    1    3    3    0    0  0.10206138936E+03  0.44938864618E+02  0.12210185202E+03  0.16536290702E+03  0.00000000000E+00 0. -1.
        -12    1    3    3    0    0  0.11406155028E+03  0.79217127241E+01  0.34370310500E+02  0.11939057345E+03  0.00000000000E+00 0.  1.
         13    1    5    5    0    0 -0.13629758233E+02 -0.17955077875E+03  0.30254619318E+03  0.35207733734E+03  0.00000000000E+00 0. -1.
        -14    1    5    5    0    0 -0.65518965060E+02 -0.95038799919E+02  0.16654962112E+03  0.20264225760E+03  0.00000000000E+00 0.  1.
          2    1    6    6  502    0 -0.53020876925E+02  0.15412739764E+03  0.26357139621E+02  0.16510956030E+03  0.00000000000E+00 0. -1.
         -1    1    6    6    0  502 -0.83953339424E+02  0.67601603685E+02  0.41327688728E+02  0.11543880577E+03  0.00000000000E+00 0.  1.
<mgrwt>
<rscale>  0 0.39606737E+03</rscale>
<asrwt>0</asrwt>
<pdfrwt beam="1">  1        1 0.32828357E-01 0.39606737E+03</pdfrwt>
<pdfrwt beam="2">  1       -2 0.13948263E+00 0.39606737E+03</pdfrwt>
<totfact> 0.45039747E+01</totfact>
</mgrwt>
</event>
<event>
12    3  0.2269558E-007  0.1000415E+04  0.7818608E-02  0.9308090E-01
          1   -1    0    0  501    0  0.00000000000E+00  0.00000000000E+00  0.23863313786E+04  0.23863313786E+04  0.00000000000E+00 0. -1.
         -2   -1    0    0    0  501 -0.00000000000E+00 -0.00000000000E+00 -0.43882014757E+03  0.43882014757E+03  0.00000000000E+00 0.  1.
        -24    2    1    2    0    0 -0.37864170990E+03 -0.85146067344E+03  0.81173069461E+03  0.12379980142E+04  0.73331709783E+02 0.  0.
    5000000    2    1    2    0    0  0.37864170990E+03  0.85146067344E+03  0.11357805364E+04  0.15871535120E+04  0.60058639744E+03 0.  0.
        -24    2    4    4    0    0  0.32699818327E+03  0.91136875603E+03  0.11072961057E+04  0.14730963067E+04  0.79920221930E+02 0.  0.
         24    2    4    4    0    0  0.51643526634E+02 -0.59908082597E+02  0.28484430723E+02  0.11405720525E+03  0.77082106042E+02 0.  0.
         11    1    3    3    0    0 -0.35655677340E+03 -0.75118664190E+03  0.70889699290E+03  0.10926797565E+04  0.00000000000E+00 0. -1.
        -12    1    3    3    0    0 -0.22084936499E+02 -0.10027403153E+03  0.10283370171E+03  0.14531825772E+03  0.00000000000E+00 0.  1.
         13    1    5    5    0    0  0.28068401567E+03  0.69134211405E+03  0.82958584033E+03  0.11157733201E+04  0.00000000000E+00 0. -1.
        -14    1    5    5    0    0  0.46314167596E+02  0.22002664198E+03  0.27771026534E+03  0.35732298664E+03  0.00000000000E+00 0.  1.
          4    1    6    6  502    0  0.28277439092E+02 -0.65736899803E+02 -0.62035126586E+01  0.71829221954E+02  0.00000000000E+00 0. -1.
         -3    1    6    6    0  502  0.23366087542E+02  0.58288172053E+01  0.34687943382E+02  0.42227983294E+02  0.00000000000E+00 0.  1.
<mgrwt>
<rscale>  0 0.10004150E+04</rscale>
<asrwt>0</asrwt>
<pdfrwt beam="1">  1        1 0.36712790E+00 0.10004150E+04</pdfrwt>
<pdfrwt beam="2">  1       -2 0.67510793E-01 0.10004150E+04</pdfrwt>
<totfact> 0.29068985E+00</totfact>
</mgrwt>
</event>
<event>
12    3  0.2269558E-007  0.5016390E+03  0.7818608E-02  0.1013352E+00
          1   -1    0    0  501    0  0.00000000000E+00  0.00000000000E+00  0.20180331665E+03  0.20180331665E+03  0.00000000000E+00 0. -1.
         -2   -1    0    0    0  501 -0.00000000000E+00 -0.00000000000E+00 -0.23877318034E+04  0.23877318034E+04  0.00000000000E+00 0.  1.
        -24    2    1    2    0    0 -0.72148851969E+02 -0.37664719457E+03 -0.16565277164E+04  0.17022070228E+04  0.79725199860E+02 0.  0.
    5000000    2    1    2    0    0  0.72148851969E+02  0.37664719457E+03 -0.52940077033E+03  0.88732809715E+03  0.60001450845E+03 0.  0.
        -24    2    4    4    0    0 -0.20696093513E+02 -0.99008556757E+02  0.39602867780E+02  0.13562030484E+03  0.81200106832E+02 0.  0.
         24    2    4    4    0    0  0.92844945482E+02  0.47565575133E+03 -0.56900363811E+03  0.75170779232E+03  0.80192812472E+02 0.  0.
         13    1    5    5    0    0 -0.50965261775E+02 -0.54181432751E+02  0.13650677647E+02  0.75626890476E+02  0.00000000000E+00 0. -1.
        -14    1    5    5    0    0  0.30269168262E+02 -0.44827124006E+02  0.25952190133E+02  0.59993414360E+02  0.00000000000E+00 0.  1.
         13    1    3    3    0    0 -0.16398707883E+02 -0.15444315788E+03 -0.83569468617E+03  0.85000424418E+03  0.00000000000E+00 0. -1.
        -14    1    3    3    0    0 -0.55750144086E+02 -0.22220403669E+03 -0.82083303021E+03  0.85220277867E+03  0.00000000000E+00 0.  1.
          4    1    6    6  502    0  0.24695888164E+02  0.31397660509E+03 -0.38598486071E+03  0.49817216716E+03  0.00000000000E+00 0. -1.
         -3    1    6    6    0  502  0.68149057318E+02  0.16167914624E+03 -0.18301877740E+03  0.25353562515E+03  0.00000000000E+00 0.  1.
<mgrwt>
<rscale>  0 0.50163903E+03</rscale>
<asrwt>0</asrwt>
<pdfrwt beam="1">  1        1 0.31046663E-01 0.50163903E+03</pdfrwt>
<pdfrwt beam="2">  1       -2 0.36734337E+00 0.50163903E+03</pdfrwt>
<totfact> 0.17193113E+00</totfact>
</mgrwt>
</event>
<event>
12    3  0.2269558E-007  0.6295369E+03  0.7818608E-02  0.9845953E-01
         -2   -1    0    0    0  501 -0.00000000000E+00  0.00000000000E+00  0.34202554425E+03  0.34202554425E+03  0.00000000000E+00 0.  1.
          1   -1    0    0  501    0  0.00000000000E+00 -0.00000000000E+00 -0.12739675796E+04  0.12739675796E+04  0.00000000000E+00 0. -1.
        -24    2    1    2    0    0  0.27177360301E+02  0.49168951916E+03 -0.57479678606E+03  0.76157203188E+03  0.84281802928E+02 0.  0.
    5000000    2    1    2    0    0 -0.27177360301E+02 -0.49168951916E+03 -0.35714524932E+03  0.85442109200E+03  0.59998790086E+03 0.  0.
        -24    2    4    4    0    0  0.27517346557E+03 -0.23851564479E+03 -0.15950494796E+03  0.40546074075E+03  0.79664514695E+02 0.  0.
         24    2    4    4    0    0 -0.30235082587E+03 -0.25317387438E+03 -0.19764030136E+03  0.44896035126E+03  0.83610260774E+02 0.  0.
         11    1    5    5    0    0  0.17539413796E+03 -0.17397805136E+03 -0.14311069207E+03  0.28550330325E+03  0.00000000000E+00 0. -1.
        -12    1    5    5    0    0  0.99779327608E+02 -0.64537593426E+02 -0.16394255897E+02  0.11995743749E+03  0.00000000000E+00 0.  1.
         11    1    3    3    0    0 -0.22063012682E+02  0.29938058777E+03 -0.36809332578E+03  0.47498232530E+03  0.00000000000E+00 0. -1.
        -12    1    3    3    0    0  0.49240372983E+02  0.19230893140E+03 -0.20670346028E+03  0.28658970658E+03  0.00000000000E+00 0.  1.
          4    1    6    6  502    0 -0.10684500616E+03 -0.82965185040E+02 -0.25133870671E+02  0.13758920279E+03  0.00000000000E+00 0. -1.
         -3    1    6    6    0  502 -0.19550581971E+03 -0.17020868934E+03 -0.17250643069E+03  0.31137114846E+03  0.00000000000E+00 0.  1.
<mgrwt>
<rscale>  0 0.62953692E+03</rscale>
<asrwt>0</asrwt>
<pdfrwt beam="1">  1        1 0.19599501E+00 0.62953692E+03</pdfrwt>
<pdfrwt beam="2">  1       -2 0.52619314E-01 0.62953692E+03</pdfrwt>
<totfact> 0.29377640E+01</totfact>
</mgrwt>
</event>
<event>
12    3  0.2269558E-007  0.8646454E+03  0.7818608E-02  0.9470888E-01
         -2   -1    0    0    0  501 -0.00000000000E+00  0.00000000000E+00  0.14645466738E+04  0.14645466738E+04  0.00000000000E+00 0.  1.
          1   -1    0    0  501    0  0.00000000000E+00 -0.00000000000E+00 -0.80753644105E+03  0.80753644105E+03  0.00000000000E+00 0. -1.
        -24    2    1    2    0    0  0.56596677106E+03 -0.51938499586E+03 -0.36978449558E+03  0.85632074345E+03  0.80408224881E+02 0.  0.
    5000000    2    1    2    0    0 -0.56596677106E+03  0.51938499586E+03  0.10267947284E+04  0.14157623714E+04  0.59999709857E+03 0.  0.
        -24    2    4    4    0    0 -0.41089375585E+03  0.63185898851E+03  0.71883249308E+03  0.10444655232E+04  0.78157635736E+02 0.  0.
         24    2    4    4    0    0 -0.15507301521E+03 -0.11247399264E+03  0.30796223531E+03  0.37129684828E+03  0.79514603062E+02 0.  0.
         11    1    3    3    0    0  0.25178864166E+03 -0.24542237260E+03 -0.21219248048E+03  0.41067664873E+03  0.00000000000E+00 0. -1.
        -12    1    3    3    0    0  0.31417812940E+03 -0.27396262326E+03 -0.15759201510E+03  0.44564409472E+03  0.00000000000E+00 0.  1.
         13    1    5    5    0    0 -0.17435559018E+03  0.20914629048E+03  0.23233381420E+03  0.35794000037E+03  0.00000000000E+00 0. -1.
        -14    1    5    5    0    0 -0.23653816567E+03  0.42271269803E+03  0.48649867888E+03  0.68652552279E+03  0.00000000000E+00 0.  1.
          2    1    6    6  502    0 -0.83556744394E+02 -0.17686651759E+02  0.97237276908E+02  0.12942038172E+03  0.00000000000E+00 0. -1.
         -1    1    6    6    0  502 -0.71516270820E+02 -0.94787340886E+02  0.21072495840E+03  0.24187646656E+03  0.00000000000E+00 0.  1.
<mgrwt>
<rscale>  0 0.86464542E+03</rscale>
<asrwt>0</asrwt>
<pdfrwt beam="1">  1        1 0.12423638E+00 0.86464542E+03</pdfrwt>
<pdfrwt beam="2">  1       -2 0.22531487E+00 0.86464542E+03</pdfrwt>
<totfact> 0.17741297E+00</totfact>
</mgrwt>
</event>
<event>
12    3  0.2269558E-007  0.4680196E+03  0.7818608E-02  0.1022481E+00
          1   -1    0    0  501    0  0.00000000000E+00  0.00000000000E+00  0.85158841058E+03  0.85158841058E+03  0.00000000000E+00 0. -1.
         -4   -1    0    0    0  501 -0.00000000000E+00 -0.00000000000E+00 -0.63651236491E+03  0.63651236491E+03  0.00000000000E+00 0.  1.
        -24    2    1    2    0    0  0.36232920686E+03 -0.12970553359E+03  0.56946013352E+03  0.69208064877E+03  0.81146787569E+02 0.  0.
    5000000    2    1    2    0    0 -0.36232920686E+03  0.12970553359E+03 -0.35438408786E+03  0.79602012672E+03  0.59996164946E+03 0.  0.
        -24    2    4    4    0    0 -0.33657880559E+03 -0.66539980180E+02  0.32289032614E+02  0.35436984119E+03  0.82598676635E+02 0.  0.
         24    2    4    4    0    0 -0.25750401273E+02  0.19624551377E+03 -0.38667312047E+03  0.44165028553E+03  0.79771472188E+02 0.  0.
         11    1    5    5    0    0 -0.17054882276E+03 -0.12407238801E+02  0.51745697442E+02  0.17865737523E+03  0.00000000000E+00 0. -1.
        -12    1    5    5    0    0 -0.16602998283E+03 -0.54132741379E+02 -0.19456664828E+02  0.17571246596E+03  0.00000000000E+00 0.  1.
         13    1    3    3    0    0  0.32811474529E+03 -0.13981828817E+03  0.53054528261E+03  0.63928611489E+03  0.00000000000E+00 0. -1.
        -14    1    3    3    0    0  0.34214461572E+02  0.10112754584E+02  0.38914850909E+02  0.52794533876E+02  0.00000000000E+00 0.  1.
          4    1    6    6  502    0 -0.10827720468E+02  0.11084792702E+03 -0.13245598414E+03  0.17305805439E+03  0.00000000000E+00 0. -1.
         -3    1    6    6    0  502 -0.14922680805E+02  0.85397586752E+02 -0.25421713633E+03  0.26859223114E+03  0.00000000000E+00 0.  1.
<mgrwt>
<rscale>  0 0.46801959E+03</rscale>
<asrwt>0</asrwt>
<pdfrwt beam="1">  1        1 0.13101360E+00 0.46801959E+03</pdfrwt>
<pdfrwt beam="2">  1       -4 0.97924979E-01 0.46801959E+03</pdfrwt>
<totfact> 0.85695685E+00</totfact>
</mgrwt>
</event>
<event>
12    3  0.2269558E-007  0.6730783E+03  0.7818608E-02  0.9764413E-01
          1   -1    0    0  501    0  0.00000000000E+00  0.00000000000E+00  0.37057846533E+03  0.37057846533E+03  0.00000000000E+00 0. -1.
         -2   -1    0    0    0  501 -0.00000000000E+00 -0.00000000000E+00 -0.25016561242E+04  0.25016561242E+04  0.00000000000E+00 0.  1.
        -24    2    1    2    0    0  0.34147497700E+03 -0.43108121471E+03  0.37043910216E+02  0.55637155645E+03  0.75768621104E+02 0.  0.
    5000000    2    1    2    0    0 -0.34147497700E+03  0.43108121471E+03 -0.21681215691E+04  0.23158630331E+04  0.60002856266E+03 0.  0.
        -24    2    4    4    0    0  0.14444936876E+03  0.21823013956E+03 -0.63309549624E+03  0.68974209343E+03  0.80275987326E+02 0.  0.
         24    2    4    4    0    0 -0.48592434576E+03  0.21285107515E+03 -0.15350260728E+04  0.16261209396E+04  0.80846867716E+02 0.  0.
         11    1    5    5    0    0 -0.46553885662E+00  0.64129703317E+01 -0.77142629250E+02  0.77410129586E+02  0.00000000000E+00 0. -1.
        -12    1    5    5    0    0  0.14491490762E+03  0.21181716923E+03 -0.55595286699E+03  0.61233196384E+03  0.00000000000E+00 0.  1.
         13    1    3    3    0    0  0.24549820926E+03 -0.34559324676E+03  0.51589683505E+01  0.42394655077E+03  0.00000000000E+00 0. -1.
        -14    1    3    3    0    0  0.95976767746E+02 -0.85487967954E+02  0.31884941865E+02  0.13242500568E+03  0.00000000000E+00 0.  1.
          4    1    6    6  502    0 -0.72027223403E+02  0.36314320833E+02 -0.33305515906E+03  0.34268409619E+03  0.00000000000E+00 0. -1.
         -3    1    6    6    0  502 -0.41389712236E+03  0.17653675432E+03 -0.12019709138E+04  0.12834368434E+04  0.00000000000E+00 0.  1.
<mgrwt>
<rscale>  0 0.67307834E+03</rscale>
<asrwt>0</asrwt>
<pdfrwt beam="1">  1        1 0.57012073E-01 0.67307834E+03</pdfrwt>
<pdfrwt beam="2">  1       -2 0.38487017E+00 0.67307834E+03</pdfrwt>
<totfact> 0.58491113E-01</totfact>
</mgrwt>
</event>
<event>
12    3  0.2269558E-007  0.1018416E+04  0.7818608E-02  0.9288573E-01
          1   -1    0    0  501    0  0.00000000000E+00  0.00000000000E+00  0.12877983675E+04  0.12877983675E+04  0.00000000000E+00 0. -1.
         -2   -1    0    0    0  501 -0.00000000000E+00 -0.00000000000E+00 -0.98151303095E+03  0.98151303095E+03  0.00000000000E+00 0.  1.
        -24    2    1    2    0    0 -0.77449234505E+03  0.55576520874E+03  0.56867510658E+03  0.11128017081E+04  0.78885390502E+02 0.  0.
    5000000    2    1    2    0    0  0.77449234505E+03 -0.55576520874E+03 -0.26238977003E+03  0.11565096904E+04  0.59996075937E+03 0.  0.
        -24    2    4    4    0    0 -0.33648190627E+02  0.39486290169E+02 -0.98054524228E+02  0.13636472800E+03  0.79304990239E+02 0.  0.
         24    2    4    4    0    0  0.80814053568E+03 -0.59525149891E+03 -0.16433524580E+03  0.10201449624E+04  0.79209841213E+02 0.  0.
         13    1    3    3    0    0 -0.52754436709E+03  0.33236136054E+03  0.37252240693E+03  0.72631954187E+03  0.00000000000E+00 0. -1.
        -14    1    3    3    0    0 -0.24694797795E+03  0.22340384820E+03  0.19615269965E+03  0.38648216619E+03  0.00000000000E+00 0.  1.
         13    1    5    5    0    0 -0.44179124829E+02  0.10552731412E+02 -0.15077303782E+02  0.47858962591E+02  0.00000000000E+00 0. -1.
        -14    1    5    5    0    0  0.10530934202E+02  0.28933558757E+02 -0.82977220445E+02  0.88505765407E+02  0.00000000000E+00 0.  1.
          2    1    6    6  502    0  0.23068940773E+03 -0.18601647739E+03 -0.14495121671E+02  0.29669823264E+03  0.00000000000E+00 0. -1.
         -1    1    6    6    0  502  0.57745112794E+03 -0.40923502152E+03 -0.14984012413E+03  0.72344672976E+03  0.00000000000E+00 0.  1.
<mgrwt>
<rscale>  0 0.10184164E+04</rscale>
<asrwt>0</asrwt>
<pdfrwt beam="1">  1        1 0.19812283E+00 0.10184164E+04</pdfrwt>
<pdfrwt beam="2">  1       -2 0.15100200E+00 0.10184164E+04</pdfrwt>
<totfact> 0.23701594E+00</totfact>
</mgrwt>
</event>
<event>
12    3  0.2269558E-007  0.9832765E+03  0.7818608E-02  0.9327079E-01
         -2   -1    0    0    0  501 -0.00000000000E+00  0.00000000000E+00  0.30640561137E+04  0.30640561137E+04  0.00000000000E+00 0.  1.
          1   -1    0    0  501    0  0.00000000000E+00 -0.00000000000E+00 -0.31781909204E+03  0.31781909204E+03  0.00000000000E+00 0. -1.
        -24    2    1    2    0    0  0.80702118326E+03  0.38359937785E+03  0.12719172799E+04  0.15565537236E+04  0.81573615922E+02 0.  0.
    5000000    2    1    2    0    0 -0.80702118326E+03 -0.38359937785E+03  0.14743197418E+04  0.18253214821E+04  0.59979007919E+03 0.  0.
        -24    2    4    4    0    0 -0.65720910057E+03 -0.53437809142E+03  0.11793744018E+04  0.14534163102E+04  0.63334388235E+02 0.  0.
         24    2    4    4    0    0 -0.14981208268E+03  0.15077871357E+03  0.29494533999E+03  0.37190517188E+03  0.78376161602E+02 0.  0.
         13    1    5    5    0    0 -0.25686238623E+03 -0.18687962642E+03  0.39886565575E+03  0.50989811881E+03  0.00000000000E+00 0. -1.
        -14    1    5    5    0    0 -0.40034671434E+03 -0.34749846500E+03  0.78050874603E+03  0.94351819139E+03  0.00000000000E+00 0.  1.
         13    1    3    3    0    0  0.44762334384E+03  0.25177082869E+03  0.76267821199E+03  0.91947444944E+03  0.00000000000E+00 0. -1.
        -14    1    3    3    0    0  0.35939783941E+03  0.13182854915E+03  0.50923906787E+03  0.63707927418E+03  0.00000000000E+00 0.  1.
          4    1    6    6  502    0 -0.25782112763E+02  0.69437694065E+02  0.13348426387E+03  0.15265765424E+03  0.00000000000E+00 0. -1.
         -3    1    6    6    0  502 -0.12402996992E+03  0.81341019506E+02  0.16146107611E+03  0.21924751764E+03  0.00000000000E+00 0.  1.
<mgrwt>
<rscale>  0 0.98327650E+03</rscale>
<asrwt>0</asrwt>
<pdfrwt beam="1">  1        1 0.48895247E-01 0.98327650E+03</pdfrwt>
<pdfrwt beam="2">  1       -2 0.47139323E+00 0.98327650E+03</pdfrwt>
<totfact> 0.18309904E-01</totfact>
</mgrwt>
</event>
<event>
12    3  0.2503988E-007  0.9733048E+03  0.7818608E-02  0.9338318E-01
          1   -1    0    0  501    0  0.00000000000E+00  0.00000000000E+00  0.10218656896E+04  0.10218656896E+04  0.00000000000E+00 0. -1.
         -2   -1    0    0    0  501 -0.00000000000E+00 -0.00000000000E+00 -0.96364274832E+03  0.96364274832E+03  0.00000000000E+00 0.  1.
        -24    2    1    2    0    0 -0.44572370314E+02 -0.88935169163E+03 -0.10104376290E+03  0.90003919597E+03  0.83232113232E+02 0.  0.
    5000000    2    1    2    0    0  0.44572370314E+02  0.88935169163E+03  0.15926670415E+03  0.10854692419E+04  0.59995371864E+03 0.  0.
        -24    2    4    4    0    0 -0.12851022200E+03  0.86340658467E+03  0.17025893278E+03  0.89267062523E+03  0.76726353620E+02 0.  0.
         24    2    4    4    0    0  0.17308259232E+03  0.25945106959E+02 -0.10992228634E+02  0.19279861669E+03  0.80123312275E+02 0.  0.
         11    1    3    3    0    0 -0.55366754892E+02 -0.43909799247E+03 -0.24989863414E+02  0.44327984142E+03  0.00000000000E+00 0. -1.
        -12    1    3    3    0    0  0.10794384578E+02 -0.45025369916E+03 -0.76053899481E+02  0.45675935455E+03  0.00000000000E+00 0.  1.
         11    1    5    5    0    0 -0.11133753458E+03  0.51081710214E+03  0.87335506979E+02  0.53005438327E+03  0.00000000000E+00 0. -1.
        -12    1    5    5    0    0 -0.17172687428E+02  0.35258948253E+03  0.82923425803E+02  0.36261624196E+03  0.00000000000E+00 0.  1.
          4    1    6    6  502    0  0.90447786141E+02  0.29460414240E+02 -0.42635620015E+02  0.10424257345E+03  0.00000000000E+00 0. -1.
         -3    1    6    6    0  502  0.82634806177E+02 -0.35153072816E+01  0.31643391381E+02  0.88556043245E+02  0.00000000000E+00 0.  1.
<mgrwt>
<rscale>  0 0.97330477E+03</rscale>
<asrwt>0</asrwt>
<pdfrwt beam="1">  1        1 0.15721011E+00 0.97330477E+03</pdfrwt>
<pdfrwt beam="2">  1       -2 0.14825273E+00 0.97330477E+03</pdfrwt>
<totfact> 0.39374486E+00</totfact>
</mgrwt>
</event>
<event>
12    3  0.2269558E-007  0.1851385E+04  0.7818608E-02  0.8679441E-01
          1   -1    0    0  501    0  0.00000000000E+00  0.00000000000E+00  0.34896604567E+04  0.34896604567E+04  0.00000000000E+00 0. -1.
         -2   -1    0    0    0  501 -0.00000000000E+00 -0.00000000000E+00 -0.28938341337E+04  0.28938341337E+04  0.00000000000E+00 0.  1.
        -24    2    1    2    0    0 -0.81107877239E+03 -0.16616969771E+04 -0.22647945630E+04  0.29248806282E+04  0.80911422506E+02 0.  0.
    5000000    2    1    2    0    0  0.81107877239E+03  0.16616969771E+04  0.28606208861E+04  0.34586139621E+04  0.59981085898E+03 0.  0.
        -24    2    4    4    0    0  0.35254367054E+03  0.70979098530E+03  0.73763289766E+03  0.10859100040E+04  0.83713575481E+02 0.  0.
         24    2    4    4    0    0  0.45853510185E+03  0.95190599175E+03  0.21229879884E+04  0.23727039581E+04  0.79161966537E+02 0.  0.
         13    1    5    5    0    0  0.30262103546E+01  0.11711909676E+02  0.34892578336E+00  0.12101591902E+02  0.00000000000E+00 0. -1.
        -14    1    5    5    0    0  0.34951746019E+03  0.69807907563E+03  0.73728397187E+03  0.10738084121E+04  0.00000000000E+00 0.  1.
         13    1    3    3    0    0 -0.23434380168E+03 -0.40812991186E+03 -0.55150578530E+03  0.72501425749E+03  0.00000000000E+00 0. -1.
        -14    1    3    3    0    0 -0.57673497071E+03 -0.12535670652E+04 -0.17132887777E+04  0.21998663708E+04  0.00000000000E+00 0.  1.
          4    1    6    6  502    0  0.60259150972E+02  0.19627787243E+03  0.42192030664E+03  0.46922586634E+03  0.00000000000E+00 0. -1.
         -1    1    6    6    0  502  0.39827595087E+03  0.75562811932E+03  0.17010676818E+04  0.19034780917E+04  0.00000000000E+00 0.  1.
<mgrwt>
<rscale>  0 0.18513848E+04</rscale>
<asrwt>0</asrwt>
<pdfrwt beam="1">  1        1 0.53687084E+00 0.18513848E+04</pdfrwt>
<pdfrwt beam="2">  1       -2 0.44520525E+00 0.18513848E+04</pdfrwt>
<totfact> 0.74548926E-04</totfact>
</mgrwt>
</event>
<event>
12    3  0.2269558E-007  0.3287539E+03  0.7818608E-02  0.1071690E+00
         -2   -1    0    0    0  501 -0.00000000000E+00  0.00000000000E+00  0.17439483835E+04  0.17439483835E+04  0.00000000000E+00 0.  1.
          1   -1    0    0  501    0  0.00000000000E+00 -0.00000000000E+00 -0.16290893063E+03  0.16290893063E+03  0.00000000000E+00 0. -1.
        -24    2    1    2    0    0 -0.21738333507E+03 -0.12568529360E+03  0.10072596177E+04  0.10396159202E+04  0.56365029622E+02 0.  0.
    5000000    2    1    2    0    0  0.21738333507E+03  0.12568529360E+03  0.57377983508E+03  0.86724139390E+03  0.59986000763E+03 0.  0.
        -24    2    4    4    0    0  0.13298888116E+03 -0.82662105918E+02 -0.63499189499E+02  0.18692251444E+03  0.79930051102E+02 0.  0.
         24    2    4    4    0    0  0.84394453907E+02  0.20834739951E+03  0.63727902458E+03  0.68031887946E+03  0.78601271294E+02 0.  0.
         13    1    3    3    0    0 -0.43239728723E+02 -0.38250225461E+02  0.15602669180E+03  0.16636430640E+03  0.00000000000E+00 0. -1.
        -14    1    3    3    0    0 -0.17414360635E+03 -0.87435068134E+02  0.85123292595E+03  0.87325161379E+03  0.00000000000E+00 0.  1.
         13    1    5    5    0    0  0.68200521671E+01 -0.39409923726E+02 -0.19876898598E+01  0.40045051013E+02  0.00000000000E+00 0. -1.
        -14    1    5    5    0    0  0.12616882900E+03 -0.43252182192E+02 -0.61511499639E+02  0.14687746343E+03  0.00000000000E+00 0.  1.
          2    1    6    6  502    0  0.81758044966E+02  0.13278979662E+03  0.34833291368E+03  0.38164555121E+03  0.00000000000E+00 0. -1.
         -1    1    6    6    0  502  0.26364089404E+01  0.75557602892E+02  0.28894611089E+03  0.29867332825E+03  0.00000000000E+00 0.  1.
<mgrwt>
<rscale>  0 0.32875391E+03</rscale>
<asrwt>0</asrwt>
<pdfrwt beam="1">  1        1 0.25062914E-01 0.32875391E+03</pdfrwt>
<pdfrwt beam="2">  1       -2 0.26829974E+00 0.32875391E+03</pdfrwt>
<totfact> 0.92911760E+00</totfact>
</mgrwt>
</event>
<event>
12    3  0.2269558E-007  0.7790506E+03  0.7818608E-02  0.9590846E-01
          1   -1    0    0  501    0  0.00000000000E+00  0.00000000000E+00  0.18145031367E+04  0.18145031367E+04  0.00000000000E+00 0. -1.
         -2   -1    0    0    0  501 -0.00000000000E+00 -0.00000000000E+00 -0.34820478774E+03  0.34820478774E+03  0.00000000000E+00 0.  1.
        -24    2    1    2    0    0  0.48042055217E+03 -0.47725952586E+03  0.69788518472E+03  0.97567330992E+03  0.79461403568E+02 0.  0.
    5000000    2    1    2    0    0 -0.48042055217E+03  0.47725952586E+03  0.76841316424E+03  0.11870346145E+04  0.60000985251E+03 0.  0.
        -24    2    4    4    0    0 -0.48639119534E+03  0.58776819394E+03  0.67364999357E+03  0.10209648614E+04  0.80728493494E+02 0.  0.
         24    2    4    4    0    0  0.59706431682E+01 -0.11050866808E+03  0.94763170664E+02  0.16606975312E+03  0.79694981563E+02 0.  0.
         11    1    5    5    0    0 -0.82472906337E+02  0.60353000631E+02  0.75773025313E+02  0.12722348969E+03  0.00000000000E+00 0. -1.
        -12    1    5    5    0    0 -0.40391828901E+03  0.52741519330E+03  0.59787696826E+03  0.89374137170E+03  0.00000000000E+00 0.  1.
         13    1    3    3    0    0  0.30259659389E+02 -0.58137622053E+02  0.85506214906E+02  0.10773552279E+03  0.00000000000E+00 0. -1.
        -14    1    3    3    0    0  0.45016089279E+03 -0.41912190381E+03  0.61237896982E+03  0.86793778712E+03  0.00000000000E+00 0.  1.
          2    1    6    6  502    0  0.80166626757E+01 -0.79715726704E+02  0.10631037614E+03  0.13311934510E+03  0.00000000000E+00 0. -1.
         -1    1    6    6    0  502 -0.20460195075E+01 -0.30792941371E+02 -0.11547205478E+02  0.32950408017E+02  0.00000000000E+00 0.  1.
<mgrwt>
<rscale>  0 0.77905057E+03</rscale>
<asrwt>0</asrwt>
<pdfrwt beam="1">  1        1 0.27915432E+00 0.77905057E+03</pdfrwt>
<pdfrwt beam="2">  1       -2 0.53569968E-01 0.77905057E+03</pdfrwt>
<totfact> 0.11863608E+01</totfact>
</mgrwt>
</event>
<event>
12    3  0.2269558E-007  0.4115331E+03  0.7818608E-02  0.1039858E+00
          1   -1    0    0  501    0  0.00000000000E+00  0.00000000000E+00  0.56966537968E+03  0.56966537968E+03  0.00000000000E+00 0. -1.
         -2   -1    0    0    0  501 -0.00000000000E+00 -0.00000000000E+00 -0.44484434110E+03  0.44484434110E+03  0.00000000000E+00 0.  1.
        -24    2    1    2    0    0  0.64551275558E+02  0.21465920228E+03 -0.18617826767E+03  0.30245792242E+03  0.81074084528E+02 0.  0.
    5000000    2    1    2    0    0 -0.64551275558E+02 -0.21465920228E+03  0.31099930625E+03  0.71205179837E+03  0.60004312743E+03 0.  0.
        -24    2    4    4    0    0  0.18157705580E+03 -0.27688596260E+03  0.28729937916E+03  0.44553172698E+03  0.79508005902E+02 0.  0.
         24    2    4    4    0    0 -0.24612833136E+03  0.62226760318E+02  0.23699927091E+02  0.26652007139E+03  0.77588251113E+02 0.  0.
         13    1    5    5    0    0  0.43566257622E+02 -0.83307589672E+02  0.13013310821E+03  0.16053908918E+03  0.00000000000E+00 0. -1.
        -14    1    5    5    0    0  0.13801079818E+03 -0.19357837293E+03  0.15716627094E+03  0.28499263780E+03  0.00000000000E+00 0.  1.
         13    1    3    3    0    0  0.48559346237E+02  0.11141930001E+03 -0.14734038429E+03  0.19100120252E+03  0.00000000000E+00 0. -1.
        -14    1    3    3    0    0  0.15991929321E+02  0.10323990228E+03 -0.38837883373E+02  0.11145671990E+03  0.00000000000E+00 0.  1.
          2    1    6    6  502    0 -0.17458936779E+03  0.79301319068E+02  0.21270971716E+02  0.19293159614E+03  0.00000000000E+00 0. -1.
         -1    1    6    6    0  502 -0.71538963568E+02 -0.17074558750E+02  0.24289553747E+01  0.73588475247E+02  0.00000000000E+00 0.  1.
<mgrwt>
<rscale>  0 0.41153309E+03</rscale>
<asrwt>0</asrwt>
<pdfrwt beam="1">  1        1 0.87640827E-01 0.41153309E+03</pdfrwt>
<pdfrwt beam="2">  1       -2 0.68437591E-01 0.41153309E+03</pdfrwt>
<totfact> 0.66074763E+01</totfact>
</mgrwt>
</event>
<event>
12    3  0.2269558E-007  0.7829223E+03  0.7818608E-02  0.9585071E-01
         -2   -1    0    0    0  501 -0.00000000000E+00  0.00000000000E+00  0.18355354956E+04  0.18355354956E+04  0.00000000000E+00 0.  1.
          1   -1    0    0  501    0  0.00000000000E+00 -0.00000000000E+00 -0.33863038071E+03  0.33863038071E+03  0.00000000000E+00 0. -1.
        -24    2    1    2    0    0  0.31925543433E+03 -0.59029432510E+03  0.61092828449E+03  0.91107331909E+03  0.80310655466E+02 0.  0.
    5000000    2    1    2    0    0 -0.31925543433E+03  0.59029432510E+03  0.88597683037E+03  0.12630925572E+04  0.60006369784E+03 0.  0.
        -24    2    4    4    0    0  0.14811783886E+03  0.29368976459E+03  0.32172325973E+03  0.46817668165E+03  0.86550432557E+02 0.  0.
         24    2    4    4    0    0 -0.46737327320E+03  0.29660456050E+03  0.56425357064E+03  0.79491587553E+03  0.84244378896E+02 0.  0.
         11    1    3    3    0    0  0.19063066854E+03 -0.39478799339E+03  0.44122958250E+03  0.62199771381E+03  0.00000000000E+00 0. -1.
        -12    1    3    3    0    0  0.12862476579E+03 -0.19550633171E+03  0.16969870199E+03  0.28907560529E+03  0.00000000000E+00 0.  1.
         11    1    5    5    0    0  0.11594375573E+03  0.15926048398E+03  0.22726139966E+03  0.30075671235E+03  0.00000000000E+00 0. -1.
        -12    1    5    5    0    0  0.32174083132E+02  0.13442928062E+03  0.94461860066E+02  0.16741996930E+03  0.00000000000E+00 0.  1.
          2    1    6    6  502    0 -0.28130890108E+03  0.13624954933E+03  0.28482790001E+03  0.42287772481E+03  0.00000000000E+00 0. -1.
         -1    1    6    6    0  502 -0.18606437212E+03  0.16035501117E+03  0.27942567064E+03  0.37203815072E+03  0.00000000000E+00 0.  1.
<mgrwt>
<rscale>  0 0.78292227E+03</rscale>
<asrwt>0</asrwt>
<pdfrwt beam="1">  1        1 0.52096983E-01 0.78292227E+03</pdfrwt>
<pdfrwt beam="2">  1       -2 0.28239007E+00 0.78292227E+03</pdfrwt>
<totfact> 0.27576703E+00</totfact>
</mgrwt>
</event>
<event>
12    3  0.2269558E-007  0.1097750E+04  0.7818608E-02  0.9207388E-01
          1   -1    0    0  501    0  0.00000000000E+00  0.00000000000E+00  0.38366683943E+04  0.38366683943E+04  0.00000000000E+00 0. -1.
         -2   -1    0    0    0  501 -0.00000000000E+00 -0.00000000000E+00 -0.80353150672E+03  0.80353150672E+03  0.00000000000E+00 0.  1.
        -24    2    1    2    0    0 -0.80048715222E+03  0.62828903800E+03  0.32785106874E+04  0.34337213776E+04  0.79267742156E+02 0.  0.
    5000000    2    1    2    0    0  0.80048715222E+03 -0.62828903800E+03 -0.24537379980E+03  0.12064785235E+04  0.59987942950E+03 0.  0.
        -24    2    4    4    0    0  0.87162882694E+03 -0.48336323893E+03 -0.18079927118E+03  0.10162417092E+04  0.81743515758E+02 0.  0.
         24    2    4    4    0    0 -0.71141674726E+02 -0.14492579907E+03 -0.64574528622E+02  0.19023681431E+03  0.77172214254E+02 0.  0.
         11    1    5    5    0    0  0.81376641770E+03 -0.43011684711E+03 -0.15445658014E+03  0.93331298068E+03  0.00000000000E+00 0. -1.
        -12    1    5    5    0    0  0.57862409241E+02 -0.53246391824E+02 -0.26342691033E+02  0.82928728534E+02  0.00000000000E+00 0.  1.
         11    1    3    3    0    0 -0.47490682473E+03  0.34331509938E+03  0.17786674826E+04  0.18727145440E+04  0.00000000000E+00 0. -1.
        -12    1    3    3    0    0 -0.32558032749E+03  0.28497393862E+03  0.14998432048E+04  0.15610068336E+04  0.00000000000E+00 0.  1.
          2    1    6    6  502    0 -0.50506798015E+02 -0.25570556238E+02 -0.31004311440E+02  0.64545002285E+02  0.00000000000E+00 0. -1.
         -1    1    6    6    0  502 -0.20634876711E+02 -0.11935524283E+03 -0.33570217181E+02  0.12569181202E+03  0.00000000000E+00 0.  1.
<mgrwt>
<rscale>  0 0.10977498E+04</rscale>
<asrwt>0</asrwt>
<pdfrwt beam="1">  1        1 0.59025666E+00 0.10977498E+04</pdfrwt>
<pdfrwt beam="2">  1       -2 0.12362023E+00 0.10977498E+04</pdfrwt>
<totfact> 0.58732447E-02</totfact>
</mgrwt>
</event>
<event>
12    3  0.2269558E-007  0.1321276E+04  0.7818608E-02  0.9012861E-01
         -2   -1    0    0    0  501 -0.00000000000E+00  0.00000000000E+00  0.11352745090E+04  0.11352745090E+04  0.00000000000E+00 0.  1.
          1   -1    0    0  501    0  0.00000000000E+00 -0.00000000000E+00 -0.18272217475E+04  0.18272217475E+04  0.00000000000E+00 0. -1.
        -24    2    1    2    0    0  0.10834148841E+04 -0.73523123526E+03  0.10329592905E+03  0.13172517501E+04  0.10064464077E+03 0.  0.
    5000000    2    1    2    0    0 -0.10834148841E+04  0.73523123526E+03 -0.79524316752E+03  0.16452445064E+04  0.60005417249E+03 0.  0.
        -24    2    4    4    0    0 -0.84903669644E+02  0.14198155108E+03 -0.35380889667E+03  0.40007631580E+03  0.86677154624E+02 0.  0.
         24    2    4    4    0    0 -0.99851121446E+03  0.59324968418E+03 -0.44143427085E+03  0.12451681906E+04  0.81300517822E+02 0.  0.
         11    1    3    3    0    0  0.54509824359E+03 -0.34309566461E+03  0.54923705102E+01  0.64410938231E+03  0.00000000000E+00 0. -1.
        -12    1    3    3    0    0  0.53831664051E+03 -0.39213557065E+03  0.97803558542E+02  0.67314236777E+03  0.00000000000E+00 0.  1.
         13    1    5    5    0    0 -0.32763652699E+02  0.28141854285E+02 -0.29145534012E+02  0.52104539664E+02  0.00000000000E+00 0. -1.
        -14    1    5    5    0    0 -0.52140016945E+02  0.11383969680E+03 -0.32466336266E+03  0.34797177614E+03  0.00000000000E+00 0.  1.
          2    1    6    6  502    0 -0.68454937754E+03  0.36396251517E+03 -0.28232631248E+03  0.82509678793E+03  0.00000000000E+00 0. -1.
         -1    1    6    6    0  502 -0.31396183692E+03  0.22928716901E+03 -0.15910795836E+03  0.42007140266E+03  0.00000000000E+00 0.  1.
<mgrwt>
<rscale>  0 0.13212762E+04</rscale>
<asrwt>0</asrwt>
<pdfrwt beam="1">  1        1 0.28111104E+00 0.13212762E+04</pdfrwt>
<pdfrwt beam="2">  1       -2 0.17465762E+00 0.13212762E+04</pdfrwt>
<totfact> 0.65065727E-01</totfact>
</mgrwt>
</event>
<event>
12    3  0.2269558E-007  0.5001619E+03  0.7818608E-02  0.1013737E+00
          1   -1    0    0  501    0  0.00000000000E+00  0.00000000000E+00  0.13576080666E+04  0.13576080666E+04  0.00000000000E+00 0. -1.
         -2   -1    0    0    0  501 -0.00000000000E+00 -0.00000000000E+00 -0.19525249656E+03  0.19525249656E+03  0.00000000000E+00 0.  1.
        -24    2    1    2    0    0 -0.22212805967E+03  0.25002272366E+03  0.38155568138E+03  0.51313050206E+03  0.76589404692E+02 0.  0.
    5000000    2    1    2    0    0  0.22212805967E+03 -0.25002272366E+03  0.78079988865E+03  0.10397300611E+04  0.59961479015E+03 0.  0.
        -24    2    4    4    0    0 -0.19143569676E+03 -0.13335828303E+03  0.34877084921E+03  0.42508473158E+03  0.67999015575E+02 0.  0.
         24    2    4    4    0    0  0.41356375643E+03 -0.11666444064E+03  0.43202903944E+03  0.61464532950E+03  0.80586709935E+02 0.  0.
         13    1    3    3    0    0 -0.95776025821E+02  0.11487329602E+03  0.22808607017E+03  0.27274929270E+03  0.00000000000E+00 0. -1.
        -14    1    3    3    0    0 -0.12635203385E+03  0.13514942765E+03  0.15346961120E+03  0.24038120936E+03  0.00000000000E+00 0.  1.
         13    1    5    5    0    0 -0.13534876804E+03 -0.78715706012E+02  0.17704126438E+03  0.23634521505E+03  0.00000000000E+00 0. -1.
        -14    1    5    5    0    0 -0.56086928726E+02 -0.54642577014E+02  0.17172958483E+03  0.18873951653E+03  0.00000000000E+00 0.  1.
          2    1    6    6  502    0  0.24615406721E+03 -0.85520387690E+02  0.20901878689E+03  0.33405750222E+03  0.00000000000E+00 0. -1.
         -1    1    6    6    0  502  0.16740968922E+03 -0.31144052949E+02  0.22301025255E+03  0.28058782729E+03  0.00000000000E+00 0.  1.
<mgrwt>
<rscale>  0 0.50016190E+03</rscale>
<asrwt>0</asrwt>
<pdfrwt beam="1">  1        1 0.20886277E+00 0.50016190E+03</pdfrwt>
<pdfrwt beam="2">  1       -2 0.30038847E-01 0.50016190E+03</pdfrwt>
<totfact> 0.77580026E+01</totfact>
</mgrwt>
</event>
<event>
12    3  0.2269558E-007  0.6214446E+03  0.7818608E-02  0.9861888E-01
          1   -1    0    0  501    0  0.00000000000E+00  0.00000000000E+00  0.33007783095E+04  0.33007783095E+04  0.00000000000E+00 0. -1.
         -2   -1    0    0    0  501 -0.00000000000E+00 -0.00000000000E+00 -0.16486371114E+03  0.16486371114E+03  0.00000000000E+00 0.  1.
        -24    2    1    2    0    0  0.94859357330E+02 -0.60413126196E+03  0.12305241421E+04  0.13765262645E+04  0.81621157361E+02 0.  0.
    5000000    2    1    2    0    0 -0.94859357330E+02  0.60413126196E+03  0.19053904563E+04  0.20891157562E+04  0.59993247305E+03 0.  0.
        -24    2    4    4    0    0 -0.96607070231E+02  0.18807187930E+03  0.14470296458E+04  0.14645619237E+04  0.79642165736E+02 0.  0.
         24    2    4    4    0    0  0.17477129010E+01  0.41605938266E+03  0.45836081053E+03  0.62455383251E+03  0.82851630515E+02 0.  0.
         13    1    3    3    0    0  0.43915367200E+02 -0.14895789456E+03  0.38024481262E+03  0.41073486746E+03  0.00000000000E+00 0. -1.
        -14    1    3    3    0    0  0.50943990130E+02 -0.45517336741E+03  0.85027932945E+03  0.96579139705E+03  0.00000000000E+00 0.  1.
         13    1    5    5    0    0 -0.12717214625E+02  0.23506017323E+02  0.43452842696E+03  0.43534953111E+03  0.00000000000E+00 0. -1.
        -14    1    5    5    0    0 -0.83889855606E+02  0.16456586197E+03  0.10125012189E+04  0.10292123926E+04  0.00000000000E+00 0.  1.
          2    1    6    6  502    0 -0.19468345043E+02  0.15515610820E+03  0.12197315272E+03  0.19831763501E+03  0.00000000000E+00 0. -1.
         -1    1    6    6    0  502  0.21216057944E+02  0.26090327446E+03  0.33638765781E+03  0.42623619751E+03  0.00000000000E+00 0.  1.
<mgrwt>
<rscale>  0 0.62144462E+03</rscale>
<asrwt>0</asrwt>
<pdfrwt beam="1">  1        1 0.50781200E+00 0.62144462E+03</pdfrwt>
<pdfrwt beam="2">  1       -2 0.25363650E-01 0.62144462E+03</pdfrwt>
<totfact> 0.48158033E+00</totfact>
</mgrwt>
</event>
<event>
12    3  0.2269558E-007  0.8308555E+03  0.7818608E-02  0.9516399E-01
          1   -1    0    0  501    0  0.00000000000E+00  0.00000000000E+00  0.22226601396E+04  0.22226601396E+04  0.00000000000E+00 0. -1.
         -2   -1    0    0    0  501 -0.00000000000E+00 -0.00000000000E+00 -0.10194877660E+04  0.10194877660E+04  0.00000000000E+00 0.  1.
        -24    2    1    2    0    0  0.48114609374E+03 -0.57537868791E+03  0.19074417363E+04  0.20511890373E+04  0.80500255667E+02 0.  0.
    5000000    2    1    2    0    0 -0.48114609374E+03  0.57537868791E+03 -0.70426936273E+03  0.11909588684E+04  0.59985455970E+03 0.  0.
        -24    2    4    4    0    0 -0.20809712488E+03  0.58602126886E+03 -0.64566775809E+03  0.90025294818E+03  0.82723490828E+02 0.  0.
         24    2    4    4    0    0 -0.27304896886E+03 -0.10642580944E+02 -0.58601604644E+02  0.29070592017E+03  0.80042363978E+02 0.  0.
         11    1    5    5    0    0 -0.18454998027E+03  0.40900133900E+03 -0.46749810164E+03  0.64799326043E+03  0.00000000000E+00 0. -1.
        -12    1    5    5    0    0 -0.23547144608E+02  0.17701992986E+03 -0.17816965645E+03  0.25225968775E+03  0.00000000000E+00 0.  1.
         13    1    3    3    0    0  0.18024962648E+03 -0.27625875938E+03  0.85837505367E+03  0.91957412031E+03  0.00000000000E+00 0. -1.
        -14    1    3    3    0    0  0.30089646726E+03 -0.29911992853E+03  0.10490666826E+04  0.11316149169E+04  0.00000000000E+00 0.  1.
          4    1    6    6  502    0 -0.27596901315E+03 -0.76122924898E+01 -0.64453540946E+02  0.28349797558E+03  0.00000000000E+00 0. -1.
         -3    1    6    6    0  502  0.29200442906E+01 -0.30302884542E+01  0.58519363023E+01  0.72079445934E+01  0.00000000000E+00 0.  1.
<mgrwt>
<rscale>  0 0.83085545E+03</rscale>
<asrwt>0</asrwt>
<pdfrwt beam="1">  1        1 0.34194771E+00 0.83085545E+03</pdfrwt>
<pdfrwt beam="2">  1       -2 0.15684427E+00 0.83085545E+03</pdfrwt>
<totfact> 0.50825641E-01</totfact>
</mgrwt>
</event>
<event>
12    3  0.3172720E-007  0.5634000E+03  0.7818608E-02  0.9984391E-01
         -2   -1    0    0    0  501 -0.00000000000E+00  0.00000000000E+00  0.23966499605E+03  0.23966499605E+03  0.00000000000E+00 0.  1.
          1   -1    0    0  501    0  0.00000000000E+00 -0.00000000000E+00 -0.19478176445E+04  0.19478176445E+04  0.00000000000E+00 0. -1.
        -24    2    1    2    0    0 -0.48485291049E+03 -0.15251710198E+03 -0.36392524983E+03  0.63013707760E+03  0.79292735430E+02 0.  0.
    5000000    2    1    2    0    0  0.48485291049E+03  0.15251710198E+03 -0.13442273986E+04  0.15573455629E+04  0.60002840934E+03 0.  0.
        -24    2    4    4    0    0  0.50173554220E+03  0.20207015675E+03 -0.61890931601E+03  0.82573759228E+03  0.78885532943E+02 0.  0.
         24    2    4    4    0    0 -0.16882631711E+02 -0.49553054768E+02 -0.72531808261E+03  0.73160797067E+03  0.80145949910E+02 0.  0.
         11    1    5    5    0    0  0.12211314274E+03  0.21783614802E+02 -0.11052310137E+03  0.16613699600E+03  0.00000000000E+00 0. -1.
        -12    1    5    5    0    0  0.37962239946E+03  0.18028654195E+03 -0.50838621464E+03  0.65960059628E+03  0.00000000000E+00 0.  1.
         11    1    3    3    0    0 -0.30808251102E+03 -0.73240513941E+02 -0.26328658550E+03  0.41182378827E+03  0.00000000000E+00 0. -1.
        -12    1    3    3    0    0 -0.17677039947E+03 -0.79276588038E+02 -0.10063866433E+03  0.21831328933E+03  0.00000000000E+00 0.  1.
          4    1    6    6  502    0 -0.11267562676E+02 -0.59564653696E+02 -0.29637030022E+03  0.30250662933E+03  0.00000000000E+00 0. -1.
         -3    1    6    6    0  502 -0.56150690352E+01  0.10011598928E+02 -0.42894778239E+03  0.42910134133E+03  0.00000000000E+00 0.  1.
<mgrwt>
<rscale>  0 0.56339999E+03</rscale>
<asrwt>0</asrwt>
<pdfrwt beam="1">  1        1 0.29966426E+00 0.56339999E+03</pdfrwt>
<pdfrwt beam="2">  1       -2 0.36871537E-01 0.56339999E+03</pdfrwt>
<totfact> 0.20989450E+01</totfact>
</mgrwt>
</event>
<event>
12    3  0.2269558E-007  0.5130365E+03  0.7818608E-02  0.1010431E+00
         -2   -1    0    0    0  501 -0.00000000000E+00  0.00000000000E+00  0.57310457458E+03  0.57310457458E+03  0.00000000000E+00 0.  1.
          1   -1    0    0  501    0  0.00000000000E+00 -0.00000000000E+00 -0.51200456491E+03  0.51200456491E+03  0.00000000000E+00 0. -1.
        -24    2    1    2    0    0 -0.21243104962E+03 -0.29992976778E+03 -0.21421829189E+02  0.37669577423E+03  0.79724495077E+02 0.  0.
    5000000    2    1    2    0    0  0.21243104962E+03  0.29992976778E+03  0.82521838864E+02  0.70841336526E+03  0.59996235360E+03 0.  0.
        -24    2    4    4    0    0  0.15375452880E+01 -0.14821016196E+03 -0.73639007195E+02  0.18298060794E+03  0.78042189540E+02 0.  0.
         24    2    4    4    0    0  0.21089350433E+03  0.44813992975E+03  0.15616084606E+03  0.52543275731E+03  0.79924375591E+02 0.  0.
         11    1    3    3    0    0 -0.14946080757E+03 -0.16270550062E+03 -0.40163160501E+02  0.22455443080E+03  0.00000000000E+00 0. -1.
        -12    1    3    3    0    0 -0.62970242050E+02 -0.13722426716E+03  0.18741331312E+02  0.15214134343E+03  0.00000000000E+00 0.  1.
         13    1    5    5    0    0 -0.17044781932E+02 -0.10299083727E+03 -0.82798723821E+02  0.13324138178E+03  0.00000000000E+00 0. -1.
        -14    1    5    5    0    0  0.18582327220E+02 -0.45219324690E+02  0.91597166258E+01  0.49739226160E+02  0.00000000000E+00 0.  1.
          4    1    6    6  502    0  0.14411133087E+03  0.37549492851E+03  0.13715285747E+03  0.42494167051E+03  0.00000000000E+00 0. -1.
         -3    1    6    6    0  502  0.66782173463E+02  0.72645001233E+02  0.19007988588E+02  0.10049108680E+03  0.00000000000E+00 0.  1.
<mgrwt>
<rscale>  0 0.51303652E+03</rscale>
<asrwt>0</asrwt>
<pdfrwt beam="1">  1        1 0.78769932E-01 0.51303652E+03</pdfrwt>
<pdfrwt beam="2">  1       -2 0.88169935E-01 0.51303652E+03</pdfrwt>
<totfact> 0.43168417E+01</totfact>
</mgrwt>
</event>
<event>
12    3  0.2269558E-007  0.6608931E+03  0.7818608E-02  0.9786551E-01
         -2   -1    0    0    0  501 -0.00000000000E+00  0.00000000000E+00  0.24464743440E+03  0.24464743440E+03  0.00000000000E+00 0.  1.
          1   -1    0    0  501    0  0.00000000000E+00 -0.00000000000E+00 -0.30196471770E+04  0.30196471770E+04  0.00000000000E+00 0. -1.
        -24    2    1    2    0    0 -0.43039962480E+03  0.37253872731E+03 -0.28697526695E+03  0.64239663765E+03  0.79307602753E+02 0.  0.
    5000000    2    1    2    0    0  0.43039962480E+03 -0.37253872731E+03 -0.24880244756E+04  0.26218979738E+04  0.60004520913E+03 0.  0.
        -24    2    4    4    0    0  0.53381351958E+03 -0.28426293685E+03 -0.14651319333E+04  0.15870122065E+04  0.78954864836E+02 0.  0.
         24    2    4    4    0    0 -0.10341389478E+03 -0.88275790454E+02 -0.10228925423E+04  0.10348857672E+04  0.78691481411E+02 0.  0.
         11    1    5    5    0    0  0.19667775361E+03 -0.98863462785E+02 -0.43848560333E+03  0.49063810224E+03  0.00000000000E+00 0. -1.
        -12    1    5    5    0    0  0.33713576597E+03 -0.18539947407E+03 -0.10266463300E+04  0.10963741043E+04  0.00000000000E+00 0.  1.
         13    1    3    3    0    0 -0.32269170529E+03  0.27301889440E+03 -0.25026601402E+03  0.49122533642E+03  0.00000000000E+00 0. -1.
        -14    1    3    3    0    0 -0.10770791950E+03  0.99519832907E+02 -0.36709252927E+02  0.15117130123E+03  0.00000000000E+00 0.  1.
          4    1    6    6  502    0 -0.45183516768E+02 -0.43126721374E+01 -0.17230558578E+03  0.17818351276E+03  0.00000000000E+00 0. -1.
         -3    1    6    6    0  502 -0.58230378015E+02 -0.83963118317E+02 -0.85058695656E+03  0.85670225448E+03  0.00000000000E+00 0.  1.
<mgrwt>
<rscale>  0 0.66089305E+03</rscale>
<asrwt>0</asrwt>
<pdfrwt beam="1">  1        1 0.46456110E+00 0.66089305E+03</pdfrwt>
<pdfrwt beam="2">  1       -2 0.37638067E-01 0.66089305E+03</pdfrwt>
<totfact> 0.36744906E+00</totfact>
</mgrwt>
</event>
<event>
12    3  0.2269558E-007  0.3849404E+03  0.7818608E-02  0.1049123E+00
         -2   -1    0    0    0  501 -0.00000000000E+00  0.00000000000E+00  0.57134478627E+03  0.57134478627E+03  0.00000000000E+00 0.  1.
          1   -1    0    0  501    0  0.00000000000E+00 -0.00000000000E+00 -0.65188058250E+03  0.65188058250E+03  0.00000000000E+00 0. -1.
        -24    2    1    2    0    0  0.68997079355E+02  0.26448686895E+03 -0.39944989647E+03  0.49081391524E+03  0.81389058258E+02 0.  0.
    5000000    2    1    2    0    0 -0.68997079355E+02 -0.26448686895E+03  0.31891410024E+03  0.73241145352E+03  0.60000536091E+03 0.  0.
        -24    2    4    4    0    0 -0.63497918236E+02 -0.35628893152E+03 -0.22051074986E+02  0.37051350288E+03  0.76290350433E+02 0.  0.
         24    2    4    4    0    0 -0.54991611193E+01  0.91802062567E+02  0.34096517522E+03  0.36189795064E+03  0.79088662264E+02 0.  0.
         11    1    3    3    0    0 -0.10438763521E+02  0.99001008678E+01 -0.44964819435E+02  0.47210324802E+02  0.00000000000E+00 0. -1.
        -12    1    3    3    0    0  0.79435842876E+02  0.25458676808E+03 -0.35448507703E+03  0.44360359044E+03  0.00000000000E+00 0.  1.
         11    1    5    5    0    0 -0.42551673480E+02 -0.81663254923E+02  0.12509891613E+02  0.92930240012E+02  0.00000000000E+00 0. -1.
        -12    1    5    5    0    0 -0.20946244756E+02 -0.27462567659E+03 -0.34560966600E+02  0.27758326287E+03  0.00000000000E+00 0.  1.
          4    1    6    6  502    0 -0.41770855356E+02  0.38402158272E+02  0.16053857861E+03  0.17027085875E+03  0.00000000000E+00 0. -1.
         -3    1    6    6    0  502  0.36271694237E+02  0.53399904295E+02  0.18042659662E+03  0.19162709190E+03  0.00000000000E+00 0.  1.
<mgrwt>
<rscale>  0 0.38494043E+03</rscale>
<asrwt>0</asrwt>
<pdfrwt beam="1">  1        1 0.10028932E+00 0.38494043E+03</pdfrwt>
<pdfrwt beam="2">  1       -2 0.87899199E-01 0.38494043E+03</pdfrwt>
<totfact> 0.31487432E+01</totfact>
</mgrwt>
</event>
<event>
12    3  0.2269558E-007  0.1740710E+04  0.7818608E-02  0.8738480E-01
         -2   -1    0    0    0  501 -0.00000000000E+00  0.00000000000E+00  0.67892466084E+03  0.67892466084E+03  0.00000000000E+00 0.  1.
          1   -1    0    0  501    0  0.00000000000E+00 -0.00000000000E+00 -0.47581258631E+04  0.47581258631E+04  0.00000000000E+00 0. -1.
        -24    2    1    2    0    0 -0.17109626552E+04  0.31058458880E+03 -0.22266486546E+04  0.28263415108E+04  0.79913143663E+02 0.  0.
    5000000    2    1    2    0    0  0.17109626552E+04 -0.31058458880E+03 -0.18525525477E+04  0.26107090132E+04  0.59999551278E+03 0.  0.
        -24    2    4    4    0    0  0.11194610123E+04 -0.17465074067E+03 -0.78548126490E+03  0.13808960192E+04  0.78722037936E+02 0.  0.
         24    2    4    4    0    0  0.59150164289E+03 -0.13593384814E+03 -0.10670712828E+04  0.12298129939E+04  0.73801577689E+02 0.  0.
         11    1    5    5    0    0  0.44153032931E+03 -0.41545677549E+02 -0.27408748202E+03  0.52134347874E+03  0.00000000000E+00 0. -1.
        -12    1    5    5    0    0  0.67793068295E+03 -0.13310506312E+03 -0.51139378287E+03  0.85955254049E+03  0.00000000000E+00 0.  1.
         13    1    3    3    0    0 -0.82011954363E+03  0.12127525212E+03 -0.11085967354E+04  0.13843014391E+04  0.00000000000E+00 0. -1.
        -14    1    3    3    0    0 -0.89084311152E+03  0.18930933668E+03 -0.11180519192E+04  0.14420400717E+04  0.00000000000E+00 0.  1.
          2    1    6    6  502    0  0.24270852725E+03 -0.45063675917E+02 -0.50492677926E+03  0.56204022676E+03  0.00000000000E+00 0. -1.
         -1    1    6    6    0  502  0.34879311565E+03 -0.90870172219E+02 -0.56214450353E+03  0.66777276717E+03  0.00000000000E+00 0.  1.
<mgrwt>
<rscale>  0 0.17407103E+04</rscale>
<asrwt>0</asrwt>
<pdfrwt beam="1">  1        1 0.73201933E+00 0.17407103E+04</pdfrwt>
<pdfrwt beam="2">  1       -2 0.10444995E+00 0.17407103E+04</pdfrwt>
<totfact> 0.10502062E-02</totfact>
</mgrwt>
</event>
<event>
12    3  0.2269558E-007  0.1382487E+04  0.7818608E-02  0.8966594E-01
         -2   -1    0    0    0  501 -0.00000000000E+00  0.00000000000E+00  0.12943657352E+04  0.12943657352E+04  0.00000000000E+00 0.  1.
          1   -1    0    0  501    0  0.00000000000E+00 -0.00000000000E+00 -0.23661512736E+04  0.23661512736E+04  0.00000000000E+00 0. -1.
        -24    2    1    2    0    0  0.14097007987E+03 -0.13144039568E+04 -0.16344512666E+04  0.21035909477E+04  0.78317349116E+02 0.  0.
    5000000    2    1    2    0    0 -0.14097007987E+03  0.13144039568E+04  0.56266572819E+03  0.15569260611E+04  0.59991308777E+03 0.  0.
        -24    2    4    4    0    0 -0.36209786471E+03  0.68996794220E+03  0.27291118195E+03  0.82943960420E+03  0.79491627830E+02 0.  0.
         24    2    4    4    0    0  0.22112778483E+03  0.62443601461E+03  0.28975454624E+03  0.72748645688E+03  0.80380434817E+02 0.  0.
         11    1    5    5    0    0 -0.43517406998E+02  0.80106770657E+02  0.57856245185E+01  0.91347319983E+02  0.00000000000E+00 0. -1.
        -12    1    5    5    0    0 -0.31858045771E+03  0.60986117154E+03  0.26712555743E+03  0.73809228422E+03  0.00000000000E+00 0.  1.
         13    1    3    3    0    0  0.99420384308E+02 -0.67717495319E+03 -0.89103428539E+03  0.11235623827E+04  0.00000000000E+00 0. -1.
        -14    1    3    3    0    0  0.41549695565E+02 -0.63722900362E+03 -0.74341698126E+03  0.98002856503E+03  0.00000000000E+00 0.  1.
          2    1    6    6  502    0  0.56487490299E+02  0.18686510548E+03  0.47421085003E+02  0.20089341330E+03  0.00000000000E+00 0. -1.
         -1    1    6    6    0  502  0.16464029454E+03  0.43757090914E+03  0.24233346123E+03  0.52659304357E+03  0.00000000000E+00 0.  1.
<mgrwt>
<rscale>  0 0.13824874E+04</rscale>
<asrwt>0</asrwt>
<pdfrwt beam="1">  1        1 0.36402327E+00 0.13824874E+04</pdfrwt>
<pdfrwt beam="2">  1       -2 0.19913319E+00 0.13824874E+04</pdfrwt>
<totfact> 0.18918451E-01</totfact>
</mgrwt>
</event>
<event>
12    3  0.2269558E-007  0.3283055E+03  0.7818608E-02  0.1071889E+00
         -2   -1    0    0    0  501 -0.00000000000E+00  0.00000000000E+00  0.79640129274E+02  0.79640129274E+02  0.00000000000E+00 0.  1.
          1   -1    0    0  501    0  0.00000000000E+00 -0.00000000000E+00 -0.26160126930E+04  0.26160126930E+04  0.00000000000E+00 0. -1.
        -24    2    1    2    0    0 -0.21609489346E+03  0.10275235865E+03 -0.51349186201E+03  0.57215794443E+03  0.80223256220E+02 0.  0.
    5000000    2    1    2    0    0  0.21609489346E+03 -0.10275235865E+03 -0.20228807018E+04  0.21234948779E+04  0.59994092430E+03 0.  0.
        -24    2    4    4    0    0  0.28365095552E+03 -0.12177854344E+03 -0.19815772865E+04  0.20072135126E+04  0.83484517160E+02 0.  0.
         24    2    4    4    0    0 -0.67556062060E+02  0.19026184789E+02 -0.41303415271E+02  0.11628136529E+03  0.83003413012E+02 0.  0.
         11    1    3    3    0    0 -0.12249415698E+03  0.13915712220E+02 -0.25607880167E+03  0.28420911000E+03  0.00000000000E+00 0. -1.
        -12    1    3    3    0    0 -0.93600736485E+02  0.88836646434E+02 -0.25741306033E+03  0.28794883443E+03  0.00000000000E+00 0.  1.
         13    1    5    5    0    0  0.13891355599E+03 -0.53841800797E+02 -0.69843557469E+03  0.71414856126E+03  0.00000000000E+00 0. -1.
        -14    1    5    5    0    0  0.14473739953E+03 -0.67936742645E+02 -0.12831417118E+04  0.12930649513E+04  0.00000000000E+00 0.  1.
          2    1    6    6  502    0  0.42295057871E+01  0.23124878693E+02  0.12361287890E+02  0.26560311972E+02  0.00000000000E+00 0. -1.
         -1    1    6    6    0  502 -0.71785567847E+02 -0.40986939043E+01 -0.53664703161E+02  0.89721053317E+02  0.00000000000E+00 0.  1.
<mgrwt>
<rscale>  0 0.32830555E+03</rscale>
<asrwt>0</asrwt>
<pdfrwt beam="1">  1        1 0.40246353E+00 0.32830555E+03</pdfrwt>
<pdfrwt beam="2">  1       -2 0.12252326E-01 0.32830555E+03</pdfrwt>
<totfact> 0.54899074E+01</totfact>
</mgrwt>
</event>
<event>
12    3  0.2269558E-007  0.7879898E+03  0.7818608E-02  0.9577566E-01
          1   -1    0    0  501    0  0.00000000000E+00  0.00000000000E+00  0.36916403211E+04  0.36916403211E+04  0.00000000000E+00 0. -1.
         -2   -1    0    0    0  501 -0.00000000000E+00 -0.00000000000E+00 -0.20931411174E+03  0.20931411174E+03  0.00000000000E+00 0.  1.
        -24    2    1    2    0    0 -0.58871533789E+02  0.67297551428E+03  0.70349755775E+03  0.97897637791E+03  0.84403995371E+02 0.  0.
    5000000    2    1    2    0    0  0.58871533789E+02 -0.67297551428E+03  0.27788286516E+04  0.29219780550E+04  0.59975426482E+03 0.  0.
        -24    2    4    4    0    0  0.26576434913E+02  0.96018075867E+02  0.33520345644E+03  0.35888315664E+03  0.80684478809E+02 0.  0.
         24    2    4    4    0    0  0.32295098876E+02 -0.76899359015E+03  0.24436251952E+04  0.25630948983E+04  0.75876531909E+02 0.  0.
         13    1    3    3    0    0 -0.11843742722E+02  0.32455131703E+02  0.15717204294E+02  0.37955768025E+02  0.00000000000E+00 0. -1.
        -14    1    3    3    0    0 -0.47027791067E+02  0.64052038258E+03  0.68778035345E+03  0.94102060988E+03  0.00000000000E+00 0.  1.
         13    1    5    5    0    0  0.51332339013E+02  0.37910592035E+02  0.14368144394E+03  0.15721507354E+03  0.00000000000E+00 0. -1.
        -14    1    5    5    0    0 -0.24755904099E+02  0.58107483832E+02  0.19152201251E+03  0.20166808309E+03  0.00000000000E+00 0.  1.
          4    1    6    6  502    0  0.11631678543E+02 -0.70215854183E+03  0.22601148116E+04  0.23667025321E+04  0.00000000000E+00 0. -1.
         -3    1    6    6    0  502  0.20663420332E+02 -0.66835048321E+02  0.18351038357E+03  0.19639236620E+03  0.00000000000E+00 0.  1.
<mgrwt>
<rscale>  0 0.78798979E+03</rscale>
<asrwt>0</asrwt>
<pdfrwt beam="1">  1        1 0.56794461E+00 0.78798979E+03</pdfrwt>
<pdfrwt beam="2">  1       -2 0.32202174E-01 0.78798979E+03</pdfrwt>
<totfact> 0.14947212E+00</totfact>
</mgrwt>
</event>
<event>
12    3  0.2269558E-007  0.3304781E+03  0.7818608E-02  0.1070926E+00
         -2   -1    0    0    0  501 -0.00000000000E+00  0.00000000000E+00  0.69442110750E+03  0.69442110750E+03  0.00000000000E+00 0.  1.
          1   -1    0    0  501    0  0.00000000000E+00 -0.00000000000E+00 -0.92971110262E+03  0.92971110262E+03  0.00000000000E+00 0. -1.
        -24    2    1    2    0    0 -0.10212531079E+03 -0.25516505020E+03 -0.74001811997E+03  0.79331662244E+03  0.78648989897E+02 0.  0.
    5000000    2    1    2    0    0  0.10212531079E+03  0.25516505020E+03  0.50472812485E+03  0.83081558767E+03  0.59997106493E+03 0.  0.
        -24    2    4    4    0    0  0.16621154017E+03  0.58622036640E+02  0.56834180198E+03  0.60020121551E+03  0.78525638879E+02 0.  0.
         24    2    4    4    0    0 -0.64086229386E+02  0.19654301356E+03 -0.63613677127E+02  0.23061437216E+03  0.80000548455E+02 0.  0.
         11    1    3    3    0    0 -0.78169329271E+02 -0.16219531014E+03 -0.37653835122E+03  0.41737140847E+03  0.00000000000E+00 0. -1.
        -12    1    3    3    0    0 -0.23955981515E+02 -0.92969740066E+02 -0.36347976875E+03  0.37594521397E+03  0.00000000000E+00 0.  1.
         11    1    5    5    0    0  0.63059902748E+02  0.31165295902E+02  0.11793896324E+03  0.13732234361E+03  0.00000000000E+00 0. -1.
        -12    1    5    5    0    0  0.10315163742E+03  0.27456740738E+02  0.45040283873E+03  0.46287887190E+03  0.00000000000E+00 0.  1.
          4    1    6    6  502    0 -0.10468956588E+02  0.63805337402E+02 -0.58767576572E+02  0.87374757163E+02  0.00000000000E+00 0. -1.
         -3    1    6    6    0  502 -0.53617272798E+02  0.13273767616E+03 -0.48461005548E+01  0.14323961500E+03  0.00000000000E+00 0.  1.
<mgrwt>
<rscale>  0 0.33047805E+03</rscale>
<asrwt>0</asrwt>
<pdfrwt beam="1">  1        1 0.14303248E+00 0.33047805E+03</pdfrwt>
<pdfrwt beam="2">  1       -2 0.10683402E+00 0.33047805E+03</pdfrwt>
<totfact> 0.11684943E+01</totfact>
</mgrwt>
</event>
<event>
12    3  0.2269558E-007  0.7253089E+03  0.7818608E-02  0.9674903E-01
          1   -1    0    0  501    0  0.00000000000E+00  0.00000000000E+00  0.21199306558E+04  0.21199306558E+04  0.00000000000E+00 0. -1.
         -2   -1    0    0    0  501 -0.00000000000E+00 -0.00000000000E+00 -0.25702684694E+03  0.25702684694E+03  0.00000000000E+00 0.  1.
        -24    2    1    2    0    0  0.30295421129E+03  0.53252781836E+03  0.82311528058E+03  0.10292043583E+04  0.79848071617E+02 0.  0.
    5000000    2    1    2    0    0 -0.30295421129E+03 -0.53252781836E+03  0.10397885282E+04  0.13477531444E+04  0.59992601489E+03 0.  0.
        -24    2    4    4    0    0 -0.47254987096E+03 -0.39970067557E+03  0.82046595380E+03  0.10307108466E+04  0.78335543299E+02 0.  0.
         24    2    4    4    0    0  0.16959565966E+03 -0.13282714279E+03  0.21932257444E+03  0.31704229782E+03  0.77509285311E+02 0.  0.
         13    1    3    3    0    0  0.26134991690E+03  0.48265767844E+03  0.76830228272E+03  0.94421957788E+03  0.00000000000E+00 0. -1.
        -14    1    3    3    0    0  0.41604294396E+02  0.49870139921E+02  0.54812997864E+02  0.84984780419E+02  0.00000000000E+00 0.  1.
         13    1    5    5    0    0 -0.13569479705E+03 -0.10155908725E+03  0.28255987530E+03  0.32949568932E+03  0.00000000000E+00 0. -1.
        -14    1    5    5    0    0 -0.33685507391E+03 -0.29814158832E+03  0.53790607850E+03  0.70121515727E+03  0.00000000000E+00 0.  1.
          2    1    6    6  502    0  0.13952782668E+03 -0.93503205966E+02  0.12114721835E+03  0.20709300437E+03  0.00000000000E+00 0. -1.
         -1    1    6    6    0  502  0.30067832981E+02 -0.39323936827E+02  0.98175356081E+02  0.10994929345E+03  0.00000000000E+00 0.  1.
<mgrwt>
<rscale>  0 0.72530886E+03</rscale>
<asrwt>0</asrwt>
<pdfrwt beam="1">  1        1 0.32614317E+00 0.72530886E+03</pdfrwt>
<pdfrwt beam="2">  1       -2 0.39542593E-01 0.72530886E+03</pdfrwt>
<totfact> 0.13720926E+01</totfact>
</mgrwt>
</event>
<event>
12    3  0.2269558E-007  0.9170743E+03  0.7818608E-02  0.9404486E-01
          1   -1    0    0  501    0  0.00000000000E+00  0.00000000000E+00  0.17267452607E+04  0.17267452607E+04  0.00000000000E+00 0. -1.
         -2   -1    0    0    0  501 -0.00000000000E+00 -0.00000000000E+00 -0.65486863750E+03  0.65486863750E+03  0.00000000000E+00 0.  1.
        -24    2    1    2    0    0  0.78968507368E+03 -0.42114302222E+03  0.93294827813E+03  0.12952466741E+04  0.79419748346E+02 0.  0.
    5000000    2    1    2    0    0 -0.78968507368E+03  0.42114302222E+03  0.13892834507E+03  0.10863672241E+04  0.59994058015E+03 0.  0.
        -24    2    4    4    0    0 -0.60600022098E+03  0.19918728609E+03 -0.16074582480E+03  0.66277976465E+03  0.80783373751E+02 0.  0.
         24    2    4    4    0    0 -0.18368485270E+03  0.22195573614E+03  0.29967416987E+03  0.42358745941E+03  0.81346504351E+02 0.  0.
         11    1    3    3    0    0  0.60274168585E+03 -0.28875177480E+03  0.66668946709E+03  0.94400740084E+03  0.00000000000E+00 0. -1.
        -12    1    3    3    0    0  0.18694338783E+03 -0.13239124742E+03  0.26625881104E+03  0.35123927329E+03  0.00000000000E+00 0.  1.
         13    1    5    5    0    0 -0.47068391313E+03  0.18913537883E+03 -0.12382399547E+03  0.52215698737E+03  0.00000000000E+00 0. -1.
        -14    1    5    5    0    0 -0.13531630785E+03  0.10051907259E+02 -0.36921829337E+02  0.14062277728E+03  0.00000000000E+00 0.  1.
          4    1    6    6  502    0 -0.10950603622E+03  0.17354606836E+03  0.16962157096E+03  0.26623539800E+03  0.00000000000E+00 0. -1.
         -3    1    6    6    0  502 -0.74178816473E+02  0.48409667772E+02  0.13005259891E+03  0.15735206141E+03  0.00000000000E+00 0.  1.
<mgrwt>
<rscale>  0 0.91707435E+03</rscale>
<asrwt>0</asrwt>
<pdfrwt beam="1">  1        1 0.26565312E+00 0.91707435E+03</pdfrwt>
<pdfrwt beam="2">  1       -2 0.10074902E+00 0.91707435E+03</pdfrwt>
<totfact> 0.32973878E+00</totfact>
</mgrwt>
</event>
<event>
12    3  0.2269558E-007  0.6189594E+03  0.7818608E-02  0.9866834E-01
          1   -1    0    0  501    0  0.00000000000E+00  0.00000000000E+00  0.15603077535E+04  0.15603077535E+04  0.00000000000E+00 0. -1.
         -2   -1    0    0    0  501 -0.00000000000E+00 -0.00000000000E+00 -0.57877728699E+03  0.57877728699E+03  0.00000000000E+00 0.  1.
        -24    2    1    2    0    0  0.51590843869E+03  0.68801899351E+02 -0.31863071357E+03  0.61541047361E+03  0.79431108098E+02 0.  0.
    5000000    2    1    2    0    0 -0.51590843869E+03 -0.68801899351E+02  0.13001611801E+04  0.15236745669E+04  0.60022485215E+03 0.  0.
        -24    2    4    4    0    0  0.30054181325E+02 -0.13798377023E+03  0.64172245622E+03  0.66183912956E+03  0.79249908091E+02 0.  0.
         24    2    4    4    0    0 -0.54596262001E+03  0.69181870875E+02  0.65843872390E+03  0.86183543737E+03  0.79733645759E+02 0.  0.
         11    1    5    5    0    0  0.21230214065E+02 -0.14675208861E+03  0.56595257280E+03  0.58505487961E+03  0.00000000000E+00 0. -1.
        -12    1    5    5    0    0  0.88239672600E+01  0.87683183862E+01  0.75769883425E+02  0.76784249946E+02  0.00000000000E+00 0.  1.
         13    1    3    3    0    0  0.12778926952E+03 -0.17170944177E+02 -0.81198026206E+02  0.15237472949E+03  0.00000000000E+00 0. -1.
        -14    1    3    3    0    0  0.38811916917E+03  0.85972843528E+02 -0.23743268736E+03  0.46303574412E+03  0.00000000000E+00 0.  1.
          4    1    6    6  502    0 -0.47004444863E+03  0.66905044777E+02  0.60459062897E+03  0.76873135577E+03  0.00000000000E+00 0. -1.
         -3    1    6    6    0  502 -0.75918171380E+02  0.22768260975E+01  0.53848094931E+02  0.93104081599E+02  0.00000000000E+00 0.  1.
<mgrwt>
<rscale>  0 0.61895939E+03</rscale>
<asrwt>0</asrwt>
<pdfrwt beam="1">  1        1 0.24004734E+00 0.61895939E+03</pdfrwt>
<pdfrwt beam="2">  1       -2 0.89042660E-01 0.61895939E+03</pdfrwt>
<totfact> 0.59661271E+00</totfact>
</mgrwt>
</event>
<event>
12    3  0.2269558E-007  0.7602529E+03  0.7818608E-02  0.9619401E-01
          1   -1    0    0  501    0  0.00000000000E+00  0.00000000000E+00  0.10724081951E+04  0.10724081951E+04  0.00000000000E+00 0. -1.
         -2   -1    0    0    0  501 -0.00000000000E+00 -0.00000000000E+00 -0.61250933248E+03  0.61250933248E+03  0.00000000000E+00 0.  1.
        -24    2    1    2    0    0  0.14818753114E+03 -0.63579559520E+03  0.45198797463E+03  0.79819918338E+03  0.81444606242E+02 0.  0.
    5000000    2    1    2    0    0 -0.14818753114E+03  0.63579559520E+03  0.79108879950E+01  0.88671834420E+03  0.60000938038E+03 0.  0.
        -24    2    4    4    0    0  0.20552196146E+03  0.11814305939E+03 -0.44272618127E+02  0.25265930328E+03  0.75363118943E+02 0.  0.
         24    2    4    4    0    0 -0.35370949260E+03  0.51765253581E+03  0.52183506122E+02  0.63405904092E+03  0.78950592664E+02 0.  0.
         11    1    5    5    0    0  0.78697971654E+02  0.34643269645E+02  0.19166822055E+02  0.88095936012E+02  0.00000000000E+00 0. -1.
        -12    1    5    5    0    0  0.12682398980E+03  0.83499789747E+02 -0.63439440182E+02  0.16456336727E+03  0.00000000000E+00 0.  1.
         11    1    3    3    0    0  0.10730861617E+02 -0.14250794173E+02  0.28550820425E+02  0.33665796776E+02  0.00000000000E+00 0. -1.
        -12    1    3    3    0    0  0.13745666952E+03 -0.62154480102E+03  0.42343715421E+03  0.76453338661E+03  0.00000000000E+00 0.  1.
          4    1    6    6  502    0 -0.22075854365E+02  0.52991169014E+02  0.24801134203E+02  0.62534019518E+02  0.00000000000E+00 0. -1.
         -1    1    6    6    0  502 -0.33163363823E+03  0.46466136679E+03  0.27382371919E+02  0.57152502140E+03  0.00000000000E+00 0.  1.
<mgrwt>
<rscale>  0 0.76025289E+03</rscale>
<asrwt>0</asrwt>
<pdfrwt beam="1">  1        1 0.16498588E+00 0.76025289E+03</pdfrwt>
<pdfrwt beam="2">  1       -2 0.94232205E-01 0.76025289E+03</pdfrwt>
<totfact> 0.11344213E+01</totfact>
</mgrwt>
</event>
<event>
12    3  0.2269558E-007  0.9720509E+03  0.7818608E-02  0.9339741E-01
          1   -1    0    0  501    0  0.00000000000E+00  0.00000000000E+00  0.18478523635E+04  0.18478523635E+04  0.00000000000E+00 0. -1.
         -2   -1    0    0    0  501 -0.00000000000E+00 -0.00000000000E+00 -0.91696582964E+03  0.91696582964E+03  0.00000000000E+00 0.  1.
        -24    2    1    2    0    0  0.86355073447E+03 -0.40731919524E+03 -0.38394729299E+03  0.10326487091E+04  0.85551357318E+02 0.  0.
    5000000    2    1    2    0    0 -0.86355073447E+03  0.40731919524E+03  0.13148338269E+04  0.17321694841E+04  0.59999527628E+03 0.  0.
        -24    2    4    4    0    0 -0.64811542522E+03  0.19031666567E+03  0.12290835156E+04  0.14046750457E+04  0.78687089100E+02 0.  0.
         24    2    4    4    0    0 -0.21543530925E+03  0.21700252957E+03  0.85750311319E+02  0.32749443847E+03  0.79981379227E+02 0.  0.
         11    1    3    3    0    0  0.32567792801E+03 -0.19312828325E+03 -0.12849106302E+03  0.39984321910E+03  0.00000000000E+00 0. -1.
        -12    1    3    3    0    0  0.53787280646E+03 -0.21419091199E+03 -0.25545622996E+03  0.63280548997E+03  0.00000000000E+00 0.  1.
         11    1    5    5    0    0 -0.41774703604E+03  0.95943732672E+02  0.71856985504E+03  0.83669613513E+03  0.00000000000E+00 0. -1.
        -12    1    5    5    0    0 -0.23036838918E+03  0.94372933000E+02  0.51051366053E+03  0.56797891053E+03  0.00000000000E+00 0.  1.
          4    1    6    6  502    0 -0.79626179606E+02  0.11127886595E+03  0.38382317002E+01  0.13688698443E+03  0.00000000000E+00 0. -1.
         -3    1    6    6    0  502 -0.13580912965E+03  0.10572366362E+03  0.81912079619E+02  0.19060745403E+03  0.00000000000E+00 0.  1.
<mgrwt>
<rscale>  0 0.97205094E+03</rscale>
<asrwt>0</asrwt>
<pdfrwt beam="1">  1        1 0.28428498E+00 0.97205094E+03</pdfrwt>
<pdfrwt beam="2">  1       -2 0.14107167E+00 0.97205094E+03</pdfrwt>
<totfact> 0.11745692E+00</totfact>
</mgrwt>
</event>
<event>
12    3  0.2269558E-007  0.6308535E+03  0.7818608E-02  0.9843385E-01
          1   -1    0    0  501    0  0.00000000000E+00  0.00000000000E+00  0.62648458085E+03  0.62648458085E+03  0.00000000000E+00 0. -1.
         -2   -1    0    0    0  501 -0.00000000000E+00 -0.00000000000E+00 -0.67902386201E+03  0.67902386201E+03  0.00000000000E+00 0.  1.
        -24    2    1    2    0    0  0.46167035091E+03  0.19933880418E+03 -0.10919944565E+03  0.52057534958E+03  0.78731848014E+02 0.  0.
    5000000    2    1    2    0    0 -0.46167035091E+03 -0.19933880418E+03  0.56660164487E+02  0.78493309328E+03  0.60002842843E+03 0.  0.
        -24    2    4    4    0    0 -0.34783769432E+03  0.15562506333E+03  0.98735675930E+02  0.40151130585E+03  0.79071948864E+02 0.  0.
         24    2    4    4    0    0 -0.11383265660E+03 -0.35496386751E+03 -0.42075511443E+02  0.38342178743E+03  0.79276083836E+02 0.  0.
         13    1    5    5    0    0 -0.30229954555E+03  0.13516205795E+03  0.56099719200E+02  0.33585856494E+03  0.00000000000E+00 0. -1.
        -14    1    5    5    0    0 -0.45538148768E+02  0.20463005379E+02  0.42635956730E+02  0.65652740907E+02  0.00000000000E+00 0.  1.
         13    1    3    3    0    0  0.13412595409E+03  0.67253977658E+02 -0.68911525457E+02  0.16511107598E+03  0.00000000000E+00 0. -1.
        -14    1    3    3    0    0  0.32754439682E+03  0.13208482652E+03 -0.40287920192E+02  0.35546427359E+03  0.00000000000E+00 0.  1.
          4    1    6    6  502    0 -0.11738498324E+03 -0.29704315130E+03 -0.54670193042E+02  0.32404119805E+03  0.00000000000E+00 0. -1.
         -3    1    6    6    0  502  0.35523266476E+01 -0.57920716210E+02  0.12594681599E+02  0.59380589383E+02  0.00000000000E+00 0.  1.
<mgrwt>
<rscale>  0 0.63085350E+03</rscale>
<asrwt>0</asrwt>
<pdfrwt beam="1">  1        1 0.96382244E-01 0.63085350E+03</pdfrwt>
<pdfrwt beam="2">  1       -2 0.10446521E+00 0.63085350E+03</pdfrwt>
<totfact> 0.21604190E+01</totfact>
</mgrwt>
</event>
<event>
12    3  0.2269558E-007  0.5709363E+03  0.7818608E-02  0.9967609E-01
         -2   -1    0    0    0  501 -0.00000000000E+00  0.00000000000E+00  0.44383783812E+03  0.44383783812E+03  0.00000000000E+00 0.  1.
          1   -1    0    0  501    0  0.00000000000E+00 -0.00000000000E+00 -0.10153153142E+04  0.10153153142E+04  0.00000000000E+00 0. -1.
        -24    2    1    2    0    0 -0.49753648826E+03 -0.11992331364E+03 -0.66154208093E+02  0.52230052879E+03  0.80605860999E+02 0.  0.
    5000000    2    1    2    0    0  0.49753648826E+03  0.11992331364E+03 -0.50532326804E+03  0.93685262358E+03  0.60034746171E+03 0.  0.
        -24    2    4    4    0    0  0.31455760530E+03 -0.10909740085E+03  0.58208490834E+01  0.34252396929E+03  0.80249967782E+02 0.  0.
         24    2    4    4    0    0  0.18297888296E+03  0.22902071449E+03 -0.51114411712E+03  0.59432865429E+03  0.77630416525E+02 0.  0.
         11    1    3    3    0    0 -0.22419192398E+03 -0.40483946915E+02 -0.67624907754E+02  0.23764279262E+03  0.00000000000E+00 0. -1.
        -12    1    3    3    0    0 -0.27334456428E+03 -0.79439366724E+02  0.14706996608E+01  0.28465773617E+03  0.00000000000E+00 0.  1.
         13    1    5    5    0    0  0.13357323197E+03 -0.22242009870E+02 -0.29771479049E+02  0.13864651552E+03  0.00000000000E+00 0. -1.
        -14    1    5    5    0    0  0.18098437332E+03 -0.86855390981E+02  0.35592328132E+02  0.20387745376E+03  0.00000000000E+00 0.  1.
          2    1    6    6  502    0  0.15163322423E+03  0.18501587011E+03 -0.34655132771E+03  0.42109539255E+03  0.00000000000E+00 0. -1.
         -3    1    6    6    0  502  0.31345658728E+02  0.44004844380E+02 -0.16459278941E+03  0.17323326175E+03  0.00000000000E+00 0.  1.
<mgrwt>
<rscale>  0 0.57093634E+03</rscale>
<asrwt>0</asrwt>
<pdfrwt beam="1">  1        1 0.15620236E+00 0.57093634E+03</pdfrwt>
<pdfrwt beam="2">  1       -2 0.68282745E-01 0.57093634E+03</pdfrwt>
<totfact> 0.26455899E+01</totfact>
</mgrwt>
</event>
<event>
12    3  0.2269558E-007  0.7295952E+03  0.7818608E-02  0.9667917E-01
          1   -1    0    0  501    0  0.00000000000E+00  0.00000000000E+00  0.12871774195E+04  0.12871774195E+04  0.00000000000E+00 0. -1.
         -2   -1    0    0    0  501 -0.00000000000E+00 -0.00000000000E+00 -0.45958543051E+03  0.45958543051E+03  0.00000000000E+00 0.  1.
        -24    2    1    2    0    0  0.63175791333E+03 -0.57972292993E+02  0.50852722233E+03  0.81710643426E+03  0.81142721557E+02 0.  0.
    5000000    2    1    2    0    0 -0.63175791333E+03  0.57972292993E+02  0.31906476669E+03  0.92965641576E+03  0.59998323161E+03 0.  0.
        -24    2    4    4    0    0  0.73285258783E+02  0.42858403560E+02  0.16743514282E+03  0.20377094558E+03  0.79249601265E+02 0.  0.
         24    2    4    4    0    0 -0.70504317211E+03  0.15113889433E+02  0.15162962387E+03  0.72588547018E+03  0.81264191307E+02 0.  0.
         11    1    5    5    0    0  0.56499209567E+01 -0.21119565656E+02  0.44304316021E+02  0.49404757650E+02  0.00000000000E+00 0. -1.
        -12    1    5    5    0    0  0.67635337826E+02  0.63977969216E+02  0.12313082680E+03  0.15436618793E+03  0.00000000000E+00 0.  1.
         13    1    3    3    0    0  0.30762977641E+03 -0.62520064380E+02  0.27817898402E+03  0.41943817773E+03  0.00000000000E+00 0. -1.
        -14    1    3    3    0    0  0.32412813692E+03  0.45477713871E+01  0.23034823830E+03  0.39766825654E+03  0.00000000000E+00 0.  1.
          4    1    6    6  502    0 -0.18552550621E+03  0.20068819812E+02  0.73229684815E+02  0.20046211044E+03  0.00000000000E+00 0. -1.
         -3    1    6    6    0  502 -0.51951766590E+03 -0.49549303798E+01  0.78399939051E+02  0.52542335974E+03  0.00000000000E+00 0.  1.
<mgrwt>
<rscale>  0 0.72959524E+03</rscale>
<asrwt>0</asrwt>
<pdfrwt beam="1">  1        1 0.19802729E+00 0.72959524E+03</pdfrwt>
<pdfrwt beam="2">  1       -2 0.70705452E-01 0.72959524E+03</pdfrwt>
<totfact> 0.15188933E+01</totfact>
</mgrwt>
</event>
<event>
12    3  0.2269558E-007  0.9133900E+03  0.7818608E-02  0.9408996E-01
         -2   -1    0    0    0  501 -0.00000000000E+00  0.00000000000E+00  0.80872485765E+03  0.80872485765E+03  0.00000000000E+00 0.  1.
          1   -1    0    0  501    0  0.00000000000E+00 -0.00000000000E+00 -0.19381692993E+04  0.19381692993E+04  0.00000000000E+00 0. -1.
        -24    2    1    2    0    0 -0.66170181397E+03  0.59274377606E+03 -0.13827208506E+04  0.16453304321E+04  0.77464867461E+02 0.  0.
    5000000    2    1    2    0    0  0.66170181397E+03 -0.59274377606E+03  0.25327640888E+03  0.11015637248E+04  0.60008268257E+03 0.  0.
        -24    2    4    4    0    0 -0.24316184272E+02 -0.52283151532E+02  0.20024697293E+03  0.22304591422E+03  0.79535054742E+02 0.  0.
         24    2    4    4    0    0  0.68601799824E+03 -0.54046062453E+03  0.53029435947E+02  0.87851781062E+03  0.79139382860E+02 0.  0.
         11    1    5    5    0    0 -0.21091023085E+02 -0.15413781337E+02  0.80752196007E+01  0.27342733614E+02  0.00000000000E+00 0. -1.
        -12    1    5    5    0    0 -0.32251611870E+01 -0.36869370195E+02  0.19217175333E+03  0.19570318061E+03  0.00000000000E+00 0.  1.
         13    1    3    3    0    0 -0.11061128773E+03  0.12492925264E+03 -0.21819287688E+03  0.27468219211E+03  0.00000000000E+00 0. -1.
        -14    1    3    3    0    0 -0.55109052623E+03  0.46781452343E+03 -0.11645279737E+04  0.13706482400E+04  0.00000000000E+00 0.  1.
          2    1    6    6  502    0  0.14829004891E+03 -0.13372549427E+03 -0.18343087340E+02  0.20052160800E+03  0.00000000000E+00 0. -1.
         -3    1    6    6    0  502  0.53772794933E+03 -0.40673513027E+03  0.71372523286E+02  0.67799620262E+03  0.00000000000E+00 0.  1.
<mgrwt>
<rscale>  0 0.91338997E+03</rscale>
<asrwt>0</asrwt>
<pdfrwt beam="1">  1        1 0.29817989E+00 0.91338997E+03</pdfrwt>
<pdfrwt beam="2">  1       -2 0.12441921E+00 0.91338997E+03</pdfrwt>
<totfact> 0.14197665E+00</totfact>
</mgrwt>
</event>
<event>
12    3  0.2269558E-007  0.7644433E+03  0.7818608E-02  0.9612960E-01
         -2   -1    0    0    0  501 -0.00000000000E+00  0.00000000000E+00  0.73751406405E+03  0.73751406405E+03  0.00000000000E+00 0.  1.
          1   -1    0    0  501    0  0.00000000000E+00 -0.00000000000E+00 -0.11387380133E+04  0.11387380133E+04  0.00000000000E+00 0. -1.
        -24    2    1    2    0    0  0.59557886373E+03 -0.44619516228E+03  0.16296009525E+03  0.76633364773E+03  0.83108129815E+02 0.  0.
    5000000    2    1    2    0    0 -0.59557886373E+03  0.44619516228E+03 -0.56418404445E+03  0.11099184296E+04  0.59984246144E+03 0.  0.
        -24    2    4    4    0    0 -0.40069553908E+03  0.39985411378E+03 -0.66108654498E+03  0.87360174718E+03  0.75527249218E+02 0.  0.
         24    2    4    4    0    0 -0.19488332465E+03  0.46341048501E+02  0.96902500532E+02  0.23631668240E+03  0.79551723866E+02 0.  0.
         11    1    5    5    0    0 -0.16638728587E+03  0.21072746836E+03 -0.34309015756E+03  0.43566231308E+03  0.00000000000E+00 0. -1.
        -12    1    5    5    0    0 -0.23430825321E+03  0.18912664542E+03 -0.31799638742E+03  0.43793943410E+03  0.00000000000E+00 0.  1.
         13    1    3    3    0    0  0.14450396930E+03 -0.99718990135E+02  0.34420139544E+01  0.17560501586E+03  0.00000000000E+00 0. -1.
        -14    1    3    3    0    0  0.45107489443E+03 -0.34647617214E+03  0.15951808129E+03  0.59072863187E+03  0.00000000000E+00 0.  1.
          2    1    6    6  502    0 -0.18847997158E+03  0.61667031853E+02  0.84387786406E+02  0.21551988539E+03  0.00000000000E+00 0. -1.
         -1    1    6    6    0  502 -0.64033530663E+01 -0.15325983352E+02  0.12514714126E+02  0.20796797009E+02  0.00000000000E+00 0.  1.
<mgrwt>
<rscale>  0 0.76444333E+03</rscale>
<asrwt>0</asrwt>
<pdfrwt beam="1">  1        1 0.17519046E+00 0.76444333E+03</pdfrwt>
<pdfrwt beam="2">  1       -2 0.11346370E+00 0.76444333E+03</pdfrwt>
<totfact> 0.64930664E+00</totfact>
</mgrwt>
</event>
<event>
12    3  0.2269558E-007  0.8731029E+03  0.7818608E-02  0.9459843E-01
         -2   -1    0    0    0  501 -0.00000000000E+00  0.00000000000E+00  0.74896101085E+03  0.74896101085E+03  0.00000000000E+00 0.  1.
          1   -1    0    0  501    0  0.00000000000E+00 -0.00000000000E+00 -0.12562877463E+04  0.12562877463E+04  0.00000000000E+00 0. -1.
        -24    2    1    2    0    0  0.52697230972E+02  0.86351468352E+03 -0.36723205899E+03  0.94326282339E+03  0.80316636174E+02 0.  0.
    5000000    2    1    2    0    0 -0.52697230972E+02 -0.86351468352E+03 -0.14009467649E+03  0.10619859338E+04  0.59979413000E+03 0.  0.
        -24    2    4    4    0    0 -0.83919125477E+02 -0.64022762663E+03 -0.35514978008E+03  0.74133133770E+03  0.80665683162E+02 0.  0.
         24    2    4    4    0    0  0.31221894505E+02 -0.22328705688E+03  0.21505510359E+03  0.32065459609E+03  0.75754577032E+02 0.  0.
         13    1    3    3    0    0  0.63274792805E+02  0.42499283101E+03 -0.16549094073E+03  0.46044528152E+03  0.00000000000E+00 0. -1.
        -14    1    3    3    0    0 -0.10577561833E+02  0.43852185251E+03 -0.20174111826E+03  0.48281754187E+03  0.00000000000E+00 0.  1.
         13    1    5    5    0    0 -0.86849608518E+02 -0.35815816660E+03 -0.19469799037E+03  0.41680623107E+03  0.00000000000E+00 0. -1.
        -14    1    5    5    0    0  0.29304830408E+01 -0.28206946003E+03 -0.16045178971E+03  0.32452510663E+03  0.00000000000E+00 0.  1.
          4    1    6    6  502    0  0.13103698567E+02 -0.17797179040E+03  0.12387138759E+03  0.21723210112E+03  0.00000000000E+00 0. -1.
         -3    1    6    6    0  502  0.18118195938E+02 -0.45315266486E+02  0.91183716004E+02  0.10342249497E+03  0.00000000000E+00 0.  1.
<mgrwt>
<rscale>  0 0.87310294E+03</rscale>
<asrwt>0</asrwt>
<pdfrwt beam="1">  1        1 0.19327504E+00 0.87310294E+03</pdfrwt>
<pdfrwt beam="2">  1       -2 0.11522477E+00 0.87310294E+03</pdfrwt>
<totfact> 0.50676162E+00</totfact>
</mgrwt>
</event>
<event>
12    3  0.3454275E-007  0.7867619E+03  0.7818608E-02  0.9579379E-01
         -2   -1    0    0    0  501 -0.00000000000E+00  0.00000000000E+00  0.11256009960E+04  0.11256009960E+04  0.00000000000E+00 0.  1.
          1   -1    0    0  501    0  0.00000000000E+00 -0.00000000000E+00 -0.65087996355E+03  0.65087996355E+03  0.00000000000E+00 0. -1.
        -24    2    1    2    0    0  0.48724085535E+03  0.50941254772E+03 -0.51610129694E+02  0.71163417618E+03  0.82793721535E+02 0.  0.
    5000000    2    1    2    0    0 -0.48724085535E+03 -0.50941254772E+03  0.52633116216E+03  0.10648467834E+04  0.59997448689E+03 0.  0.
        -24    2    4    4    0    0 -0.56923331777E+03 -0.35272498934E+03  0.54831060270E+03  0.86923913415E+03  0.80564676733E+02 0.  0.
         24    2    4    4    0    0  0.81992462423E+02 -0.15668755839E+03 -0.21979440544E+02  0.19560764923E+03  0.80656690873E+02 0.  0.
         13    1    3    3    0    0  0.18441594137E+03  0.14738544811E+03 -0.40482631974E+02  0.23952150892E+03  0.00000000000E+00 0. -1.
        -14    1    3    3    0    0  0.30282491398E+03  0.36202709961E+03 -0.11127497720E+02  0.47211266726E+03  0.00000000000E+00 0.  1.
         13    1    5    5    0    0 -0.39228861267E+03 -0.26680463987E+03  0.34696939692E+03  0.58776086455E+03  0.00000000000E+00 0. -1.
        -14    1    5    5    0    0 -0.17694470510E+03 -0.85920349463E+02  0.20134120578E+03  0.28147826960E+03  0.00000000000E+00 0.  1.
          2    1    6    6  502    0  0.38552222782E+02 -0.14402501471E+03 -0.15529592271E+02  0.14990212467E+03  0.00000000000E+00 0. -1.
         -1    1    6    6    0  502  0.43440239642E+02 -0.12662543674E+02 -0.64498482728E+01  0.45705524559E+02  0.00000000000E+00 0.  1.
<mgrwt>
<rscale>  0 0.78676188E+03</rscale>
<asrwt>0</asrwt>
<pdfrwt beam="1">  1        1 0.10013538E+00 0.78676188E+03</pdfrwt>
<pdfrwt beam="2">  1       -2 0.17316938E+00 0.78676188E+03</pdfrwt>
<totfact> 0.54892378E+00</totfact>
</mgrwt>
</event>
<event>
12    3  0.2269558E-007  0.4887372E+03  0.7818608E-02  0.1016761E+00
          1   -1    0    0  501    0  0.00000000000E+00  0.00000000000E+00  0.69951282215E+03  0.69951282215E+03  0.00000000000E+00 0. -1.
         -2   -1    0    0    0  501 -0.00000000000E+00 -0.00000000000E+00 -0.46438086022E+03  0.46438086022E+03  0.00000000000E+00 0.  1.
        -24    2    1    2    0    0  0.57125658138E+02 -0.33013493178E+03  0.32149548272E+03  0.47133790399E+03  0.80917614434E+02 0.  0.
    5000000    2    1    2    0    0 -0.57125658138E+02  0.33013493178E+03 -0.86363520800E+02  0.69255577838E+03  0.59993535855E+03 0.  0.
        -24    2    4    4    0    0  0.18375964350E+03  0.33501902713E+03 -0.16990117737E+03  0.42570624772E+03  0.79712258541E+02 0.  0.
         24    2    4    4    0    0 -0.24088530164E+03 -0.48840953438E+01  0.83537656572E+02  0.26684953066E+03  0.78616467829E+02 0.  0.
         13    1    3    3    0    0  0.23234206808E+02 -0.88601154447E+02  0.14006828536E+03  0.16735924683E+03  0.00000000000E+00 0. -1.
        -14    1    3    3    0    0  0.33891451331E+02 -0.24153377734E+03  0.18142719737E+03  0.30397865717E+03  0.00000000000E+00 0.  1.
         13    1    5    5    0    0  0.36832441945E+02  0.22157476527E+02 -0.31916386865E+02  0.53537260821E+02  0.00000000000E+00 0. -1.
        -14    1    5    5    0    0  0.14692720155E+03  0.31286155060E+03 -0.13798479051E+03  0.37216898690E+03  0.00000000000E+00 0.  1.
          4    1    6    6  502    0 -0.11859524605E+03 -0.41579188700E+02  0.44932698005E+02  0.13346388526E+03  0.00000000000E+00 0. -1.
         -3    1    6    6    0  502 -0.12229005558E+03  0.36695093356E+02  0.38604958566E+02  0.13338564539E+03  0.00000000000E+00 0.  1.
<mgrwt>
<rscale>  0 0.48873718E+03</rscale>
<asrwt>0</asrwt>
<pdfrwt beam="1">  1        1 0.10761736E+00 0.48873718E+03</pdfrwt>
<pdfrwt beam="2">  1       -2 0.71443210E-01 0.48873718E+03</pdfrwt>
<totfact> 0.44379798E+01</totfact>
</mgrwt>
</event>
<event>
12    3  0.2269558E-007  0.8036988E+03  0.7818608E-02  0.9554679E-01
          1   -1    0    0  501    0  0.00000000000E+00  0.00000000000E+00  0.11158193964E+04  0.11158193964E+04  0.00000000000E+00 0. -1.
         -2   -1    0    0    0  501 -0.00000000000E+00 -0.00000000000E+00 -0.68737340562E+03  0.68737340562E+03  0.00000000000E+00 0.  1.
        -24    2    1    2    0    0 -0.40526853387E+03  0.64502219657E+03  0.31000988458E+03  0.82632332114E+03  0.80049259237E+02 0.  0.
    5000000    2    1    2    0    0  0.40526853387E+03 -0.64502219657E+03  0.11843610620E+03  0.97686948089E+03  0.59995887595E+03 0.  0.
        -24    2    4    4    0    0  0.35261190163E+03 -0.23374835323E+03 -0.17264016250E+03  0.46371639685E+03  0.79087452747E+02 0.  0.
         24    2    4    4    0    0  0.52656632239E+02 -0.41127384334E+03  0.29107626870E+03  0.51315308405E+03  0.81742267715E+02 0.  0.
         11    1    5    5    0    0  0.30455878902E+03 -0.22632296381E+03 -0.16767211551E+03  0.41483982238E+03  0.00000000000E+00 0. -1.
        -12    1    5    5    0    0  0.48053112619E+02 -0.74253894221E+01 -0.49680469935E+01  0.48876574465E+02  0.00000000000E+00 0.  1.
         11    1    3    3    0    0 -0.10290188123E+03  0.19846187150E+03  0.12528709734E+03  0.25626698648E+03  0.00000000000E+00 0. -1.
        -12    1    3    3    0    0 -0.30236665265E+03  0.44656032507E+03  0.18472278724E+03  0.57005633466E+03  0.00000000000E+00 0.  1.
          2    1    6    6  502    0  0.24970770987E+02 -0.74586751246E+02  0.23181093114E+02  0.82000524041E+02  0.00000000000E+00 0. -1.
         -1    1    6    6    0  502  0.27685861252E+02 -0.33668709209E+03  0.26789517559E+03  0.43115256000E+03  0.00000000000E+00 0.  1.
<mgrwt>
<rscale>  0 0.80369875E+03</rscale>
<asrwt>0</asrwt>
<pdfrwt beam="1">  1        1 0.17166452E+00 0.80369875E+03</pdfrwt>
<pdfrwt beam="2">  1       -2 0.10574975E+00 0.80369875E+03</pdfrwt>
<totfact> 0.79679409E+00</totfact>
</mgrwt>
</event>
<event>
12    3  0.2269558E-007  0.4283347E+03  0.7818608E-02  0.1034387E+00
         -2   -1    0    0    0  501 -0.00000000000E+00  0.00000000000E+00  0.58556048397E+03  0.58556048397E+03  0.00000000000E+00 0.  1.
          1   -1    0    0  501    0  0.00000000000E+00 -0.00000000000E+00 -0.36229410615E+03  0.36229410615E+03  0.00000000000E+00 0. -1.
        -24    2    1    2    0    0 -0.24821574168E+03  0.54145846745E+01  0.13134197790E+03  0.29212829568E+03  0.80298529449E+02 0.  0.
    5000000    2    1    2    0    0  0.24821574168E+03 -0.54145846745E+01  0.91924399926E+02  0.65572629444E+03  0.59990541402E+03 0.  0.
        -24    2    4    4    0    0  0.93614165284E+02 -0.26715178440E+03  0.16023387082E+03  0.33390485740E+03  0.75391462273E+02 0.  0.
         24    2    4    4    0    0  0.15460157639E+03  0.26173719973E+03 -0.68309470894E+02  0.32182143704E+03  0.80590597361E+02 0.  0.
         11    1    3    3    0    0 -0.21028292829E+03 -0.17140523350E+02  0.83128687063E+02  0.22676658943E+03  0.00000000000E+00 0. -1.
        -12    1    3    3    0    0 -0.37932813390E+02  0.22555108025E+02  0.48213290837E+02  0.65361706243E+02  0.00000000000E+00 0.  1.
         13    1    5    5    0    0  0.24399532327E+02 -0.16417850216E+03  0.68306890519E+02  0.17948746207E+03  0.00000000000E+00 0. -1.
        -14    1    5    5    0    0  0.69214632957E+02 -0.10297328225E+03  0.91926980302E+02  0.15441739533E+03  0.00000000000E+00 0.  1.
          4    1    6    6  502    0  0.12329718887E+02  0.78774678220E+02 -0.37164867975E+02  0.87969877277E+02  0.00000000000E+00 0. -1.
         -3    1    6    6    0  502  0.14227185751E+03  0.18296252151E+03 -0.31144602919E+02  0.23385155977E+03  0.00000000000E+00 0.  1.
<mgrwt>
<rscale>  0 0.42833466E+03</rscale>
<asrwt>0</asrwt>
<pdfrwt beam="1">  1        1 0.55737555E-01 0.42833466E+03</pdfrwt>
<pdfrwt beam="2">  1       -2 0.90086229E-01 0.42833466E+03</pdfrwt>
<totfact> 0.65539105E+01</totfact>
</mgrwt>
</event>
<event>
12    3  0.2269558E-007  0.9672459E+03  0.7818608E-02  0.9345217E-01
         -2   -1    0    0    0  501 -0.00000000000E+00  0.00000000000E+00  0.51594527434E+03  0.51594527434E+03  0.00000000000E+00 0.  1.
          1   -1    0    0  501    0  0.00000000000E+00 -0.00000000000E+00 -0.32121245440E+04  0.32121245440E+04  0.00000000000E+00 0. -1.
        -24    2    1    2    0    0  0.24786028408E+03 -0.89508985069E+03 -0.24128115309E+04  0.25866164918E+04  0.79402964296E+02 0.  0.
    5000000    2    1    2    0    0 -0.24786028408E+03  0.89508985069E+03 -0.28336773881E+03  0.11414533266E+04  0.59999821681E+03 0.  0.
        -24    2    4    4    0    0  0.32758883908E+02  0.54693733129E+03  0.81294384688E+02  0.56049135093E+03  0.85604840120E+02 0.  0.
         24    2    4    4    0    0 -0.28061916798E+03  0.34815251940E+03 -0.36466212349E+03  0.58096197567E+03  0.67683518373E+02 0.  0.
         11    1    3    3    0    0  0.63219066184E+02 -0.36731154932E+03 -0.93278274591E+03  0.10044889624E+04  0.00000000000E+00 0. -1.
        -12    1    3    3    0    0  0.18464121789E+03 -0.52777830137E+03 -0.14800287850E+04  0.15821275293E+04  0.00000000000E+00 0.  1.
         13    1    5    5    0    0  0.56343872681E+02  0.30547020910E+03  0.64836404713E+02  0.31731756965E+03  0.00000000000E+00 0. -1.
        -14    1    5    5    0    0 -0.23584988773E+02  0.24146712219E+03  0.16457979974E+02  0.24317378127E+03  0.00000000000E+00 0.  1.
          4    1    6    6  502    0 -0.20290270023E+03  0.21806759795E+03 -0.27183107020E+03  0.40325564319E+03  0.00000000000E+00 0. -1.
         -3    1    6    6    0  502 -0.77716467757E+02  0.13008492145E+03 -0.92831053293E+02  0.17770633249E+03  0.00000000000E+00 0.  1.
<mgrwt>
<rscale>  0 0.96724589E+03</rscale>
<asrwt>0</asrwt>
<pdfrwt beam="1">  1        1 0.49417301E+00 0.96724589E+03</pdfrwt>
<pdfrwt beam="2">  1       -2 0.79376195E-01 0.96724589E+03</pdfrwt>
<totfact> 0.53187542E-01</totfact>
</mgrwt>
</event>
<event>
12    3  0.2269558E-007  0.1421390E+04  0.7818608E-02  0.8938479E-01
         -2   -1    0    0    0  501 -0.00000000000E+00  0.00000000000E+00  0.60936260520E+03  0.60936260520E+03  0.00000000000E+00 0.  1.
          1   -1    0    0  501    0  0.00000000000E+00 -0.00000000000E+00 -0.49623686641E+04  0.49623686641E+04  0.00000000000E+00 0. -1.
        -24    2    1    2    0    0 -0.84743028739E+03 -0.10788428896E+04 -0.54193687871E+03  0.14770878044E+04  0.77799286911E+02 0.  0.
    5000000    2    1    2    0    0  0.84743028739E+03  0.10788428896E+04 -0.38110691802E+04  0.40946434648E+04  0.59984726022E+03 0.  0.
        -24    2    4    4    0    0  0.16029339956E+03 -0.27904382688E+02 -0.65064164915E+03  0.67528823071E+03  0.78784582352E+02 0.  0.
         24    2    4    4    0    0  0.68713688783E+03  0.11067472723E+04 -0.31604275310E+04  0.34193552341E+04  0.81494851985E+02 0.  0.
         11    1    3    3    0    0 -0.45155485596E+03 -0.63601522060E+03 -0.29943267682E+03  0.83551006979E+03  0.00000000000E+00 0. -1.
        -12    1    3    3    0    0 -0.39587543143E+03 -0.44282766902E+03 -0.24250420188E+03  0.64157773465E+03  0.00000000000E+00 0.  1.
         11    1    5    5    0    0  0.15027444441E+03 -0.21571089043E+02 -0.64410085369E+03  0.66175042898E+03  0.00000000000E+00 0. -1.
        -12    1    5    5    0    0  0.10018955147E+02 -0.63332936447E+01 -0.65407954598E+01  0.13537801738E+02  0.00000000000E+00 0.  1.
          2    1    6    6  502    0  0.57119762518E+03  0.97152763935E+03 -0.27120638062E+04  0.29369070074E+04  0.00000000000E+00 0. -1.
         -1    1    6    6    0  502  0.11593926265E+03  0.13521963295E+03 -0.44836372483E+03  0.48244822676E+03  0.00000000000E+00 0.  1.
<mgrwt>
<rscale>  0 0.14213901E+04</rscale>
<asrwt>0</asrwt>
<pdfrwt beam="1">  1        1 0.76344135E+00 0.14213901E+04</pdfrwt>
<pdfrwt beam="2">  1       -2 0.93748091E-01 0.14213901E+04</pdfrwt>
<totfact> 0.81636403E-03</totfact>
</mgrwt>
</event>
<event>
12    3  0.2269558E-007  0.4611485E+03  0.7818608E-02  0.1024449E+00
         -2   -1    0    0    0  501 -0.00000000000E+00  0.00000000000E+00  0.11432632833E+04  0.11432632833E+04  0.00000000000E+00 0.  1.
          1   -1    0    0  501    0  0.00000000000E+00 -0.00000000000E+00 -0.58088007290E+03  0.58088007290E+03  0.00000000000E+00 0. -1.
        -24    2    1    2    0    0  0.86966774539E+02 -0.41879348284E+03 -0.34440192789E+03  0.55568291367E+03  0.84968296867E+02 0.  0.
    5000000    2    1    2    0    0 -0.86966774539E+02  0.41879348284E+03  0.90678513834E+03  0.11684604426E+04  0.60007442671E+03 0.  0.
        -24    2    4    4    0    0 -0.14830179341E+03  0.19569387368E+03  0.88653660486E+03  0.92333004752E+03  0.79383315487E+02 0.  0.
         24    2    4    4    0    0  0.61335018872E+02  0.22309960916E+03  0.20248533482E+02  0.24513039505E+03  0.78380401394E+02 0.  0.
         11    1    3    3    0    0  0.72521757143E+01 -0.23242124494E+03 -0.16668809457E+03  0.28610688566E+03  0.00000000000E+00 0. -1.
        -12    1    3    3    0    0  0.79714598825E+02 -0.18637223790E+03 -0.17771383332E+03  0.26957602801E+03  0.00000000000E+00 0.  1.
         13    1    5    5    0    0 -0.10072952123E+03  0.13083594174E+03  0.71576776232E+03  0.73456651820E+03  0.00000000000E+00 0. -1.
        -14    1    5    5    0    0 -0.47572272183E+02  0.64857931947E+02  0.17076884254E+03  0.18876352932E+03  0.00000000000E+00 0.  1.
          2    1    6    6  502    0 -0.65556470557E+01  0.10558593804E+03  0.27224152818E+02  0.10923608066E+03  0.00000000000E+00 0. -1.
         -1    1    6    6    0  502  0.67890665928E+02  0.11751367111E+03 -0.69756193364E+01  0.13589431439E+03  0.00000000000E+00 0.  1.
<mgrwt>
<rscale>  0 0.46114847E+03</rscale>
<asrwt>0</asrwt>
<pdfrwt beam="1">  1        1 0.89366165E-01 0.46114847E+03</pdfrwt>
<pdfrwt beam="2">  1       -2 0.17588666E+00 0.46114847E+03</pdfrwt>
<totfact> 0.64967330E+00</totfact>
</mgrwt>
</event>
<event>
12    3  0.2269558E-007  0.4781798E+03  0.7818608E-02  0.1019637E+00
         -4   -1    0    0    0  501 -0.00000000000E+00  0.00000000000E+00  0.11843423630E+04  0.11843423630E+04  0.00000000000E+00 0.  1.
          3   -1    0    0  501    0  0.00000000000E+00 -0.00000000000E+00 -0.44410571442E+03  0.44410571442E+03  0.00000000000E+00 0. -1.
        -24    2    1    2    0    0  0.28368659042E+03  0.15715912400E+03 -0.25649440777E+03  0.42076902933E+03  0.77975143408E+02 0.  0.
    5000000    2    1    2    0    0 -0.28368659042E+03 -0.15715912400E+03  0.99673105630E+03  0.12076790480E+04  0.59986566216E+03 0.  0.
        -24    2    4    4    0    0 -0.20062677154E+02  0.18387147913E+03  0.53164070372E+03  0.56869331603E+03  0.80987764508E+02 0.  0.
         24    2    4    4    0    0 -0.26362391326E+03 -0.34103060314E+03  0.46509035258E+03  0.63898573201E+03  0.78703810087E+02 0.  0.
         13    1    5    5    0    0  0.16301554291E+02  0.78145533902E+02  0.31432504105E+03  0.32430340204E+03  0.00000000000E+00 0. -1.
        -14    1    5    5    0    0 -0.36364231445E+02  0.10572594523E+03  0.21731566267E+03  0.24438991400E+03  0.00000000000E+00 0.  1.
         13    1    3    3    0    0  0.18761986278E+03  0.64396043097E+02 -0.13257207107E+03  0.23858628901E+03  0.00000000000E+00 0. -1.
        -14    1    3    3    0    0  0.96066727633E+02  0.92763080906E+02 -0.12392233670E+03  0.18218274032E+03  0.00000000000E+00 0.  1.
          2    1    6    6  502    0 -0.23816302125E+02 -0.52457547177E+02  0.10034090797E+03  0.11570353631E+03  0.00000000000E+00 0. -1.
         -1    1    6    6    0  502 -0.23980761114E+03 -0.28857305596E+03  0.36474944461E+03  0.52328219569E+03  0.00000000000E+00 0.  1.
<mgrwt>
<rscale>  0 0.47817980E+03</rscale>
<asrwt>0</asrwt>
<pdfrwt beam="1">  1        3 0.68323956E-01 0.47817980E+03</pdfrwt>
<pdfrwt beam="2">  1       -4 0.18220652E+00 0.47817980E+03</pdfrwt>
<totfact> 0.81720485E-01</totfact>
</mgrwt>
</event>
<event>
12    3  0.2269558E-007  0.4290246E+03  0.7818608E-02  0.1034169E+00
          1   -1    0    0  501    0  0.00000000000E+00  0.00000000000E+00  0.31053443016E+04  0.31053443016E+04  0.00000000000E+00 0. -1.
         -2   -1    0    0    0  501 -0.00000000000E+00 -0.00000000000E+00 -0.81129008365E+02  0.81129008365E+02  0.00000000000E+00 0.  1.
        -24    2    1    2    0    0 -0.75507549346E+02 -0.30440088586E+03  0.11268719503E+04  0.11719609536E+04  0.72737852306E+02 0.  0.
    5000000    2    1    2    0    0  0.75507549346E+02  0.30440088586E+03  0.18973433429E+04  0.20145123563E+04  0.59998915281E+03 0.  0.
        -24    2    4    4    0    0  0.17175582546E+03  0.37688728221E+03  0.17591383321E+04  0.18089496319E+04  0.78657562299E+02 0.  0.
         24    2    4    4    0    0 -0.96248276110E+02 -0.72486396352E+02  0.13820501078E+03  0.20556272441E+03  0.92937615365E+02 0.  0.
         13    1    3    3    0    0 -0.65969500537E+02 -0.22036697613E+03  0.92323103671E+03  0.95145631866E+03  0.00000000000E+00 0. -1.
        -14    1    3    3    0    0 -0.95380488092E+01 -0.84033909727E+02  0.20364091357E+03  0.22050463496E+03  0.00000000000E+00 0.  1.
         13    1    5    5    0    0  0.13344769101E+03  0.24877729088E+03  0.13224876494E+04  0.13522839973E+04  0.00000000000E+00 0. -1.
        -14    1    5    5    0    0  0.38308134443E+02  0.12810999132E+03  0.43665068277E+03  0.45666563458E+03  0.00000000000E+00 0.  1.
          4    1    6    6  502    0 -0.99760798163E+02 -0.64766922217E+02  0.14974952328E+03  0.19123778598E+03  0.00000000000E+00 0. -1.
         -3    1    6    6    0  502  0.35125220525E+01 -0.77194741344E+01 -0.11544512499E+02  0.14324938426E+02  0.00000000000E+00 0.  1.
<mgrwt>
<rscale>  0 0.42902455E+03</rscale>
<asrwt>0</asrwt>
<pdfrwt beam="1">  1        1 0.47774519E+00 0.42902455E+03</pdfrwt>
<pdfrwt beam="2">  1       -2 0.12481388E-01 0.42902455E+03</pdfrwt>
<totfact> 0.23680459E+01</totfact>
</mgrwt>
</event>
<event>
12    3  0.2269558E-007  0.5917418E+03  0.7818608E-02  0.9922689E-01
          1   -1    0    0  501    0  0.00000000000E+00  0.00000000000E+00  0.21028159681E+04  0.21028159681E+04  0.00000000000E+00 0. -1.
         -2   -1    0    0    0  501 -0.00000000000E+00 -0.00000000000E+00 -0.20622032322E+03  0.20622032322E+03  0.00000000000E+00 0.  1.
        -24    2    1    2    0    0 -0.29762013854E+03  0.40035536198E+03  0.10006514173E+04  0.11209808762E+04  0.80204134317E+02 0.  0.
    5000000    2    1    2    0    0  0.29762013854E+03 -0.40035536198E+03  0.89594422761E+03  0.11880554151E+04  0.59991453369E+03 0.  0.
        -24    2    4    4    0    0 -0.74738127566E+02 -0.24449173556E+03  0.88882185615E+02  0.28216657449E+03  0.79724126651E+02 0.  0.
         24    2    4    4    0    0  0.37235826610E+03 -0.15586362642E+03  0.80706204200E+03  0.90588884066E+03  0.79632302587E+02 0.  0.
         11    1    5    5    0    0  0.13943422312E+02 -0.10335810231E+02  0.72382668263E+01  0.18805331838E+02  0.00000000000E+00 0. -1.
        -12    1    5    5    0    0 -0.88681549879E+02 -0.23415592533E+03  0.81643918788E+02  0.26336124265E+03  0.00000000000E+00 0.  1.
         11    1    3    3    0    0 -0.38395725861E+02  0.10754918296E+03  0.22442337420E+03  0.25180728624E+03  0.00000000000E+00 0. -1.
        -12    1    3    3    0    0 -0.25922441268E+03  0.29280617902E+03  0.77622804312E+03  0.86917358998E+03  0.00000000000E+00 0.  1.
          4    1    6    6  502    0  0.37370682164E+02 -0.43040346080E+02  0.91929334262E+02  0.10816673136E+03  0.00000000000E+00 0. -1.
         -3    1    6    6    0  502  0.33498758394E+03 -0.11282328034E+03  0.71513270774E+03  0.79772210929E+03  0.00000000000E+00 0.  1.
<mgrwt>
<rscale>  0 0.59174185E+03</rscale>
<asrwt>0</asrwt>
<pdfrwt beam="1">  1        1 0.32351013E+00 0.59174185E+03</pdfrwt>
<pdfrwt beam="2">  1       -2 0.31726205E-01 0.59174185E+03</pdfrwt>
<totfact> 0.21888011E+01</totfact>
</mgrwt>
</event>
<event>
12    3  0.2269558E-007  0.5086121E+03  0.7818608E-02  0.1011555E+00
          1   -1    0    0  501    0  0.00000000000E+00  0.00000000000E+00  0.74506310629E+03  0.74506310629E+03  0.00000000000E+00 0. -1.
         -2   -1    0    0    0  501 -0.00000000000E+00 -0.00000000000E+00 -0.81803774568E+03  0.81803774568E+03  0.00000000000E+00 0.  1.
        -24    2    1    2    0    0  0.35038272424E+03 -0.17315267817E+02  0.53165000677E+03  0.64194180582E+03  0.79810277627E+02 0.  0.
    5000000    2    1    2    0    0 -0.35038272424E+03  0.17315267817E+02 -0.60462464616E+03  0.92115904615E+03  0.59991262164E+03 0.  0.
        -24    2    4    4    0    0 -0.32152379503E+03 -0.23436973354E+03 -0.24387908955E+03  0.47347555182E+03  0.79971026486E+02 0.  0.
         24    2    4    4    0    0 -0.28858929210E+02  0.25168500136E+03 -0.36074555662E+03  0.44768349433E+03  0.78134350788E+02 0.  0.
         11    1    3    3    0    0  0.14431290199E+03  0.12004536120E+02  0.28113522701E+03  0.31623936889E+03  0.00000000000E+00 0. -1.
        -12    1    3    3    0    0  0.20606982225E+03 -0.29319803937E+02  0.25051477976E+03  0.32570243693E+03  0.00000000000E+00 0.  1.
         13    1    5    5    0    0 -0.21164784717E+03 -0.19768133339E+03 -0.16475082467E+03  0.33318996836E+03  0.00000000000E+00 0. -1.
        -14    1    5    5    0    0 -0.10987594786E+03 -0.36688400146E+02 -0.79128264878E+02  0.14028558346E+03  0.00000000000E+00 0.  1.
          2    1    6    6  502    0  0.13641615889E+02  0.28151980820E+02 -0.17429942745E+02  0.35811040368E+02  0.00000000000E+00 0. -1.
         -1    1    6    6    0  502 -0.42500545099E+02  0.22353302054E+03 -0.34331561387E+03  0.41187245396E+03  0.00000000000E+00 0.  1.
<mgrwt>
<rscale>  0 0.50861215E+03</rscale>
<asrwt>0</asrwt>
<pdfrwt beam="1">  1        1 0.11462509E+00 0.50861215E+03</pdfrwt>
<pdfrwt beam="2">  1       -2 0.12585196E+00 0.50861215E+03</pdfrwt>
<totfact> 0.10772910E+01</totfact>
</mgrwt>
</event>
<event>
12    3  0.2269558E-007  0.5553935E+03  0.7818608E-02  0.1000253E+00
         -2   -1    0    0    0  501 -0.00000000000E+00  0.00000000000E+00  0.81726397666E+03  0.81726397666E+03  0.00000000000E+00 0.  1.
          1   -1    0    0  501    0  0.00000000000E+00 -0.00000000000E+00 -0.90603603115E+03  0.90603603115E+03  0.00000000000E+00 0. -1.
        -24    2    1    2    0    0  0.37304487456E+03  0.12143205082E+03  0.60512230594E+03  0.72562939195E+03  0.80354140648E+02 0.  0.
    5000000    2    1    2    0    0 -0.37304487456E+03 -0.12143205082E+03 -0.69389436043E+03  0.99767061585E+03  0.59995754258E+03 0.  0.
        -24    2    4    4    0    0  0.14994518842E+03  0.12755063693E+02 -0.15002689899E+03  0.22699504692E+03  0.79827499809E+02 0.  0.
         24    2    4    4    0    0 -0.52299006298E+03 -0.13418711451E+03 -0.54386746144E+03  0.77067556894E+03  0.81389368200E+02 0.  0.
         11    1    3    3    0    0  0.13120672527E+03  0.91102426430E+01  0.16462427902E+03  0.21071154340E+03  0.00000000000E+00 0. -1.
        -12    1    3    3    0    0  0.24183814929E+03  0.11232180818E+03  0.44049802692E+03  0.51491784856E+03  0.00000000000E+00 0.  1.
         11    1    5    5    0    0  0.12511349676E+03  0.38739913112E+02 -0.97202896572E+02  0.16310294615E+03  0.00000000000E+00 0. -1.
        -12    1    5    5    0    0  0.24831691660E+02 -0.25984849420E+02 -0.52824002413E+02  0.63892100771E+02  0.00000000000E+00 0.  1.
          2    1    6    6  502    0 -0.52458987110E+03 -0.12892640144E+03 -0.53534504719E+03  0.76053327961E+03  0.00000000000E+00 0. -1.
         -1    1    6    6    0  502  0.15998081130E+01 -0.52607130722E+01 -0.85224142523E+01  0.10142289323E+02  0.00000000000E+00 0.  1.
<mgrwt>
<rscale>  0 0.55539347E+03</rscale>
<asrwt>0</asrwt>
<pdfrwt beam="1">  1        1 0.13939016E+00 0.55539347E+03</pdfrwt>
<pdfrwt beam="2">  1       -2 0.12573292E+00 0.55539347E+03</pdfrwt>
<totfact> 0.78363221E+00</totfact>
</mgrwt>
</event>
<event>
12    3  0.2269558E-007  0.1060428E+04  0.7818608E-02  0.9244643E-01
          1   -1    0    0  501    0  0.00000000000E+00  0.00000000000E+00  0.16426964022E+04  0.16426964022E+04  0.00000000000E+00 0. -1.
         -2   -1    0    0    0  501 -0.00000000000E+00 -0.00000000000E+00 -0.80560733120E+03  0.80560733120E+03  0.00000000000E+00 0.  1.
        -24    2    1    2    0    0  0.93341431024E+03  0.38223333950E+03  0.91188995500E+01  0.10119974520E+04  0.81799072147E+02 0.  0.
    5000000    2    1    2    0    0 -0.93341431024E+03 -0.38223333950E+03  0.82797017148E+03  0.14363062814E+04  0.60006377053E+03 0.  0.
        -24    2    4    4    0    0 -0.91109442680E+03 -0.43967638867E+03  0.86094660642E+03  0.13308232745E+04  0.80331484962E+02 0.  0.
         24    2    4    4    0    0 -0.22319883442E+02  0.57443049165E+02 -0.32976434939E+02  0.10548300692E+03  0.79002141697E+02 0.  0.
         11    1    5    5    0    0 -0.46948406311E+03 -0.18934678816E+03  0.40085770692E+03  0.64572005769E+03  0.00000000000E+00 0. -1.
        -12    1    5    5    0    0 -0.44161036369E+03 -0.25032960051E+03  0.46008889950E+03  0.68510321679E+03  0.00000000000E+00 0.  1.
         11    1    3    3    0    0  0.70613874028E+03  0.31513861227E+03  0.31946296895E+02  0.77392818230E+03  0.00000000000E+00 0. -1.
        -12    1    3    3    0    0  0.22727556996E+03  0.67094727230E+02 -0.22827397345E+02  0.23806926974E+03  0.00000000000E+00 0.  1.
          4    1    6    6  502    0 -0.12230606545E+01 -0.18194535756E+02 -0.17843882125E+02  0.25513548127E+02  0.00000000000E+00 0. -1.
         -3    1    6    6    0  502 -0.21096822788E+02  0.75637584921E+02 -0.15132552813E+02  0.79969458790E+02  0.00000000000E+00 0.  1.
<mgrwt>
<rscale>  0 0.10604281E+04</rscale>
<asrwt>0</asrwt>
<pdfrwt beam="1">  1        1 0.25272252E+00 0.10604281E+04</pdfrwt>
<pdfrwt beam="2">  1       -2 0.12393959E+00 0.10604281E+04</pdfrwt>
<totfact> 0.22265777E+00</totfact>
</mgrwt>
</event>
<event>
12    3  0.2269558E-007  0.1142331E+04  0.7818608E-02  0.9164888E-01
          1   -1    0    0  501    0  0.00000000000E+00  0.00000000000E+00  0.99675218055E+03  0.99675218055E+03  0.00000000000E+00 0. -1.
         -2   -1    0    0    0  501 -0.00000000000E+00 -0.00000000000E+00 -0.16124974115E+04  0.16124974115E+04  0.00000000000E+00 0.  1.
        -24    2    1    2    0    0  0.67368652596E+03 -0.82752923050E+03 -0.84509713748E+03  0.13637410762E+04  0.83320996233E+02 0.  0.
    5000000    2    1    2    0    0 -0.67368652596E+03  0.82752923050E+03  0.22935190654E+03  0.12455085159E+04  0.60002583571E+03 0.  0.
        -24    2    4    4    0    0 -0.49861369849E+01  0.43654921736E+03  0.12290867576E+03  0.45938273546E+03  0.72978588117E+02 0.  0.
         24    2    4    4    0    0 -0.66870038898E+03  0.39098001314E+03  0.10644323078E+03  0.78612578043E+03  0.81473924521E+02 0.  0.
         13    1    3    3    0    0  0.44291011907E+03 -0.49171283640E+03 -0.55259811470E+03  0.86215750500E+03  0.00000000000E+00 0. -1.
        -14    1    3    3    0    0  0.23077640690E+03 -0.33581639410E+03 -0.29249902278E+03  0.50158357116E+03  0.00000000000E+00 0.  1.
         13    1    5    5    0    0 -0.16291242444E+02  0.16942802769E+03  0.14315640299E+02  0.17081041744E+03  0.00000000000E+00 0. -1.
        -14    1    5    5    0    0  0.11305105459E+02  0.26712118967E+03  0.10859303546E+03  0.28857231803E+03  0.00000000000E+00 0.  1.
          4    1    6    6  502    0 -0.43406366686E+03  0.29226749828E+03  0.90630610326E+02  0.53107952791E+03  0.00000000000E+00 0. -1.
         -3    1    6    6    0  502 -0.23463672212E+03  0.98712514865E+02  0.15812620455E+02  0.25504625252E+03  0.00000000000E+00 0.  1.
<mgrwt>
<rscale>  0 0.11423307E+04</rscale>
<asrwt>0</asrwt>
<pdfrwt beam="1">  1        1 0.15334649E+00 0.11423307E+04</pdfrwt>
<pdfrwt beam="2">  1       -2 0.24807653E+00 0.11423307E+04</pdfrwt>
<totfact> 0.86664170E-01</totfact>
</mgrwt>
</event>
<event>
12    3  0.2269558E-007  0.1145174E+04  0.7818608E-02  0.9162247E-01
          1   -1    0    0  501    0  0.00000000000E+00  0.00000000000E+00  0.19668778340E+04  0.19668778340E+04  0.00000000000E+00 0. -1.
         -2   -1    0    0    0  501 -0.00000000000E+00 -0.00000000000E+00 -0.10991748927E+04  0.10991748927E+04  0.00000000000E+00 0.  1.
        -24    2    1    2    0    0 -0.17165392311E+03  0.10600197078E+04  0.13656209609E+04  0.17390293403E+04  0.78712052794E+02 0.  0.
    5000000    2    1    2    0    0  0.17165392311E+03 -0.10600197078E+04 -0.49791801963E+03  0.13270233864E+04  0.59996821885E+03 0.  0.
        -24    2    4    4    0    0  0.35713240272E+03 -0.47379369344E+03 -0.33572309109E+03  0.68617221496E+03  0.78091597988E+02 0.  0.
         24    2    4    4    0    0 -0.18547847960E+03 -0.58622601435E+03 -0.16219492854E+03  0.64085117147E+03  0.79497313384E+02 0.  0.
         11    1    3    3    0    0 -0.28464819425E+02  0.10117438856E+03  0.10315230527E+03  0.14726473077E+03  0.00000000000E+00 0. -1.
        -12    1    3    3    0    0 -0.14318910369E+03  0.95884531923E+03  0.12624686557E+04  0.15917646095E+04  0.00000000000E+00 0.  1.
         13    1    5    5    0    0  0.98895542530E+02 -0.90686766694E+02 -0.51445500873E+02  0.14370475826E+03  0.00000000000E+00 0. -1.
        -14    1    5    5    0    0  0.25823686018E+03 -0.38310692675E+03 -0.28427759022E+03  0.54246745670E+03  0.00000000000E+00 0.  1.
          4    1    6    6  502    0 -0.14083175051E+03 -0.52646514669E+03 -0.13496498393E+03  0.56143982716E+03  0.00000000000E+00 0. -1.
         -3    1    6    6    0  502 -0.44646729095E+02 -0.59760867658E+02 -0.27229944607E+02  0.79411344312E+02  0.00000000000E+00 0.  1.
<mgrwt>
<rscale>  0 0.11451741E+04</rscale>
<asrwt>0</asrwt>
<pdfrwt beam="1">  1        1 0.30259659E+00 0.11451741E+04</pdfrwt>
<pdfrwt beam="2">  1       -2 0.16910383E+00 0.11451741E+04</pdfrwt>
<totfact> 0.58531760E-01</totfact>
</mgrwt>
</event>
<event>
12    3  0.2269558E-007  0.7068686E+03  0.7818608E-02  0.9705558E-01
          1   -1    0    0  501    0  0.00000000000E+00  0.00000000000E+00  0.45175532100E+03  0.45175532100E+03  0.00000000000E+00 0. -1.
         -2   -1    0    0    0  501 -0.00000000000E+00 -0.00000000000E+00 -0.12020209227E+04  0.12020209227E+04  0.00000000000E+00 0.  1.
        -24    2    1    2    0    0 -0.46352854318E+03  0.35576398942E+03 -0.51665072617E+03  0.78412051309E+03  0.80562272074E+02 0.  0.
    5000000    2    1    2    0    0  0.46352854318E+03 -0.35576398942E+03 -0.23361487554E+03  0.86965573062E+03  0.60024865949E+03 0.  0.
        -24    2    4    4    0    0  0.27514960442E+03  0.12652629650E+03 -0.61928690623E+02  0.31851131619E+03  0.76799005824E+02 0.  0.
         24    2    4    4    0    0  0.18837893875E+03 -0.48229028593E+03 -0.17168618492E+03  0.55114441443E+03  0.78698634077E+02 0.  0.
         11    1    5    5    0    0  0.73896171188E+02  0.60376361559E+02 -0.46369393389E+02  0.10609462661E+03  0.00000000000E+00 0. -1.
        -12    1    5    5    0    0  0.20125343323E+03  0.66149934942E+02 -0.15559297235E+02  0.21241668958E+03  0.00000000000E+00 0.  1.
         13    1    3    3    0    0 -0.42488319900E+03  0.30347787714E+03 -0.48125614480E+03  0.71009297392E+03  0.00000000000E+00 0. -1.
        -14    1    3    3    0    0 -0.38645344174E+02  0.52286112287E+02 -0.35394581369E+02  0.74027539164E+02  0.00000000000E+00 0.  1.
          4    1    6    6  502    0  0.13982778184E+03 -0.30552540139E+03 -0.14478704628E+03  0.36587001550E+03  0.00000000000E+00 0. -1.
         -3    1    6    6    0  502  0.48551156916E+02 -0.17676488453E+03 -0.26899138640E+02  0.18527439894E+03  0.00000000000E+00 0.  1.
<mgrwt>
<rscale>  0 0.70686857E+03</rscale>
<asrwt>0</asrwt>
<pdfrwt beam="1">  1        1 0.69500818E-01 0.70686857E+03</pdfrwt>
<pdfrwt beam="2">  1       -2 0.18492630E+00 0.70686857E+03</pdfrwt>
<totfact> 0.76781858E+00</totfact>
</mgrwt>
</event>
<event>
12    3  0.2269558E-007  0.1700580E+04  0.7818608E-02  0.8761033E-01
         -2   -1    0    0    0  501 -0.00000000000E+00  0.00000000000E+00  0.13762916285E+04  0.13762916285E+04  0.00000000000E+00 0.  1.
          1   -1    0    0  501    0  0.00000000000E+00 -0.00000000000E+00 -0.22041382659E+04  0.22041382659E+04  0.00000000000E+00 0. -1.
        -24    2    1    2    0    0  0.41248771012E+03 -0.16208246212E+04 -0.16084017371E+03  0.16825274422E+04  0.88376855104E+02 0.  0.
    5000000    2    1    2    0    0 -0.41248771012E+03  0.16208246212E+04 -0.66700646374E+03  0.18979024522E+04  0.59993127260E+03 0.  0.
        -24    2    4    4    0    0 -0.34291221988E+03  0.15817875233E+04 -0.71833443042E+03  0.17726951068E+04  0.82480472967E+02 0.  0.
         24    2    4    4    0    0 -0.69575490239E+02  0.39037097942E+02  0.51327966680E+02  0.12520734545E+03  0.81717044324E+02 0.  0.
         13    1    5    5    0    0 -0.32672467125E+03  0.14564675344E+04 -0.68288081412E+03  0.16414545062E+04  0.00000000000E+00 0. -1.
        -14    1    5    5    0    0 -0.16187548624E+02  0.12531998891E+03 -0.35453616302E+02  0.13124060065E+03  0.00000000000E+00 0.  1.
         13    1    3    3    0    0  0.32805077627E+03 -0.13486773329E+04 -0.10337599114E+03  0.13918457011E+04  0.00000000000E+00 0. -1.
        -14    1    3    3    0    0  0.84436933846E+02 -0.27214728833E+03 -0.57464182563E+02  0.29068174112E+03  0.00000000000E+00 0.  1.
          4    1    6    6  502    0 -0.37505263917E+01 -0.20253624051E+02  0.25796172501E+02  0.33010880799E+02  0.00000000000E+00 0. -1.
         -3    1    6    6    0  502 -0.65824963847E+02  0.59290721993E+02  0.25531794179E+02  0.92196464650E+02  0.00000000000E+00 0.  1.
<mgrwt>
<rscale>  0 0.17005803E+04</rscale>
<asrwt>0</asrwt>
<pdfrwt beam="1">  1        1 0.33909819E+00 0.17005803E+04</pdfrwt>
<pdfrwt beam="2">  1       -2 0.21173717E+00 0.17005803E+04</pdfrwt>
<totfact> 0.19514594E-01</totfact>
</mgrwt>
</event>
<event>
12    3  0.2269558E-007  0.1341863E+04  0.7818608E-02  0.8997011E-01
         -2   -1    0    0    0  501 -0.00000000000E+00  0.00000000000E+00  0.22456536599E+04  0.22456536599E+04  0.00000000000E+00 0.  1.
          1   -1    0    0  501    0  0.00000000000E+00 -0.00000000000E+00 -0.83616497842E+03  0.83616497842E+03  0.00000000000E+00 0. -1.
        -24    2    1    2    0    0 -0.81323051668E+03  0.99610851663E+03  0.91056736556E+03  0.15776417390E+04  0.79022017945E+02 0.  0.
    5000000    2    1    2    0    0  0.81323051668E+03 -0.99610851663E+03  0.49892131591E+03  0.15041768993E+04  0.60004134421E+03 0.  0.
        -24    2    4    4    0    0  0.30245727773E+03 -0.38759753098E+02  0.21008449818E+02  0.31568052184E+03  0.78931068635E+02 0.  0.
         24    2    4    4    0    0  0.51077323895E+03 -0.95734876353E+03  0.47791286609E+03  0.11884963775E+04  0.81957153436E+02 0.  0.
         11    1    3    3    0    0 -0.31052303664E+03  0.32689959267E+03  0.29847774567E+03  0.54071884065E+03  0.00000000000E+00 0. -1.
        -12    1    3    3    0    0 -0.50270748004E+03  0.66920892395E+03  0.61208961988E+03  0.10369228984E+04  0.00000000000E+00 0.  1.
         13    1    5    5    0    0  0.21146933723E+03 -0.48763918370E+02 -0.14489706556E+02  0.21750207337E+03  0.00000000000E+00 0. -1.
        -14    1    5    5    0    0  0.90987940499E+02  0.10004165272E+02  0.35498156374E+02  0.98178448475E+02  0.00000000000E+00 0.  1.
          2    1    6    6  502    0  0.17096359631E+03 -0.39253051304E+03  0.16505608730E+03  0.45885974642E+03  0.00000000000E+00 0. -1.
         -1    1    6    6    0  502  0.33980964265E+03 -0.56481825049E+03  0.31285677879E+03  0.72963663104E+03  0.00000000000E+00 0.  1.
<mgrwt>
<rscale>  0 0.13418630E+04</rscale>
<asrwt>0</asrwt>
<pdfrwt beam="1">  1        1 0.12864077E+00 0.13418630E+04</pdfrwt>
<pdfrwt beam="2">  1       -2 0.34548518E+00 0.13418630E+04</pdfrwt>
<totfact> 0.29054897E-01</totfact>
</mgrwt>
</event>
<event>
12    3  0.2269558E-007  0.4451444E+03  0.7818608E-02  0.1029180E+00
         -2   -1    0    0    0  501 -0.00000000000E+00  0.00000000000E+00  0.26688908631E+03  0.26688908631E+03  0.00000000000E+00 0.  1.
          1   -1    0    0  501    0  0.00000000000E+00 -0.00000000000E+00 -0.14060088799E+04  0.14060088799E+04  0.00000000000E+00 0. -1.
        -24    2    1    2    0    0  0.42421231935E+03 -0.43963627416E+02 -0.67584934641E+03  0.80319314182E+03  0.80361630143E+02 0.  0.
    5000000    2    1    2    0    0 -0.42421231935E+03  0.43963627416E+02 -0.46327044717E+03  0.86970482438E+03  0.59989839299E+03 0.  0.
        -24    2    4    4    0    0 -0.18211235331E+03 -0.56808837097E+02 -0.54582073697E+03  0.58386416855E+03  0.81147626002E+02 0.  0.
         24    2    4    4    0    0 -0.24209996604E+03  0.10077246451E+03  0.82550289799E+02  0.28584065584E+03  0.78248623136E+02 0.  0.
         11    1    5    5    0    0 -0.58607128603E+02 -0.35496171323E+02 -0.10346043698E+03  0.12409204536E+03  0.00000000000E+00 0. -1.
        -12    1    5    5    0    0 -0.12350522471E+03 -0.21312665775E+02 -0.44236029999E+03  0.45977212318E+03  0.00000000000E+00 0.  1.
         13    1    3    3    0    0  0.92985323588E+02 -0.36700473830E+02 -0.19688026910E+03  0.22080542463E+03  0.00000000000E+00 0. -1.
        -14    1    3    3    0    0  0.33122699576E+03 -0.72631535863E+01 -0.47896907730E+03  0.58238771719E+03  0.00000000000E+00 0.  1.
          4    1    6    6  502    0 -0.17946988399E+02 -0.29357015161E+01 -0.11546328681E+02  0.21541365835E+02  0.00000000000E+00 0. -1.
         -3    1    6    6    0  502 -0.22415297764E+03  0.10370816603E+03  0.94096618480E+02  0.26429929000E+03  0.00000000000E+00 0.  1.
<mgrwt>
<rscale>  0 0.44514441E+03</rscale>
<asrwt>0</asrwt>
<pdfrwt beam="1">  1        1 0.21630906E+00 0.44514441E+03</pdfrwt>
<pdfrwt beam="2">  1       -2 0.41059859E-01 0.44514441E+03</pdfrwt>
<totfact> 0.40125271E+01</totfact>
</mgrwt>
</event>
<event>
12    3  0.2269558E-007  0.1157608E+04  0.7818608E-02  0.9150794E-01
         -2   -1    0    0    0  501 -0.00000000000E+00  0.00000000000E+00  0.11807874036E+04  0.11807874036E+04  0.00000000000E+00 0.  1.
          1   -1    0    0  501    0  0.00000000000E+00 -0.00000000000E+00 -0.12513811115E+04  0.12513811115E+04  0.00000000000E+00 0. -1.
        -24    2    1    2    0    0 -0.63438924241E+03  0.94517445384E+03 -0.94582550386E+02  0.11451919861E+04  0.81941242319E+02 0.  0.
    5000000    2    1    2    0    0  0.63438924241E+03 -0.94517445384E+03  0.23988842436E+02  0.12869765289E+04  0.59994054903E+03 0.  0.
        -24    2    4    4    0    0  0.64423178084E+03 -0.80560152609E+03 -0.15421831309E+03  0.10461512911E+04  0.81368480229E+02 0.  0.
         24    2    4    4    0    0 -0.98425384284E+01 -0.13957292775E+03  0.17820715553E+03  0.24082523779E+03  0.81618179050E+02 0.  0.
         11    1    3    3    0    0 -0.51419081322E+03  0.71864012244E+03 -0.51482409125E+02  0.88514759020E+03  0.00000000000E+00 0. -1.
        -12    1    3    3    0    0 -0.12019842919E+03  0.22653433140E+03 -0.43100141262E+02  0.26004439594E+03  0.00000000000E+00 0.  1.
         11    1    5    5    0    0  0.45491515094E+03 -0.55329531155E+03 -0.14351935342E+03  0.73053494177E+03  0.00000000000E+00 0. -1.
        -12    1    5    5    0    0  0.18931662990E+03 -0.25230621454E+03 -0.10698959676E+02  0.31561634937E+03  0.00000000000E+00 0.  1.
          4    1    6    6  502    0 -0.21233531218E+02 -0.82707604788E+02  0.47226515528E+02  0.97579477897E+02  0.00000000000E+00 0. -1.
         -3    1    6    6    0  502  0.11390992790E+02 -0.56865322965E+02  0.13098064000E+03  0.14324575990E+03  0.00000000000E+00 0.  1.
<mgrwt>
<rscale>  0 0.11576076E+04</rscale>
<asrwt>0</asrwt>
<pdfrwt beam="1">  1        1 0.19252017E+00 0.11576076E+04</pdfrwt>
<pdfrwt beam="2">  1       -2 0.18165960E+00 0.11576076E+04</pdfrwt>
<totfact> 0.14863224E+00</totfact>
</mgrwt>
</event>
<event>
12    3  0.2269558E-007  0.1330626E+04  0.7818608E-02  0.9005625E-01
          1   -1    0    0  501    0  0.00000000000E+00  0.00000000000E+00  0.14789564110E+04  0.14789564110E+04  0.00000000000E+00 0. -1.
         -2   -1    0    0    0  501 -0.00000000000E+00 -0.00000000000E+00 -0.14140838807E+04  0.14140838807E+04  0.00000000000E+00 0.  1.
        -24    2    1    2    0    0  0.12763980001E+04  0.68260193289E+02 -0.49646075903E+03  0.13734978965E+04  0.78561299548E+02 0.  0.
    5000000    2    1    2    0    0 -0.12763980001E+04 -0.68260193289E+02  0.56133328931E+03  0.15195423952E+04  0.60005226479E+03 0.  0.
        -24    2    4    4    0    0 -0.11689079942E+04  0.10203049701E+03  0.37716260084E+03  0.12354153828E+04  0.85108279986E+02 0.  0.
         24    2    4    4    0    0 -0.10749000591E+03 -0.17029069030E+03  0.18417068848E+03  0.28412701243E+03  0.79096751659E+02 0.  0.
         13    1    3    3    0    0  0.63291613115E+03  0.70917770420E+02 -0.23285696038E+03  0.67811099625E+03  0.00000000000E+00 0. -1.
        -14    1    3    3    0    0  0.64348186897E+03 -0.26575771315E+01 -0.26360379865E+03  0.69538690028E+03  0.00000000000E+00 0.  1.
         13    1    5    5    0    0 -0.39651009515E+03 -0.55979616944E+01  0.13094467325E+03  0.41760998573E+03  0.00000000000E+00 0. -1.
        -14    1    5    5    0    0 -0.77239789907E+03  0.10762845870E+03  0.24621792759E+03  0.81780539707E+03  0.00000000000E+00 0.  1.
          4    1    6    6  502    0 -0.47563187217E+02 -0.44469798323E+02  0.18614512187E+02  0.67722373002E+02  0.00000000000E+00 0. -1.
         -3    1    6    6    0  502 -0.59926818694E+02 -0.12582089197E+03  0.16555617629E+03  0.21640463942E+03  0.00000000000E+00 0.  1.
<mgrwt>
<rscale>  0 0.13306258E+04</rscale>
<asrwt>0</asrwt>
<pdfrwt beam="1">  1        1 0.22753175E+00 0.13306258E+04</pdfrwt>
<pdfrwt beam="2">  1       -2 0.21755137E+00 0.13306258E+04</pdfrwt>
<totfact> 0.58331338E-01</totfact>
</mgrwt>
</event>
<event>
12    3  0.2269558E-007  0.6865895E+03  0.7818608E-02  0.9740445E-01
          1   -1    0    0  501    0  0.00000000000E+00  0.00000000000E+00  0.41554419251E+03  0.41554419251E+03  0.00000000000E+00 0. -1.
         -2   -1    0    0    0  501 -0.00000000000E+00 -0.00000000000E+00 -0.13383878971E+04  0.13383878971E+04  0.00000000000E+00 0.  1.
        -24    2    1    2    0    0 -0.46822706201E+03 -0.39338960728E+03 -0.52232145320E+03  0.80825009531E+03  0.80352668799E+02 0.  0.
    5000000    2    1    2    0    0  0.46822706201E+03  0.39338960728E+03 -0.40052225138E+03  0.94568199429E+03  0.59992032450E+03 0.  0.
        -24    2    4    4    0    0  0.52520290364E+03  0.26000838508E+03 -0.99760137156E+02  0.60088337109E+03  0.87557354838E+02 0.  0.
         24    2    4    4    0    0 -0.56975841626E+02  0.13338122219E+03 -0.30076211423E+03  0.34479862319E+03  0.85973508939E+02 0.  0.
         13    1    3    3    0    0 -0.35411755767E+03 -0.25991271875E+03 -0.34352960725E+03  0.55764366497E+03  0.00000000000E+00 0. -1.
        -14    1    3    3    0    0 -0.11410950434E+03 -0.13347688853E+03 -0.17879184595E+03  0.25060643034E+03  0.00000000000E+00 0.  1.
         13    1    5    5    0    0  0.44692216160E+03  0.19220901260E+03 -0.61013878833E+02  0.49031257017E+03  0.00000000000E+00 0. -1.
        -14    1    5    5    0    0  0.78280742038E+02  0.67799372483E+02 -0.38746258323E+02  0.11057080092E+03  0.00000000000E+00 0.  1.
          4    1    6    6  502    0 -0.66616295037E+02  0.47475044649E+02 -0.13500735690E+03  0.15785625438E+03  0.00000000000E+00 0. -1.
         -3    1    6    6    0  502  0.96404534109E+01  0.85906177546E+02 -0.16575475732E+03  0.18694236882E+03  0.00000000000E+00 0.  1.
<mgrwt>
<rscale>  0 0.68658948E+03</rscale>
<asrwt>0</asrwt>
<pdfrwt beam="1">  1        1 0.63929877E-01 0.68658948E+03</pdfrwt>
<pdfrwt beam="2">  1       -2 0.20590583E+00 0.68658948E+03</pdfrwt>
<totfact> 0.62672098E+00</totfact>
</mgrwt>
</event>
<event>
12    3  0.2269558E-007  0.3505170E+03  0.7818608E-02  0.1062403E+00
          3   -1    0    0  501    0  0.00000000000E+00  0.00000000000E+00  0.32616981345E+03  0.32616981345E+03  0.00000000000E+00 0. -1.
         -2   -1    0    0    0  501 -0.00000000000E+00 -0.00000000000E+00 -0.46909502366E+03  0.46909502366E+03  0.00000000000E+00 0.  1.
        -24    2    1    2    0    0 -0.78991333421E+02 -0.63810630899E+02  0.74313379650E+02  0.14916403944E+03  0.80099968136E+02 0.  0.
    5000000    2    1    2    0    0  0.78991333421E+02  0.63810630899E+02 -0.21723858986E+03  0.64610079767E+03  0.59995183845E+03 0.  0.
        -24    2    4    4    0    0 -0.20749527931E+03  0.17966427440E+03 -0.13539050543E+03  0.31650973480E+03  0.80711094813E+02 0.  0.
         24    2    4    4    0    0  0.28648661273E+03 -0.11585364351E+03 -0.81848084423E+02  0.32959106287E+03  0.80215421308E+02 0.  0.
         13    1    3    3    0    0 -0.69823527825E+01 -0.18653858333E+02  0.59681209030E+02  0.62917139099E+02  0.00000000000E+00 0. -1.
        -14    1    3    3    0    0 -0.72008980638E+02 -0.45156772566E+02  0.14632170620E+02  0.86246900340E+02  0.00000000000E+00 0.  1.
         13    1    5    5    0    0 -0.16109358776E+03  0.11204843005E+03 -0.12774714895E+03  0.23414809152E+03  0.00000000000E+00 0. -1.
        -14    1    5    5    0    0 -0.46401691544E+02  0.67615844349E+02 -0.76433564868E+01  0.82361643279E+02  0.00000000000E+00 0.  1.
          2    1    6    6  502    0  0.26805286617E+03 -0.12670824008E+03 -0.68258866876E+02  0.30424758023E+03  0.00000000000E+00 0. -1.
         -1    1    6    6    0  502  0.18433746559E+02  0.10854596578E+02 -0.13589217548E+02  0.25343482646E+02  0.00000000000E+00 0.  1.
<mgrwt>
<rscale>  0 0.35051699E+03</rscale>
<asrwt>0</asrwt>
<pdfrwt beam="1">  1        3 0.50179971E-01 0.35051699E+03</pdfrwt>
<pdfrwt beam="2">  1       -2 0.72168465E-01 0.35051699E+03</pdfrwt>
<totfact> 0.28766304E+01</totfact>
</mgrwt>
</event>
<event>
12    3  0.2269558E-007  0.1223977E+04  0.7818608E-02  0.9092124E-01
          1   -1    0    0  501    0  0.00000000000E+00  0.00000000000E+00  0.89852117747E+03  0.89852117747E+03  0.00000000000E+00 0. -1.
         -2   -1    0    0    0  501 -0.00000000000E+00 -0.00000000000E+00 -0.17780121351E+04  0.17780121351E+04  0.00000000000E+00 0.  1.
        -24    2    1    2    0    0 -0.75304781638E+03 -0.90693119247E+03 -0.59641328125E+03  0.13238265779E+04  0.84869338385E+02 0.  0.
    5000000    2    1    2    0    0  0.75304781638E+03  0.90693119247E+03 -0.28307767641E+03  0.13527067347E+04  0.60006444462E+03 0.  0.
        -24    2    4    4    0    0  0.72559967496E+03  0.94154571865E+03 -0.35873789951E+03  0.12441620291E+04  0.79012944889E+02 0.  0.
         24    2    4    4    0    0  0.27448141413E+02 -0.34614526181E+02  0.75660223105E+02  0.10854470565E+03  0.64077436548E+02 0.  0.
         11    1    5    5    0    0  0.23248174424E+03  0.36381248059E+03 -0.13188116200E+03  0.45144204869E+03  0.00000000000E+00 0. -1.
        -12    1    5    5    0    0  0.49311793073E+03  0.57773323806E+03 -0.22685673751E+03  0.79271998039E+03  0.00000000000E+00 0.  1.
         13    1    3    3    0    0 -0.32984071862E+03 -0.41725262091E+03 -0.31425876296E+03  0.61778088301E+03  0.00000000000E+00 0. -1.
        -14    1    3    3    0    0 -0.42320709776E+03 -0.48967857155E+03 -0.28215451828E+03  0.70604569485E+03  0.00000000000E+00 0.  1.
          4    1    6    6  502    0 -0.20292162714E+02 -0.35867815044E+01  0.24345550166E+02  0.31895809789E+02  0.00000000000E+00 0. -1.
         -3    1    6    6    0  502  0.47740304128E+02 -0.31027744677E+02  0.51314672939E+02  0.76648895862E+02  0.00000000000E+00 0.  1.
<mgrwt>
<rscale>  0 0.12239772E+04</rscale>
<asrwt>0</asrwt>
<pdfrwt beam="1">  1        1 0.13823403E+00 0.12239772E+04</pdfrwt>
<pdfrwt beam="2">  1       -2 0.27354033E+00 0.12239772E+04</pdfrwt>
<totfact> 0.72063796E-01</totfact>
</mgrwt>
</event>
<event>
12    3  0.2269558E-007  0.7306043E+03  0.7818608E-02  0.9666280E-01
          1   -1    0    0  501    0  0.00000000000E+00  0.00000000000E+00  0.80023570575E+03  0.80023570575E+03  0.00000000000E+00 0. -1.
         -2   -1    0    0    0  501 -0.00000000000E+00 -0.00000000000E+00 -0.76526360327E+03  0.76526360327E+03  0.00000000000E+00 0.  1.
        -24    2    1    2    0    0 -0.62345431953E+03  0.15778782399E+03 -0.15373169607E+03  0.66591336475E+03  0.78834567497E+02 0.  0.
    5000000    2    1    2    0    0  0.62345431953E+03 -0.15778782399E+03  0.18870379855E+03  0.89958594427E+03  0.60004454967E+03 0.  0.
        -24    2    4    4    0    0  0.20162832085E+03  0.17728339465E+03  0.21737513224E+03  0.35387036174E+03  0.76739188250E+02 0.  0.
         24    2    4    4    0    0  0.42182599869E+03 -0.33507121864E+03 -0.28671333690E+02  0.54571558253E+03  0.82301621566E+02 0.  0.
         11    1    3    3    0    0 -0.40447876816E+03  0.63459310183E+02 -0.92424423067E+02  0.41972899819E+03  0.00000000000E+00 0. -1.
        -12    1    3    3    0    0 -0.21897555137E+03  0.94328513806E+02 -0.61307273007E+02  0.24618436656E+03  0.00000000000E+00 0.  1.
         13    1    5    5    0    0  0.30251670465E+02  0.34579700358E+02  0.55259504499E+01  0.46275861647E+02  0.00000000000E+00 0. -1.
        -14    1    5    5    0    0  0.17137665038E+03  0.14270369429E+03  0.21184918179E+03  0.30759450009E+03  0.00000000000E+00 0.  1.
          4    1    6    6  502    0  0.32638386969E+03 -0.21423280903E+03 -0.31740014860E+02  0.39170084937E+03  0.00000000000E+00 0. -1.
         -3    1    6    6    0  502  0.95442128999E+02 -0.12083840961E+03  0.30686811693E+01  0.15401473316E+03  0.00000000000E+00 0.  1.
<mgrwt>
<rscale>  0 0.73060435E+03</rscale>
<asrwt>0</asrwt>
<pdfrwt beam="1">  1        1 0.12311319E+00 0.73060435E+03</pdfrwt>
<pdfrwt beam="2">  1       -2 0.11773286E+00 0.73060435E+03</pdfrwt>
<totfact> 0.11035218E+01</totfact>
</mgrwt>
</event>
<event>
12    3  0.2269558E-007  0.5063441E+03  0.7818608E-02  0.1012136E+00
         -2   -1    0    0    0  501 -0.00000000000E+00  0.00000000000E+00  0.87336401600E+02  0.87336401600E+02  0.00000000000E+00 0.  1.
          1   -1    0    0  501    0  0.00000000000E+00 -0.00000000000E+00 -0.30636935086E+04  0.30636935086E+04  0.00000000000E+00 0. -1.
        -24    2    1    2    0    0 -0.15942207162E+03  0.29383945421E+03 -0.11278749969E+04  0.11790776695E+04  0.79781704981E+02 0.  0.
    5000000    2    1    2    0    0  0.15942207162E+03 -0.29383945421E+03 -0.18484821101E+04  0.19719522407E+04  0.59996042057E+03 0.  0.
        -24    2    4    4    0    0 -0.21003849140E+03 -0.53468985419E+02 -0.49366886952E+03  0.54494063451E+03  0.79222737489E+02 0.  0.
         24    2    4    4    0    0  0.36946056302E+03 -0.24037046879E+03 -0.13548132406E+04  0.14270116061E+04  0.81019363718E+02 0.  0.
         13    1    5    5    0    0 -0.49758129668E+02 -0.46646590023E+02 -0.11522002006E+03  0.13389334879E+03  0.00000000000E+00 0. -1.
        -14    1    5    5    0    0 -0.16028036173E+03 -0.68223953961E+01 -0.37844884946E+03  0.41104728571E+03  0.00000000000E+00 0.  1.
         13    1    3    3    0    0 -0.82889784100E+02  0.77100304636E+02 -0.40645885188E+03  0.42192887026E+03  0.00000000000E+00 0. -1.
        -14    1    3    3    0    0 -0.76532287517E+02  0.21673914957E+03 -0.72141614498E+03  0.75714879926E+03  0.00000000000E+00 0.  1.
          4    1    6    6  502    0  0.23727935764E+03 -0.16245114463E+03 -0.99807266434E+03  0.10386726680E+04  0.00000000000E+00 0. -1.
         -3    1    6    6    0  502  0.13218120538E+03 -0.77919324160E+02 -0.35674057625E+03  0.38833893814E+03  0.00000000000E+00 0.  1.
<mgrwt>
<rscale>  0 0.50634406E+03</rscale>
<asrwt>0</asrwt>
<pdfrwt beam="1">  1        1 0.47133738E+00 0.50634406E+03</pdfrwt>
<pdfrwt beam="2">  1       -2 0.13436372E-01 0.50634406E+03</pdfrwt>
<totfact> 0.22045218E+01</totfact>
</mgrwt>
</event>
<event>
12    3  0.2269558E-007  0.9076975E+03  0.7818608E-02  0.9416010E-01
          1   -1    0    0  501    0  0.00000000000E+00  0.00000000000E+00  0.45698570835E+03  0.45698570835E+03  0.00000000000E+00 0. -1.
         -2   -1    0    0    0  501 -0.00000000000E+00 -0.00000000000E+00 -0.19596652037E+04  0.19596652037E+04  0.00000000000E+00 0.  1.
        -24    2    1    2    0    0  0.28308555973E+03  0.78800797587E+03 -0.49753535673E+03  0.97745981476E+03  0.82415132793E+02 0.  0.
    5000000    2    1    2    0    0 -0.28308555973E+03 -0.78800797587E+03 -0.10051441386E+04  0.14391910973E+04  0.59988521482E+03 0.  0.
        -24    2    4    4    0    0 -0.41494114955E+03 -0.64047752630E+03 -0.57405332559E+03  0.95827011365E+03  0.79729359773E+02 0.  0.
         24    2    4    4    0    0  0.13185558982E+03 -0.14753044956E+03 -0.43109081301E+03  0.48092098362E+03  0.79338347056E+02 0.  0.
         13    1    5    5    0    0 -0.18738058273E+03 -0.33980208654E+03 -0.25507631691E+03  0.46437147656E+03  0.00000000000E+00 0. -1.
        -14    1    5    5    0    0 -0.22756056682E+03 -0.30067543977E+03 -0.31897700869E+03  0.49389863709E+03  0.00000000000E+00 0.  1.
         13    1    3    3    0    0  0.14098781526E+03  0.36653036344E+03 -0.28012462685E+03  0.48238146517E+03  0.00000000000E+00 0. -1.
        -14    1    3    3    0    0  0.14209774447E+03  0.42147761243E+03 -0.21741072988E+03  0.49507834958E+03  0.00000000000E+00 0.  1.
          4    1    6    6  502    0  0.90214636221E+02 -0.14535668889E+03 -0.35789459491E+03  0.39668096584E+03  0.00000000000E+00 0. -1.
         -3    1    6    6    0  502  0.41640953601E+02 -0.21737606716E+01 -0.73196218097E+02  0.84240017782E+02  0.00000000000E+00 0.  1.
<mgrwt>
<rscale>  0 0.90769746E+03</rscale>
<asrwt>0</asrwt>
<pdfrwt beam="1">  1        1 0.70305492E-01 0.90769746E+03</pdfrwt>
<pdfrwt beam="2">  1       -2 0.30148696E+00 0.90769746E+03</pdfrwt>
<totfact> 0.13970065E+00</totfact>
</mgrwt>
</event>
<event>
12    3  0.2269558E-007  0.1011031E+04  0.7818608E-02  0.9296528E-01
          1   -1    0    0  501    0  0.00000000000E+00  0.00000000000E+00  0.94009942297E+03  0.94009942297E+03  0.00000000000E+00 0. -1.
         -2   -1    0    0    0  501 -0.00000000000E+00 -0.00000000000E+00 -0.12564415314E+04  0.12564415314E+04  0.00000000000E+00 0.  1.
        -24    2    1    2    0    0  0.56683559197E+03  0.81413435243E+03  0.79338156364E+00  0.99452995298E+03  0.70511458542E+02 0.  0.
    5000000    2    1    2    0    0 -0.56683559197E+03 -0.81413435243E+03 -0.31713548994E+03  0.12020110013E+04  0.60011515248E+03 0.  0.
        -24    2    4    4    0    0 -0.60228204953E+01 -0.11270718223E+03 -0.26471851376E+03  0.29899571077E+03  0.81137908757E+02 0.  0.
         24    2    4    4    0    0 -0.56081277148E+03 -0.70142717020E+03 -0.52416976179E+02  0.90301529057E+03  0.78600482625E+02 0.  0.
         11    1    3    3    0    0  0.13438461778E+03  0.24148749487E+03  0.15393575896E+02  0.27678944679E+03  0.00000000000E+00 0. -1.
        -12    1    3    3    0    0  0.43245097419E+03  0.57264685756E+03 -0.14600194333E+02  0.71774050619E+03  0.00000000000E+00 0.  1.
         11    1    5    5    0    0  0.13251396768E+02 -0.10294791087E+01 -0.88422827323E+02  0.89416193921E+02  0.00000000000E+00 0. -1.
        -12    1    5    5    0    0 -0.19274217263E+02 -0.11167770312E+03 -0.17629568644E+03  0.20957951685E+03  0.00000000000E+00 0.  1.
          2    1    6    6  502    0 -0.10299506849E+03 -0.84353607338E+02 -0.85902842326E+01  0.13340655226E+03  0.00000000000E+00 0. -1.
         -1    1    6    6    0  502 -0.45781770299E+03 -0.61707356286E+03 -0.43826691946E+02  0.76960873831E+03  0.00000000000E+00 0.  1.
<mgrwt>
<rscale>  0 0.10110313E+04</rscale>
<asrwt>0</asrwt>
<pdfrwt beam="1">  1        1 0.14463068E+00 0.10110313E+04</pdfrwt>
<pdfrwt beam="2">  1       -2 0.19329870E+00 0.10110313E+04</pdfrwt>
<totfact> 0.21694397E+00</totfact>
</mgrwt>
</event>
<event>
12    3  0.2269558E-007  0.5308029E+03  0.7818608E-02  0.1006038E+00
         -2   -1    0    0    0  501 -0.00000000000E+00  0.00000000000E+00  0.21967879553E+03  0.21967879553E+03  0.00000000000E+00 0.  1.
          1   -1    0    0  501    0  0.00000000000E+00 -0.00000000000E+00 -0.25788210772E+04  0.25788210772E+04  0.00000000000E+00 0. -1.
        -24    2    1    2    0    0 -0.17649233110E+03 -0.41373679601E+03 -0.18148875592E+04  0.18714677673E+04  0.79038423706E+02 0.  0.
    5000000    2    1    2    0    0  0.17649233110E+03  0.41373679601E+03 -0.54425472251E+03  0.92703210541E+03  0.60070595317E+03 0.  0.
        -24    2    4    4    0    0  0.30265652725E+03  0.31221359215E+03 -0.59281607189E+03  0.73984312109E+03  0.82816955577E+02 0.  0.
         24    2    4    4    0    0 -0.12616419614E+03  0.10152320386E+03  0.48561349382E+02  0.18718898431E+03  0.80356368040E+02 0.  0.
         11    1    3    3    0    0 -0.13529352053E+03 -0.35724808264E+03 -0.14225462169E+04  0.14729454397E+04  0.00000000000E+00 0. -1.
        -12    1    3    3    0    0 -0.41198810579E+02 -0.56488713366E+02 -0.39234134230E+03  0.39852232762E+03  0.00000000000E+00 0.  1.
         11    1    5    5    0    0  0.10919336136E+03  0.68425472030E+02 -0.21121243440E+03  0.24741852767E+03  0.00000000000E+00 0. -1.
        -12    1    5    5    0    0  0.19346316588E+03  0.24378812012E+03 -0.38160363749E+03  0.49242459342E+03  0.00000000000E+00 0.  1.
          4    1    6    6  502    0 -0.11637986504E+02  0.35592482304E+02  0.39956278096E+02  0.54761041678E+02  0.00000000000E+00 0. -1.
         -3    1    6    6    0  502 -0.11452620964E+03  0.65930721557E+02  0.86050712868E+01  0.13242794264E+03  0.00000000000E+00 0.  1.
<mgrwt>
<rscale>  0 0.53080285E+03</rscale>
<asrwt>0</asrwt>
<pdfrwt beam="1">  1        1 0.39674172E+00 0.53080285E+03</pdfrwt>
<pdfrwt beam="2">  1       -2 0.33796736E-01 0.53080285E+03</pdfrwt>
<totfact> 0.94254843E+00</totfact>
</mgrwt>
</event>
<event>
12    3  0.2269558E-007  0.8217457E+03  0.7818608E-02  0.9529064E-01
         -2   -1    0    0    0  501 -0.00000000000E+00  0.00000000000E+00  0.30475945275E+03  0.30475945275E+03  0.00000000000E+00 0.  1.
          1   -1    0    0  501    0  0.00000000000E+00 -0.00000000000E+00 -0.24214191633E+04  0.24214191633E+04  0.00000000000E+00 0. -1.
        -24    2    1    2    0    0 -0.65701096627E+03  0.33284415775E+03 -0.11717515916E+04  0.13862984753E+04  0.79831240831E+02 0.  0.
    5000000    2    1    2    0    0  0.65701096627E+03 -0.33284415775E+03 -0.94490811897E+03  0.13398801408E+04  0.59998232909E+03 0.  0.
        -24    2    4    4    0    0  0.64897885315E+03 -0.44499985064E+03 -0.67821577043E+03  0.10417901673E+04  0.78432789785E+02 0.  0.
         24    2    4    4    0    0  0.80321131179E+01  0.11215569290E+03 -0.26669234854E+03  0.29808997348E+03  0.71340095521E+02 0.  0.
         13    1    3    3    0    0 -0.36321499176E+03  0.20697157005E+03 -0.60004996488E+03  0.73131547324E+03  0.00000000000E+00 0. -1.
        -14    1    3    3    0    0 -0.29379597451E+03  0.12587258770E+03 -0.57170162673E+03  0.65498300206E+03  0.00000000000E+00 0.  1.
         13    1    5    5    0    0  0.30275902561E+03 -0.18371546659E+03 -0.26072598923E+03  0.43976407506E+03  0.00000000000E+00 0. -1.
        -14    1    5    5    0    0  0.34621982754E+03 -0.26128438406E+03 -0.41748978120E+03  0.60202609225E+03  0.00000000000E+00 0.  1.
          2    1    6    6  502    0  0.20807303825E+02  0.45057253189E+02 -0.48251594055E+02  0.69219334627E+02  0.00000000000E+00 0. -1.
         -1    1    6    6    0  502 -0.12775190707E+02  0.67098439708E+02 -0.21844075448E+03  0.22887063885E+03  0.00000000000E+00 0.  1.
<mgrwt>
<rscale>  0 0.82174571E+03</rscale>
<asrwt>0</asrwt>
<pdfrwt beam="1">  1        1 0.37252602E+00 0.82174571E+03</pdfrwt>
<pdfrwt beam="2">  1       -2 0.46886070E-01 0.82174571E+03</pdfrwt>
<totfact> 0.60468385E+00</totfact>
</mgrwt>
</event>
<event>
12    3  0.2269558E-007  0.5278894E+03  0.7818608E-02  0.1006745E+00
          1   -1    0    0  501    0  0.00000000000E+00  0.00000000000E+00  0.25572139282E+04  0.25572139282E+04  0.00000000000E+00 0. -1.
         -2   -1    0    0    0  501 -0.00000000000E+00 -0.00000000000E+00 -0.11147688576E+03  0.11147688576E+03  0.00000000000E+00 0.  1.
        -24    2    1    2    0    0 -0.17673109653E+03  0.31289661173E+03  0.86766663805E+03  0.94256400466E+03  0.80270405359E+02 0.  0.
    5000000    2    1    2    0    0  0.17673109653E+03 -0.31289661173E+03  0.15780704044E+04  0.17261268093E+04  0.60005782261E+03 0.  0.
        -24    2    4    4    0    0 -0.15708010791E+03 -0.30846018722E+03  0.82638891426E+03  0.89976170278E+03  0.82647666531E+02 0.  0.
         24    2    4    4    0    0  0.33381120443E+03 -0.44364245097E+01  0.75168149018E+03  0.82636510657E+03  0.80028898538E+02 0.  0.
         11    1    3    3    0    0 -0.10048784082E+03  0.20112293057E+03  0.63226183393E+03  0.67104639631E+03  0.00000000000E+00 0. -1.
        -12    1    3    3    0    0 -0.76243255706E+02  0.11177368115E+03  0.23540480413E+03  0.27151760835E+03  0.00000000000E+00 0.  1.
         13    1    5    5    0    0 -0.11255432255E+03 -0.14820896530E+03  0.37347603026E+03  0.41727535046E+03  0.00000000000E+00 0. -1.
        -14    1    5    5    0    0 -0.44525785361E+02 -0.16025122192E+03  0.45291288400E+03  0.48248635232E+03  0.00000000000E+00 0.  1.
          2    1    6    6  502    0  0.61966196103E+02  0.30634877050E+02  0.15845113277E+03  0.17287297831E+03  0.00000000000E+00 0. -1.
         -1    1    6    6    0  502  0.27184500833E+03 -0.35071301560E+02  0.59323035741E+03  0.65349212826E+03  0.00000000000E+00 0.  1.
<mgrwt>
<rscale>  0 0.52788942E+03</rscale>
<asrwt>0</asrwt>
<pdfrwt beam="1">  1        1 0.39341748E+00 0.52788942E+03</pdfrwt>
<pdfrwt beam="2">  1       -2 0.17150292E-01 0.52788942E+03</pdfrwt>
<totfact> 0.32801188E+01</totfact>
</mgrwt>
</event>
<event>
12    3  0.2269558E-007  0.8229478E+03  0.7818608E-02  0.9527382E-01
          1   -1    0    0  501    0  0.00000000000E+00  0.00000000000E+00  0.13115327067E+04  0.13115327067E+04  0.00000000000E+00 0. -1.
         -4   -1    0    0    0  501 -0.00000000000E+00 -0.00000000000E+00 -0.52652684226E+03  0.52652684226E+03  0.00000000000E+00 0.  1.
        -24    2    1    2    0    0 -0.22237852534E+03 -0.68452027032E+03  0.31354925903E+03  0.78916464250E+03  0.80296239767E+02 0.  0.
    5000000    2    1    2    0    0  0.22237852534E+03  0.68452027032E+03  0.47145660541E+03  0.10488949065E+04  0.59990748039E+03 0.  0.
        -24    2    4    4    0    0  0.40561816246E+03  0.57523601714E+03  0.37793963410E+03  0.80283839974E+03  0.79300441025E+02 0.  0.
         24    2    4    4    0    0 -0.18323963712E+03  0.10928425318E+03  0.93516971313E+02  0.24605650673E+03  0.79237415241E+02 0.  0.
         11    1    5    5    0    0  0.35948825826E+03  0.50192270367E+03  0.30040471133E+03  0.68658662882E+03  0.00000000000E+00 0. -1.
        -12    1    5    5    0    0  0.46129904195E+02  0.73313313472E+02  0.77534922774E+02  0.11625177092E+03  0.00000000000E+00 0.  1.
         13    1    3    3    0    0 -0.12404724301E+03 -0.48862726968E+03  0.20043672021E+03  0.54251194087E+03  0.00000000000E+00 0. -1.
        -14    1    3    3    0    0 -0.98331282328E+02 -0.19589300063E+03  0.11311253882E+03  0.24665270163E+03  0.00000000000E+00 0.  1.
          4    1    6    6  502    0 -0.13818287914E+03  0.10454875874E+03  0.43665932344E+02  0.17869433312E+03  0.00000000000E+00 0. -1.
         -3    1    6    6    0  502 -0.45056757984E+02  0.47354944455E+01  0.49851038969E+02  0.67362173614E+02  0.00000000000E+00 0.  1.
<mgrwt>
<rscale>  0 0.82294779E+03</rscale>
<asrwt>0</asrwt>
<pdfrwt beam="1">  1        1 0.20177426E+00 0.82294779E+03</pdfrwt>
<pdfrwt beam="2">  1       -4 0.81004130E-01 0.82294779E+03</pdfrwt>
<totfact> 0.58352302E+00</totfact>
</mgrwt>
</event>
<event>
12    3  0.2269558E-007  0.9916094E+03  0.7818608E-02  0.9317796E-01
         -2   -1    0    0    0  501 -0.00000000000E+00  0.00000000000E+00  0.39058366974E+03  0.39058366974E+03  0.00000000000E+00 0.  1.
          1   -1    0    0  501    0  0.00000000000E+00 -0.00000000000E+00 -0.25440388166E+04  0.25440388166E+04  0.00000000000E+00 0. -1.
        -24    2    1    2    0    0  0.79308251056E+03 -0.43441585698E+03 -0.10117408201E+04  0.13594140506E+04  0.81792840177E+02 0.  0.
    5000000    2    1    2    0    0 -0.79308251056E+03  0.43441585698E+03 -0.11417143268E+04  0.15752084358E+04  0.60006083577E+03 0.  0.
        -24    2    4    4    0    0 -0.18714393301E+03 -0.13891352122E+03 -0.29102347283E+03  0.38119592976E+03  0.79346437149E+02 0.  0.
         24    2    4    4    0    0 -0.60593857755E+03  0.57332937820E+03 -0.85069085401E+03  0.11940125060E+04  0.78248320883E+02 0.  0.
         13    1    5    5    0    0 -0.14553115869E+02 -0.45401772304E+02 -0.38066388976E+02  0.61009540890E+02  0.00000000000E+00 0. -1.
        -14    1    5    5    0    0 -0.17259081714E+03 -0.93511748911E+02 -0.25295708385E+03  0.32018638887E+03  0.00000000000E+00 0.  1.
         13    1    3    3    0    0  0.45433488597E+03 -0.23052820535E+03 -0.62499288650E+03  0.80633711948E+03  0.00000000000E+00 0. -1.
        -14    1    3    3    0    0  0.33874762459E+03 -0.20388765163E+03 -0.38674793355E+03  0.55307693114E+03  0.00000000000E+00 0.  1.
          4    1    6    6  502    0 -0.98663334873E+02  0.83987047264E+02 -0.95159102550E+02  0.16075923785E+03  0.00000000000E+00 0. -1.
         -1    1    6    6    0  502 -0.50727524267E+03  0.48934233093E+03 -0.75553175146E+03  0.10332532681E+04  0.00000000000E+00 0.  1.
<mgrwt>
<rscale>  0 0.99160939E+03</rscale>
<asrwt>0</asrwt>
<pdfrwt beam="1">  1        1 0.39139058E+00 0.99160939E+03</pdfrwt>
<pdfrwt beam="2">  1       -2 0.60089797E-01 0.99160939E+03</pdfrwt>
<totfact> 0.29136250E+00</totfact>
</mgrwt>
</event>
<event>
12    3  0.2269558E-007  0.4823894E+03  0.7818608E-02  0.1018481E+00
         -2   -1    0    0    0  501 -0.00000000000E+00  0.00000000000E+00  0.15542637032E+03  0.15542637032E+03  0.00000000000E+00 0.  1.
          1   -1    0    0  501    0  0.00000000000E+00 -0.00000000000E+00 -0.21872010720E+04  0.21872010720E+04  0.00000000000E+00 0. -1.
        -24    2    1    2    0    0  0.36012791752E+03 -0.86590613427E+02 -0.33644528111E+03  0.50651444264E+03  0.78558272051E+02 0.  0.
    5000000    2    1    2    0    0 -0.36012791752E+03  0.86590613427E+02 -0.16953294205E+04  0.18361129996E+04  0.59998254313E+03 0.  0.
        -24    2    4    4    0    0  0.57923455795E+02 -0.87947985073E+02 -0.95844978113E+03  0.96757580414E+03  0.80541784116E+02 0.  0.
         24    2    4    4    0    0 -0.41805137331E+03  0.17453859850E+03 -0.73687963939E+03  0.86853719551E+03  0.78323584787E+02 0.  0.
         11    1    5    5    0    0  0.90636468078E+01 -0.82695595959E+02 -0.63054249565E+03  0.63600672174E+03  0.00000000000E+00 0. -1.
        -12    1    5    5    0    0  0.48859808987E+02 -0.52523891144E+01 -0.32790728548E+03  0.33156908239E+03  0.00000000000E+00 0.  1.
         11    1    3    3    0    0  0.22702202937E+03 -0.20825174105E+02 -0.22993316211E+03  0.32379306467E+03  0.00000000000E+00 0. -1.
        -12    1    3    3    0    0  0.13310588815E+03 -0.65765439322E+02 -0.10651211900E+03  0.18272137797E+03  0.00000000000E+00 0.  1.
          2    1    6    6  502    0 -0.23469391739E+03  0.69857959448E+02 -0.45038340529E+03  0.51264664352E+03  0.00000000000E+00 0. -1.
         -1    1    6    6    0  502 -0.18335745593E+03  0.10468063905E+03 -0.28649623411E+03  0.35589055199E+03  0.00000000000E+00 0.  1.
<mgrwt>
<rscale>  0 0.48238942E+03</rscale>
<asrwt>0</asrwt>
<pdfrwt beam="1">  1        1 0.33649243E+00 0.48238942E+03</pdfrwt>
<pdfrwt beam="2">  1       -2 0.23911752E-01 0.48238942E+03</pdfrwt>
<totfact> 0.32853737E+01</totfact>
</mgrwt>
</event>
<event>
12    3  0.2269558E-007  0.9504349E+03  0.7818608E-02  0.9364642E-01
          1   -1    0    0  501    0  0.00000000000E+00  0.00000000000E+00  0.51071586152E+03  0.51071586152E+03  0.00000000000E+00 0. -1.
         -2   -1    0    0    0  501 -0.00000000000E+00 -0.00000000000E+00 -0.19726825690E+04  0.19726825690E+04  0.00000000000E+00 0.  1.
        -24    2    1    2    0    0 -0.50913910763E+03 -0.75486890152E+03 -0.73782879584E+03  0.11744454531E+04  0.76688336582E+02 0.  0.
    5000000    2    1    2    0    0  0.50913910763E+03  0.75486890152E+03 -0.72413791165E+03  0.13089529774E+04  0.59994374120E+03 0.  0.
        -24    2    4    4    0    0  0.47428876613E+03  0.76331541496E+03 -0.42347588761E+03  0.99599107131E+03  0.71176754293E+02 0.  0.
         24    2    4    4    0    0  0.34850341500E+02 -0.84465134366E+01 -0.30066202404E+03  0.31296190611E+03  0.79130348690E+02 0.  0.
         13    1    3    3    0    0 -0.33193049015E+02 -0.84069851108E+02 -0.58316996705E+02  0.10756574953E+03  0.00000000000E+00 0. -1.
        -14    1    3    3    0    0 -0.47594605862E+03 -0.67079905041E+03 -0.67951179913E+03  0.10668797036E+04  0.00000000000E+00 0.  1.
         13    1    5    5    0    0  0.26277687761E+03  0.35628612792E+03 -0.20195543540E+03  0.48659787323E+03  0.00000000000E+00 0. -1.
        -14    1    5    5    0    0  0.21151188853E+03  0.40702928704E+03 -0.22152045222E+03  0.50939319808E+03  0.00000000000E+00 0.  1.
          2    1    6    6  502    0  0.36526189146E+02  0.30504955816E+02 -0.15223802396E+03  0.15950276098E+03  0.00000000000E+00 0. -1.
         -1    1    6    6    0  502 -0.16758476458E+01 -0.38951469253E+02 -0.14842400008E+03  0.15345914512E+03  0.00000000000E+00 0.  1.
<mgrwt>
<rscale>  0 0.95043489E+03</rscale>
<asrwt>0</asrwt>
<pdfrwt beam="1">  1        1 0.78571671E-01 0.95043489E+03</pdfrwt>
<pdfrwt beam="2">  1       -2 0.30348963E+00 0.95043489E+03</pdfrwt>
<totfact> 0.11596423E+00</totfact>
</mgrwt>
</event>
<event>
12    3  0.2269558E-007  0.5618204E+03  0.7818608E-02  0.9987944E-01
          1   -1    0    0  501    0  0.00000000000E+00  0.00000000000E+00  0.73312843771E+03  0.73312843771E+03  0.00000000000E+00 0. -1.
         -2   -1    0    0    0  501 -0.00000000000E+00 -0.00000000000E+00 -0.53712162230E+03  0.53712162230E+03  0.00000000000E+00 0.  1.
        -24    2    1    2    0    0 -0.45445899662E+03  0.12935484663E+03 -0.45071352732E+01  0.48062550740E+03  0.87834549804E+02 0.  0.
    5000000    2    1    2    0    0  0.45445899662E+03 -0.12935484663E+03  0.20051395068E+03  0.78962455261E+03  0.60002952737E+03 0.  0.
        -24    2    4    4    0    0  0.27654739593E+03  0.15013585092E+03 -0.10064868208E+03  0.33474453752E+03  0.53893527099E+02 0.  0.
         24    2    4    4    0    0  0.17791160068E+03 -0.27949069754E+03  0.30116263276E+03  0.45488001510E+03  0.80307590492E+02 0.  0.
         11    1    5    5    0    0  0.15473326128E+03  0.92138115093E+02 -0.84296217519E+02  0.19884080740E+03  0.00000000000E+00 0. -1.
        -12    1    5    5    0    0  0.12181413465E+03  0.57997735824E+02 -0.16352464565E+02  0.13590373012E+03  0.00000000000E+00 0.  1.
         11    1    3    3    0    0 -0.20746527224E+03  0.38831486107E+02  0.37075486578E+02  0.21429959217E+03  0.00000000000E+00 0. -1.
        -12    1    3    3    0    0 -0.24699372437E+03  0.90523360519E+02 -0.41582621851E+02  0.26632591522E+03  0.00000000000E+00 0.  1.
          2    1    6    6  502    0  0.13345643181E+03 -0.24198059953E+03  0.27884120187E+03  0.39257820317E+03  0.00000000000E+00 0. -1.
         -1    1    6    6    0  502  0.44455168877E+02 -0.37510098015E+02  0.22321430891E+02  0.62301811932E+02  0.00000000000E+00 0.  1.
<mgrwt>
<rscale>  0 0.56182044E+03</rscale>
<asrwt>0</asrwt>
<pdfrwt beam="1">  1        1 0.11278899E+00 0.56182044E+03</pdfrwt>
<pdfrwt beam="2">  1       -2 0.82634096E-01 0.56182044E+03</pdfrwt>
<totfact> 0.29685760E+01</totfact>
</mgrwt>
</event>
<event>
12    3  0.2269558E-007  0.3576268E+03  0.7818608E-02  0.1059528E+00
         -2   -1    0    0    0  501 -0.00000000000E+00  0.00000000000E+00  0.32790365159E+03  0.32790365159E+03  0.00000000000E+00 0.  1.
          1   -1    0    0  501    0  0.00000000000E+00 -0.00000000000E+00 -0.14993481487E+04  0.14993481487E+04  0.00000000000E+00 0. -1.
        -24    2    1    2    0    0  0.18020289505E+03 -0.28069755126E+03  0.12145542795E+03  0.36345139358E+03  0.77982663780E+02 0.  0.
    5000000    2    1    2    0    0 -0.18020289505E+03  0.28069755126E+03 -0.12928999251E+04  0.14638004067E+04  0.59988100138E+03 0.  0.
        -24    2    4    4    0    0 -0.64722134729E+02  0.92527761612E+01  0.28805787697E+02  0.10703020305E+03  0.79693929318E+02 0.  0.
         24    2    4    4    0    0 -0.11548076032E+03  0.27144477509E+03 -0.13217057128E+04  0.13567702037E+04  0.83074198659E+02 0.  0.
         11    1    3    3    0    0  0.48182920569E+02 -0.95728982896E+02  0.30730020520E+01  0.10721508916E+03  0.00000000000E+00 0. -1.
        -12    1    3    3    0    0  0.13201997448E+03 -0.18496856836E+03  0.11838242590E+03  0.25623630443E+03  0.00000000000E+00 0.  1.
         13    1    5    5    0    0 -0.66453529083E+02  0.21081193793E+02  0.47840458277E+02  0.84552928438E+02  0.00000000000E+00 0. -1.
        -14    1    5    5    0    0  0.17313943538E+01 -0.11828417631E+02 -0.19034670579E+02  0.22477274615E+02  0.00000000000E+00 0.  1.
          4    1    6    6  502    0 -0.29426169755E+02  0.26722732984E+02 -0.30111013465E+03  0.30372243433E+03  0.00000000000E+00 0. -1.
         -3    1    6    6    0  502 -0.86054590568E+02  0.24472204211E+03 -0.10205955781E+04  0.10530477694E+04  0.00000000000E+00 0.  1.
<mgrwt>
<rscale>  0 0.35762677E+03</rscale>
<asrwt>0</asrwt>
<pdfrwt beam="1">  1        1 0.23066895E+00 0.35762677E+03</pdfrwt>
<pdfrwt beam="2">  1       -2 0.50446715E-01 0.35762677E+03</pdfrwt>
<totfact> 0.23522578E+01</totfact>
</mgrwt>
</event>
<event>
12    3  0.2269558E-007  0.7421165E+03  0.7818608E-02  0.9647800E-01
         -2   -1    0    0    0  501 -0.00000000000E+00  0.00000000000E+00  0.33752634148E+03  0.33752634148E+03  0.00000000000E+00 0.  1.
          1   -1    0    0  501    0  0.00000000000E+00 -0.00000000000E+00 -0.20970626758E+04  0.20970626758E+04  0.00000000000E+00 0. -1.
        -24    2    1    2    0    0 -0.71155183644E+03 -0.14916689814E+03 -0.64740191841E+03  0.97648733082E+03  0.76429600631E+02 0.  0.
    5000000    2    1    2    0    0  0.71155183644E+03  0.14916689814E+03 -0.11121344159E+04  0.14581016865E+04  0.60055040553E+03 0.  0.
        -24    2    4    4    0    0  0.36817116227E+03  0.31486257132E+01 -0.12339103717E+03  0.39811244911E+03  0.87796671388E+02 0.  0.
         24    2    4    4    0    0  0.34338067416E+03  0.14601827243E+03 -0.98874337876E+03  0.10599892374E+04  0.82049320713E+02 0.  0.
         13    1    3    3    0    0 -0.11343031596E+03 -0.52939283250E+02 -0.10719115048E+03  0.16479971793E+03  0.00000000000E+00 0. -1.
        -14    1    3    3    0    0 -0.59812152047E+03 -0.96227614894E+02 -0.54021076793E+03  0.81168761288E+03  0.00000000000E+00 0.  1.
         13    1    5    5    0    0  0.28660375614E+02  0.23632362829E+02 -0.28505559419E+01  0.37256293058E+02  0.00000000000E+00 0. -1.
        -14    1    5    5    0    0  0.33951078666E+03 -0.20483737116E+02 -0.12054048123E+03  0.36085615605E+03  0.00000000000E+00 0.  1.
          2    1    6    6  502    0  0.24257209287E+03  0.12541965496E+03 -0.79542131745E+03  0.84099130932E+03  0.00000000000E+00 0. -1.
         -1    1    6    6    0  502  0.10080858129E+03  0.20598617468E+02 -0.19332206131E+03  0.21899792805E+03  0.00000000000E+00 0.  1.
<mgrwt>
<rscale>  0 0.74211647E+03</rscale>
<asrwt>0</asrwt>
<pdfrwt beam="1">  1        1 0.32262503E+00 0.74211647E+03</pdfrwt>
<pdfrwt beam="2">  1       -2 0.51927128E-01 0.74211647E+03</pdfrwt>
<totfact> 0.82286714E+00</totfact>
</mgrwt>
</event>
<event>
12    3  0.2269558E-007  0.5751853E+03  0.7818608E-02  0.9958270E-01
          1   -1    0    0  501    0  0.00000000000E+00  0.00000000000E+00  0.11044874752E+04  0.11044874752E+04  0.00000000000E+00 0. -1.
         -2   -1    0    0    0  501 -0.00000000000E+00 -0.00000000000E+00 -0.39126093549E+03  0.39126093549E+03  0.00000000000E+00 0.  1.
        -24    2    1    2    0    0  0.18288367178E+03  0.40658473737E+03  0.58096232986E+03  0.73664467809E+03  0.79815831584E+02 0.  0.
    5000000    2    1    2    0    0 -0.18288367178E+03 -0.40658473737E+03  0.13226420983E+03  0.75910373258E+03  0.59998922453E+03 0.  0.
        -24    2    4    4    0    0  0.10798124701E+02 -0.48344256900E+03 -0.16451440480E+02  0.49090116180E+03  0.82945667436E+02 0.  0.
         24    2    4    4    0    0 -0.19368179649E+03  0.76857831628E+02  0.14871565031E+03  0.26820257078E+03  0.79978182986E+02 0.  0.
         13    1    3    3    0    0  0.13723703187E+03  0.30207692389E+03  0.37107549034E+03  0.49777654665E+03  0.00000000000E+00 0. -1.
        -14    1    3    3    0    0  0.45646639917E+02  0.10450781348E+03  0.20988683951E+03  0.23886813144E+03  0.00000000000E+00 0.  1.
         13    1    5    5    0    0  0.95076764619E+00 -0.23681168872E+03 -0.49320089949E+02  0.24189491757E+03  0.00000000000E+00 0. -1.
        -14    1    5    5    0    0  0.98473570544E+01 -0.24663088028E+03  0.32868649470E+02  0.24900624423E+03  0.00000000000E+00 0.  1.
          4    1    6    6  502    0 -0.64455299012E+02  0.64331196655E+02  0.42675623537E+02  0.10056936551E+03  0.00000000000E+00 0. -1.
         -1    1    6    6    0  502 -0.12922649747E+03  0.12526634973E+02  0.10604002677E+03  0.16763320527E+03  0.00000000000E+00 0.  1.
<mgrwt>
<rscale>  0 0.57518525E+03</rscale>
<asrwt>0</asrwt>
<pdfrwt beam="1">  1        1 0.16992115E+00 0.57518525E+03</pdfrwt>
<pdfrwt beam="2">  1       -2 0.60193990E-01 0.57518525E+03</pdfrwt>
<totfact> 0.29656179E+01</totfact>
</mgrwt>
</event>
<event>
12    3  0.2269558E-007  0.6392700E+03  0.7818608E-02  0.9827124E-01
         -2   -1    0    0    0  501 -0.00000000000E+00  0.00000000000E+00  0.23155520935E+03  0.23155520935E+03  0.00000000000E+00 0.  1.
          1   -1    0    0  501    0  0.00000000000E+00 -0.00000000000E+00 -0.23898087380E+04  0.23898087380E+04  0.00000000000E+00 0. -1.
        -24    2    1    2    0    0 -0.43695332962E+03 -0.32663719895E+03 -0.14252172824E+04  0.15281255841E+04  0.79394123277E+02 0.  0.
    5000000    2    1    2    0    0  0.43695332962E+03  0.32663719895E+03 -0.73303624627E+03  0.10932383632E+04  0.60017323209E+03 0.  0.
        -24    2    4    4    0    0  0.33125822925E+03 -0.42423798505E+02 -0.57633584137E+03  0.67099700089E+03  0.80883743961E+02 0.  0.
         24    2    4    4    0    0  0.10569510037E+03  0.36906099745E+03 -0.15670040491E+03  0.42224136235E+03  0.79719991862E+02 0.  0.
         11    1    3    3    0    0 -0.26082084683E+03 -0.24154182272E+03 -0.93866259205E+03  0.10037217881E+04  0.00000000000E+00 0. -1.
        -12    1    3    3    0    0 -0.17613248279E+03 -0.85095376222E+02 -0.48655469036E+03  0.52440379600E+03  0.00000000000E+00 0.  1.
         13    1    5    5    0    0  0.98005088671E+02 -0.44697679829E+02 -0.22231288282E+03  0.24703420381E+03  0.00000000000E+00 0. -1.
        -14    1    5    5    0    0  0.23325314058E+03  0.22738813240E+01 -0.35402295855E+03  0.42396279708E+03  0.00000000000E+00 0.  1.
          4    1    6    6  502    0  0.39705715366E+02  0.72628850986E+02 -0.53984571068E+01  0.82949606192E+02  0.00000000000E+00 0. -1.
         -3    1    6    6    0  502  0.65989385004E+02  0.29643214646E+03 -0.15130194780E+03  0.33929175616E+03  0.00000000000E+00 0.  1.
<mgrwt>
<rscale>  0 0.63927003E+03</rscale>
<asrwt>0</asrwt>
<pdfrwt beam="1">  1        1 0.36766289E+00 0.63927003E+03</pdfrwt>
<pdfrwt beam="2">  1       -2 0.35623878E-01 0.63927003E+03</pdfrwt>
<totfact> 0.11208200E+01</totfact>
</mgrwt>
</event>
<event>
12    3  0.2269558E-007  0.6200641E+03  0.7818608E-02  0.9864632E-01
         -2   -1    0    0    0  501 -0.00000000000E+00  0.00000000000E+00  0.50991815863E+03  0.50991815863E+03  0.00000000000E+00 0.  1.
          1   -1    0    0  501    0  0.00000000000E+00 -0.00000000000E+00 -0.80934728956E+03  0.80934728956E+03  0.00000000000E+00 0. -1.
        -24    2    1    2    0    0 -0.26709489230E+03 -0.41570615209E+03 -0.18553939824E+03  0.53374841330E+03  0.79443149612E+02 0.  0.
    5000000    2    1    2    0    0  0.26709489230E+03  0.41570615209E+03 -0.11388973269E+03  0.78551703490E+03  0.59992904124E+03 0.  0.
        -24    2    4    4    0    0  0.43604153575E+03  0.24083794464E+03  0.20701929473E+01  0.50474179911E+03  0.81393252737E+02 0.  0.
         24    2    4    4    0    0 -0.16894664345E+03  0.17486820745E+03 -0.11595992563E+03  0.28077523579E+03  0.79159145839E+02 0.  0.
         11    1    3    3    0    0 -0.19453452568E+03 -0.32356142055E+03 -0.10634686238E+03  0.39223121967E+03  0.00000000000E+00 0. -1.
        -12    1    3    3    0    0 -0.72560366619E+02 -0.92144731547E+02 -0.79192535867E+02  0.14151719363E+03  0.00000000000E+00 0.  1.
         13    1    5    5    0    0  0.25184216264E+03  0.15772905477E+03 -0.35258677836E+02  0.29924255039E+03  0.00000000000E+00 0. -1.
        -14    1    5    5    0    0  0.18419937311E+03  0.83108889872E+02  0.37328870784E+02  0.20549924872E+03  0.00000000000E+00 0.  1.
          2    1    6    6  502    0 -0.59901100573E+02  0.88951603113E+02 -0.13188587966E+02  0.10804845394E+03  0.00000000000E+00 0. -1.
         -1    1    6    6    0  502 -0.10904554288E+03  0.85916604337E+02 -0.10277133767E+03  0.17272678185E+03  0.00000000000E+00 0.  1.
<mgrwt>
<rscale>  0 0.62006414E+03</rscale>
<asrwt>0</asrwt>
<pdfrwt beam="1">  1        1 0.12451497E+00 0.62006414E+03</pdfrwt>
<pdfrwt beam="2">  1       -2 0.78448947E-01 0.62006414E+03</pdfrwt>
<totfact> 0.28401910E+01</totfact>
</mgrwt>
</event>
<event>
12    3  0.2269558E-007  0.1090271E+03  0.7818608E-02  0.1262382E+00
          1   -1    0    0  501    0  0.00000000000E+00  0.00000000000E+00  0.40513623048E+04  0.40513623048E+04  0.00000000000E+00 0. -1.
         -2   -1    0    0    0  501 -0.00000000000E+00 -0.00000000000E+00 -0.31633125340E+02  0.31633125340E+02  0.00000000000E+00 0.  1.
        -24    2    1    2    0    0 -0.32719843148E+02 -0.22456814217E+02  0.99550421494E+03  0.99957099171E+03  0.80861788663E+02 0.  0.
    5000000    2    1    2    0    0  0.32719843148E+02  0.22456814217E+02  0.30242249646E+04  0.30834244385E+04  0.59999561235E+03 0.  0.
        -24    2    4    4    0    0  0.17012109788E+02 -0.38292281673E+02  0.41108652403E+02  0.98632528469E+02  0.79263760034E+02 0.  0.
         24    2    4    4    0    0  0.15707733360E+02  0.60749095890E+02  0.29831163122E+04  0.29847919100E+04  0.77862883345E+02 0.  0.
         11    1    3    3    0    0 -0.13317411024E+02  0.11091566897E+02  0.80389279169E+03  0.80407959608E+03  0.00000000000E+00 0. -1.
        -12    1    3    3    0    0 -0.19402432124E+02 -0.33548381114E+02  0.19161142324E+03  0.19549139563E+03  0.00000000000E+00 0.  1.
         13    1    5    5    0    0 -0.27935833417E+02 -0.26261776624E+02  0.29471635704E+01  0.38454875806E+02  0.00000000000E+00 0. -1.
        -14    1    5    5    0    0  0.44947943205E+02 -0.12030505049E+02  0.38161488833E+02  0.60177652663E+02  0.00000000000E+00 0.  1.
          4    1    6    6  502    0 -0.12316652111E+02  0.41005149299E+02  0.25366962670E+04  0.25370575620E+04  0.00000000000E+00 0. -1.
         -3    1    6    6    0  502  0.28024385471E+02  0.19743946591E+02  0.44642004521E+03  0.44773434799E+03  0.00000000000E+00 0.  1.
<mgrwt>
<rscale>  0 0.10902712E+03</rscale>
<asrwt>0</asrwt>
<pdfrwt beam="1">  1        1 0.62328610E+00 0.10902712E+03</pdfrwt>
<pdfrwt beam="2">  1       -2 0.48666379E-02 0.10902712E+03</pdfrwt>
<totfact> 0.22792101E+01</totfact>
</mgrwt>
</event>
<event>
12    3  0.2269558E-007  0.1035549E+04  0.7818608E-02  0.9270393E-01
          1   -1    0    0  501    0  0.00000000000E+00  0.00000000000E+00  0.54698090666E+03  0.54698090666E+03  0.00000000000E+00 0. -1.
         -2   -1    0    0    0  501 -0.00000000000E+00 -0.00000000000E+00 -0.20668042327E+04  0.20668042327E+04  0.00000000000E+00 0.  1.
        -24    2    1    2    0    0  0.65595641799E+03 -0.72336795341E+03 -0.67091314990E+03  0.11875256139E+04  0.80948197881E+02 0.  0.
    5000000    2    1    2    0    0 -0.65595641799E+03  0.72336795341E+03 -0.84891017614E+03  0.14262595254E+04  0.60002310652E+03 0.  0.
        -24    2    4    4    0    0 -0.40910212628E+02 -0.49441953443E+02 -0.24661434522E+03  0.26670807328E+03  0.78717271488E+02 0.  0.
         24    2    4    4    0    0 -0.61504620536E+03  0.77280990686E+03 -0.60229583093E+03  0.11595514521E+04  0.79261058121E+02 0.  0.
         13    1    3    3    0    0  0.48680752799E+03 -0.48502077837E+03 -0.45532810670E+03  0.82434847577E+03  0.00000000000E+00 0. -1.
        -14    1    3    3    0    0  0.16914889000E+03 -0.23834717504E+03 -0.21558504321E+03  0.36317713818E+03  0.00000000000E+00 0.  1.
         13    1    5    5    0    0 -0.49771890409E+01  0.21184826481E+02 -0.65397641742E+02  0.68923296708E+02  0.00000000000E+00 0. -1.
        -14    1    5    5    0    0 -0.35933023587E+02 -0.70626779924E+02 -0.18121670347E+03  0.19778477657E+03  0.00000000000E+00 0.  1.
          4    1    6    6  502    0 -0.27629336076E+03  0.40855491552E+03 -0.31208972219E+03  0.58365669267E+03  0.00000000000E+00 0. -1.
         -1    1    6    6    0  502 -0.33875284460E+03  0.36425499133E+03 -0.29020610874E+03  0.57589475947E+03  0.00000000000E+00 0.  1.
<mgrwt>
<rscale>  0 0.10355486E+04</rscale>
<asrwt>0</asrwt>
<pdfrwt beam="1">  1        1 0.84150906E-01 0.10355486E+04</pdfrwt>
<pdfrwt beam="2">  1       -2 0.31796989E+00 0.10355486E+04</pdfrwt>
<totfact> 0.85041012E-01</totfact>
</mgrwt>
</event>
<event>
12    3  0.2269558E-007  0.6490188E+03  0.7818608E-02  0.9808622E-01
          1   -1    0    0  501    0  0.00000000000E+00  0.00000000000E+00  0.79527396122E+03  0.79527396122E+03  0.00000000000E+00 0. -1.
         -2   -1    0    0    0  501 -0.00000000000E+00 -0.00000000000E+00 -0.54462881563E+03  0.54462881563E+03  0.00000000000E+00 0.  1.
        -24    2    1    2    0    0 -0.53187705896E+02 -0.51444667715E+03  0.12281691747E+03  0.53754264162E+03  0.79898564801E+02 0.  0.
    5000000    2    1    2    0    0  0.53187705896E+02  0.51444667715E+03  0.12782822812E+03  0.80236013523E+03  0.59996451146E+03 0.  0.
        -24    2    4    4    0    0 -0.23043535415E+03  0.41315914311E+03  0.93677894936E+02  0.48894531885E+03  0.80567033271E+02 0.  0.
         24    2    4    4    0    0  0.28362306005E+03  0.10128753404E+03  0.34150333183E+02  0.31341481638E+03  0.79758367120E+02 0.  0.
         11    1    3    3    0    0 -0.34197369664E+02 -0.23446110120E+03  0.16732888873E+02  0.23753201392E+03  0.00000000000E+00 0. -1.
        -12    1    3    3    0    0 -0.18990336233E+02 -0.27998557595E+03  0.10608402860E+03  0.30001062770E+03  0.00000000000E+00 0.  1.
         11    1    5    5    0    0 -0.94568051118E+02  0.14632048786E+03  0.72679024579E+02  0.18877246111E+03  0.00000000000E+00 0. -1.
        -12    1    5    5    0    0 -0.13586730303E+03  0.26683865524E+03  0.20998870356E+02  0.30017285774E+03  0.00000000000E+00 0.  1.
          2    1    6    6  502    0  0.19504607562E+03  0.40025621529E+02 -0.40237792175E+01  0.19915123096E+03  0.00000000000E+00 0. -1.
         -1    1    6    6    0  502  0.88576984424E+02  0.61261912510E+02  0.38174112401E+02  0.11426358541E+03  0.00000000000E+00 0.  1.
<mgrwt>
<rscale>  0 0.64901878E+03</rscale>
<asrwt>0</asrwt>
<pdfrwt beam="1">  1        1 0.12234984E+00 0.64901878E+03</pdfrwt>
<pdfrwt beam="2">  1       -2 0.83789049E-01 0.64901878E+03</pdfrwt>
<totfact> 0.25104191E+01</totfact>
</mgrwt>
</event>
<event>
12    3  0.2269558E-007  0.9813783E+03  0.7818608E-02  0.9329208E-01
         -2   -1    0    0    0  501 -0.00000000000E+00  0.00000000000E+00  0.77356588131E+03  0.77356588131E+03  0.00000000000E+00 0.  1.
          1   -1    0    0  501    0  0.00000000000E+00 -0.00000000000E+00 -0.12915067060E+04  0.12915067060E+04  0.00000000000E+00 0. -1.
        -24    2    1    2    0    0 -0.88804733704E+03 -0.17307237965E+03 -0.31005493540E+03  0.95971330283E+03  0.79582907910E+02 0.  0.
    5000000    2    1    2    0    0  0.88804733704E+03  0.17307237965E+03 -0.20788588933E+03  0.11053592845E+04  0.60001706930E+03 0.  0.
        -24    2    4    4    0    0  0.43752062699E+03  0.35249478602E+03  0.10829124192E+02  0.56763181825E+03  0.80073328561E+02 0.  0.
         24    2    4    4    0    0  0.45052671005E+03 -0.17942240637E+03 -0.21871501352E+03  0.53772746627E+03  0.78408255050E+02 0.  0.
         11    1    5    5    0    0  0.14077568413E+03  0.77851978358E+02  0.26286485849E+02  0.16300215678E+03  0.00000000000E+00 0. -1.
        -12    1    5    5    0    0  0.29674494287E+03  0.27464280766E+03 -0.15457361657E+02  0.40462966147E+03  0.00000000000E+00 0.  1.
         13    1    3    3    0    0 -0.70939272415E+02 -0.34763141076E+02 -0.36281295445E+02  0.86932092736E+02  0.00000000000E+00 0. -1.
        -14    1    3    3    0    0 -0.81710806463E+03 -0.13830923857E+03 -0.27377363995E+03  0.87278121009E+03  0.00000000000E+00 0.  1.
          4    1    6    6  502    0  0.19574208105E+03 -0.41461771691E+02 -0.10950159104E+03  0.22808910375E+03  0.00000000000E+00 0. -1.
         -3    1    6    6    0  502  0.25478462900E+03 -0.13796063468E+03 -0.10921342248E+03  0.30963836252E+03  0.00000000000E+00 0.  1.
<mgrwt>
<rscale>  0 0.98137826E+03</rscale>
<asrwt>0</asrwt>
<pdfrwt beam="1">  1        1 0.19869334E+00 0.98137826E+03</pdfrwt>
<pdfrwt beam="2">  1       -2 0.11901014E+00 0.98137826E+03</pdfrwt>
<totfact> 0.43620638E+00</totfact>
</mgrwt>
</event>
<event>
12    3  0.2269558E-007  0.3681305E+03  0.7818608E-02  0.1055410E+00
         -2   -1    0    0    0  501 -0.00000000000E+00  0.00000000000E+00  0.34448923094E+03  0.34448923094E+03  0.00000000000E+00 0.  1.
          1   -1    0    0  501    0  0.00000000000E+00 -0.00000000000E+00 -0.10984693089E+04  0.10984693089E+04  0.00000000000E+00 0. -1.
        -24    2    1    2    0    0  0.44134797854E+02  0.15750148604E+03 -0.79903519181E+03  0.81943367393E+03  0.79118327409E+02 0.  0.
    5000000    2    1    2    0    0 -0.44134797854E+02 -0.15750148604E+03  0.45055113851E+02  0.62352486591E+03  0.59999891387E+03 0.  0.
        -24    2    4    4    0    0  0.60189389648E+02 -0.33656073758E+03  0.15160648302E+03  0.38254080920E+03  0.80355785775E+02 0.  0.
         24    2    4    4    0    0 -0.10432418750E+03  0.17905925154E+03 -0.10655136917E+03  0.24098405671E+03  0.61435898780E+02 0.  0.
         11    1    5    5    0    0  0.54000928468E+02 -0.98801036283E+02  0.60739470421E+02  0.12793368717E+03  0.00000000000E+00 0. -1.
        -12    1    5    5    0    0  0.61884611796E+01 -0.23775970129E+03  0.90867012599E+02  0.25460712203E+03  0.00000000000E+00 0.  1.
         11    1    3    3    0    0 -0.19030534994E+02  0.31577911434E+02 -0.10611561762E+03  0.11233810598E+03  0.00000000000E+00 0. -1.
        -12    1    3    3    0    0  0.63165332848E+02  0.12592357460E+03 -0.69291957419E+03  0.70709556795E+03  0.00000000000E+00 0.  1.
          2    1    6    6  502    0 -0.28329640721E+02  0.66322502061E+02 -0.69662631073E+01  0.72455307912E+02  0.00000000000E+00 0. -1.
         -1    1    6    6    0  502 -0.75994546780E+02  0.11273674948E+03 -0.99585106062E+02  0.16852874880E+03  0.00000000000E+00 0.  1.
<mgrwt>
<rscale>  0 0.36813050E+03</rscale>
<asrwt>0</asrwt>
<pdfrwt beam="1">  1        1 0.16899528E+00 0.36813050E+03</pdfrwt>
<pdfrwt beam="2">  1       -2 0.52998344E-01 0.36813050E+03</pdfrwt>
<totfact> 0.40317817E+01</totfact>
</mgrwt>
</event>
<event>
12    3  0.2269558E-007  0.6095683E+03  0.7818608E-02  0.9885751E-01
         -2   -1    0    0    0  501 -0.00000000000E+00  0.00000000000E+00  0.30879614082E+03  0.30879614082E+03  0.00000000000E+00 0.  1.
          1   -1    0    0  501    0  0.00000000000E+00 -0.00000000000E+00 -0.15045739852E+04  0.15045739852E+04  0.00000000000E+00 0. -1.
        -24    2    1    2    0    0 -0.29280803362E+02  0.53853752688E+03 -0.60124229912E+03  0.81127133348E+03  0.76084433166E+02 0.  0.
    5000000    2    1    2    0    0  0.29280803362E+02 -0.53853752688E+03 -0.59453554526E+03  0.10020987925E+04  0.59987452199E+03 0.  0.
        -24    2    4    4    0    0  0.20717669232E+03 -0.34710873578E+03 -0.80904679103E+02  0.42028966036E+03  0.81799603981E+02 0.  0.
         24    2    4    4    0    0 -0.17789588895E+03 -0.19142879109E+03 -0.51363086616E+03  0.58180913218E+03  0.79957928014E+02 0.  0.
         11    1    5    5    0    0  0.80303573390E+02 -0.65997497638E+02 -0.23750004375E+02  0.10662268193E+03  0.00000000000E+00 0. -1.
        -12    1    5    5    0    0  0.12687311893E+03 -0.28111123814E+03 -0.57154674728E+02  0.31366697843E+03  0.00000000000E+00 0.  1.
         13    1    3    3    0    0 -0.37605267319E+02  0.18789782125E+03 -0.17747735932E+03  0.26118568190E+03  0.00000000000E+00 0. -1.
        -14    1    3    3    0    0  0.83244639565E+01  0.35063970563E+03 -0.42376493980E+03  0.55008565157E+03  0.00000000000E+00 0.  1.
          2    1    6    6  502    0 -0.13462640147E+03 -0.16774400507E+03 -0.46597965939E+03  0.51322447543E+03  0.00000000000E+00 0. -1.
         -1    1    6    6    0  502 -0.43269487480E+02 -0.23684786024E+02 -0.47651206768E+02  0.68584656755E+02  0.00000000000E+00 0.  1.
<mgrwt>
<rscale>  0 0.60956831E+03</rscale>
<asrwt>0</asrwt>
<pdfrwt beam="1">  1        1 0.23147292E+00 0.60956831E+03</pdfrwt>
<pdfrwt beam="2">  1       -2 0.47507098E-01 0.60956831E+03</pdfrwt>
<totfact> 0.25095784E+01</totfact>
</mgrwt>
</event>
<event>
12    3  0.2269558E-007  0.1345371E+04  0.7818608E-02  0.8994339E-01
         -2   -1    0    0    0  501 -0.00000000000E+00  0.00000000000E+00  0.11310445557E+04  0.11310445557E+04  0.00000000000E+00 0.  1.
          1   -1    0    0  501    0  0.00000000000E+00 -0.00000000000E+00 -0.18968892250E+04  0.18968892250E+04  0.00000000000E+00 0. -1.
        -24    2    1    2    0    0  0.22142998129E+03  0.12740693868E+04  0.19295620024E+03  0.13098944102E+04  0.79418082549E+02 0.  0.
    5000000    2    1    2    0    0 -0.22142998129E+03 -0.12740693868E+04 -0.95880086954E+03  0.17180393704E+04  0.60006343977E+03 0.  0.
        -24    2    4    4    0    0 -0.81596824141E+02  0.25810800904E+02 -0.75067754216E+02  0.13798007067E+03  0.77968538697E+02 0.  0.
         24    2    4    4    0    0 -0.13983315715E+03 -0.12998801877E+04 -0.88373311533E+03  0.15800592997E+04  0.79758117154E+02 0.  0.
         11    1    3    3    0    0  0.18583673585E+03  0.86396741254E+03  0.14319360719E+03  0.89525381399E+03  0.00000000000E+00 0. -1.
        -12    1    3    3    0    0  0.35593245442E+02  0.41010197424E+03  0.49762593055E+02  0.41464059625E+03  0.00000000000E+00 0.  1.
         11    1    5    5    0    0 -0.31479365915E+01 -0.14650246004E+01  0.15038911875E+02  0.15434528572E+02  0.00000000000E+00 0. -1.
        -12    1    5    5    0    0 -0.78448887549E+02  0.27275825505E+02 -0.90106666091E+02  0.12254554210E+03  0.00000000000E+00 0.  1.
          2    1    6    6  502    0 -0.48029806517E+01 -0.28259753007E+03 -0.16622388563E+03  0.32789451471E+03  0.00000000000E+00 0. -1.
         -3    1    6    6    0  502 -0.13503017650E+03 -0.10172826576E+04 -0.71750922970E+03  0.12521647850E+04  0.00000000000E+00 0.  1.
<mgrwt>
<rscale>  0 0.13453713E+04</rscale>
<asrwt>0</asrwt>
<pdfrwt beam="1">  1        1 0.29182911E+00 0.13453713E+04</pdfrwt>
<pdfrwt beam="2">  1       -2 0.17400686E+00 0.13453713E+04</pdfrwt>
<totfact> 0.58820551E-01</totfact>
</mgrwt>
</event>
<event>
12    3  0.2269558E-007  0.1258803E+04  0.7818608E-02  0.9062888E-01
         -2   -1    0    0    0  501 -0.00000000000E+00  0.00000000000E+00  0.55722454323E+03  0.55722454323E+03  0.00000000000E+00 0.  1.
          1   -1    0    0  501    0  0.00000000000E+00 -0.00000000000E+00 -0.36379582398E+04  0.36379582398E+04  0.00000000000E+00 0. -1.
        -24    2    1    2    0    0 -0.10368275358E+04 -0.64384732592E+03 -0.23549876754E+04  0.26537010752E+04  0.81312527786E+02 0.  0.
    5000000    2    1    2    0    0  0.10368275358E+04  0.64384732592E+03 -0.72574602113E+03  0.15414817078E+04  0.59992320366E+03 0.  0.
        -24    2    4    4    0    0  0.10495200921E+04  0.53607766837E+03 -0.50968010533E+03  0.12864961018E+04  0.80166825812E+02 0.  0.
         24    2    4    4    0    0 -0.12692556300E+02  0.10776965755E+03 -0.21606591580E+03  0.25498560602E+03  0.80980116282E+02 0.  0.
         13    1    5    5    0    0  0.25846180488E+03  0.12799026354E+03 -0.87960879875E+02  0.30153130606E+03  0.00000000000E+00 0. -1.
        -14    1    5    5    0    0  0.79105828718E+03  0.40808740483E+03 -0.42171922546E+03  0.98496479572E+03  0.00000000000E+00 0.  1.
         13    1    3    3    0    0 -0.24349200668E+03 -0.17268100228E+03 -0.64226707418E+03  0.70824718880E+03  0.00000000000E+00 0. -1.
        -14    1    3    3    0    0 -0.79333552908E+03 -0.47116632364E+03 -0.17127206012E+04  0.19454538864E+04  0.00000000000E+00 0.  1.
          2    1    6    6  502    0 -0.29650938365E+02  0.55705006264E+02 -0.51195679037E+02  0.81260220409E+02  0.00000000000E+00 0. -1.
         -1    1    6    6    0  502  0.16958382066E+02  0.52064651290E+02 -0.16487023676E+03  0.17372538561E+03  0.00000000000E+00 0.  1.
<mgrwt>
<rscale>  0 0.12588027E+04</rscale>
<asrwt>0</asrwt>
<pdfrwt beam="1">  1        1 0.55968588E+00 0.12588027E+04</pdfrwt>
<pdfrwt beam="2">  1       -2 0.85726853E-01 0.12588027E+04</pdfrwt>
<totfact> 0.20037672E-01</totfact>
</mgrwt>
</event>
<event>
12    3  0.2269558E-007  0.5244122E+03  0.7818608E-02  0.1007596E+00
          1   -1    0    0  501    0  0.00000000000E+00  0.00000000000E+00  0.50042670341E+03  0.50042670341E+03  0.00000000000E+00 0. -1.
         -2   -1    0    0    0  501 -0.00000000000E+00 -0.00000000000E+00 -0.84200164801E+03  0.84200164801E+03  0.00000000000E+00 0.  1.
        -24    2    1    2    0    0  0.35965481845E+03 -0.19459296437E+03  0.17393572429E+03  0.45156583208E+03  0.80249948921E+02 0.  0.
    5000000    2    1    2    0    0 -0.35965481845E+03  0.19459296437E+03 -0.51551066888E+03  0.89086251934E+03  0.60055538331E+03 0.  0.
        -24    2    4    4    0    0 -0.46266426662E+03  0.10203482310E+03 -0.17183466648E+03  0.51031827274E+03  0.80176418924E+02 0.  0.
         24    2    4    4    0    0  0.10300944817E+03  0.92558141267E+02 -0.34367600240E+03  0.38054424661E+03  0.86733921103E+02 0.  0.
         13    1    5    5    0    0 -0.11147949008E+03  0.51661290059E+02 -0.20307330515E+02  0.12453494799E+03  0.00000000000E+00 0. -1.
        -14    1    5    5    0    0 -0.35118477654E+03  0.50373533041E+02 -0.15152733596E+03  0.38578332474E+03  0.00000000000E+00 0.  1.
         13    1    3    3    0    0  0.14621978189E+03 -0.38624404864E+02  0.79476482102E+02  0.17084665778E+03  0.00000000000E+00 0. -1.
        -14    1    3    3    0    0  0.21343503656E+03 -0.15596855950E+03  0.94459242187E+02  0.28071917430E+03  0.00000000000E+00 0.  1.
          4    1    6    6  502    0  0.11380059732E+03  0.88097119548E+02 -0.27011037622E+03  0.30605766412E+03  0.00000000000E+00 0. -1.
         -3    1    6    6    0  502 -0.10791149156E+02  0.44610217191E+01 -0.73565626180E+02  0.74486582484E+02  0.00000000000E+00 0.  1.
<mgrwt>
<rscale>  0 0.52441219E+03</rscale>
<asrwt>0</asrwt>
<pdfrwt beam="1">  1        1 0.76988725E-01 0.52441219E+03</pdfrwt>
<pdfrwt beam="2">  1       -2 0.12953871E+00 0.52441219E+03</pdfrwt>
<totfact> 0.17705356E+01</totfact>
</mgrwt>
</event>
<event>
12    3  0.2269558E-007  0.1105059E+04  0.7818608E-02  0.9200275E-01
         -2   -1    0    0    0  501 -0.00000000000E+00  0.00000000000E+00  0.13425945293E+04  0.13425945293E+04  0.00000000000E+00 0.  1.
          1   -1    0    0  501    0  0.00000000000E+00 -0.00000000000E+00 -0.10482105801E+04  0.10482105801E+04  0.00000000000E+00 0. -1.
        -24    2    1    2    0    0 -0.10721758758E+04 -0.22946818110E+03 -0.29437942092E+02  0.10995900228E+04  0.77555599859E+02 0.  0.
    5000000    2    1    2    0    0  0.10721758758E+04  0.22946818110E+03  0.32382189123E+03  0.12912150866E+04  0.60013250849E+03 0.  0.
        -24    2    4    4    0    0  0.97564331301E+03  0.24640805625E+03  0.75258432480E+02  0.10122035197E+04  0.79343110588E+02 0.  0.
         24    2    4    4    0    0  0.96532562811E+02 -0.16939875152E+02  0.24856345875E+03  0.27901156690E+03  0.80362717613E+02 0.  0.
         11    1    5    5    0    0  0.17951725705E+03  0.28719199162E+02 -0.12328949858E+02  0.18221756497E+03  0.00000000000E+00 0. -1.
        -12    1    5    5    0    0  0.79612605596E+03  0.21768885709E+03  0.87587382337E+02  0.82998595472E+03  0.00000000000E+00 0.  1.
         13    1    3    3    0    0 -0.50013297226E+03 -0.13683821426E+03 -0.39407050042E+02  0.52001019453E+03  0.00000000000E+00 0. -1.
        -14    1    3    3    0    0 -0.57204290357E+03 -0.92629966839E+02  0.99691079498E+01  0.57957982832E+03  0.00000000000E+00 0.  1.
          4    1    6    6  502    0  0.42534379803E+02 -0.26506691294E+02  0.42299913005E+02  0.65582473183E+02  0.00000000000E+00 0. -1.
         -3    1    6    6    0  502  0.53998183008E+02  0.95668161417E+01  0.20626354575E+03  0.21342909371E+03  0.00000000000E+00 0.  1.
<mgrwt>
<rscale>  0 0.11050586E+04</rscale>
<asrwt>0</asrwt>
<pdfrwt beam="1">  1        1 0.16126317E+00 0.11050586E+04</pdfrwt>
<pdfrwt beam="2">  1       -2 0.20655301E+00 0.11050586E+04</pdfrwt>
<totfact> 0.14452594E+00</totfact>
</mgrwt>
</event>
<event>
12    3  0.2269558E-007  0.8891797E+03  0.7818608E-02  0.9439209E-01
         -2   -1    0    0    0  501 -0.00000000000E+00  0.00000000000E+00  0.44567227834E+03  0.44567227834E+03  0.00000000000E+00 0.  1.
          1   -1    0    0  501    0  0.00000000000E+00 -0.00000000000E+00 -0.19713137311E+04  0.19713137311E+04  0.00000000000E+00 0. -1.
        -24    2    1    2    0    0  0.64784515615E+03 -0.52450901368E+03 -0.80997780742E+03  0.11653115457E+04  0.84106469833E+02 0.  0.
    5000000    2    1    2    0    0 -0.64784515615E+03  0.52450901368E+03 -0.71566364530E+03  0.12516744637E+04  0.59975116347E+03 0.  0.
        -24    2    4    4    0    0 -0.57759840314E+03  0.60130048492E+03 -0.74151166859E+03  0.11187145082E+04  0.80625106662E+02 0.  0.
         24    2    4    4    0    0 -0.70246753009E+02 -0.76791471237E+02  0.25848023294E+02  0.13295995545E+03  0.78604663237E+02 0.  0.
         13    1    3    3    0    0  0.44747460965E+03 -0.31249283577E+03 -0.51339924879E+03  0.74930907330E+03  0.00000000000E+00 0. -1.
        -14    1    3    3    0    0  0.20037054650E+03 -0.21201617792E+03 -0.29657855863E+03  0.41600247240E+03  0.00000000000E+00 0.  1.
         13    1    5    5    0    0 -0.26903299778E+03  0.23816240561E+03 -0.35556291798E+03  0.50549488028E+03  0.00000000000E+00 0. -1.
        -14    1    5    5    0    0 -0.30856540536E+03  0.36313807931E+03 -0.38594875061E+03  0.61321962797E+03  0.00000000000E+00 0.  1.
          2    1    6    6  502    0 -0.40037143898E+02 -0.33369527707E+02 -0.26560019344E+02  0.58497289668E+02  0.00000000000E+00 0. -1.
         -1    1    6    6    0  502 -0.30209609111E+02 -0.43421943530E+02  0.52408042638E+02  0.74462665785E+02  0.00000000000E+00 0.  1.
<mgrwt>
<rscale>  0 0.88917973E+03</rscale>
<asrwt>0</asrwt>
<pdfrwt beam="1">  1        1 0.30327903E+00 0.88917973E+03</pdfrwt>
<pdfrwt beam="2">  1       -2 0.68564967E-01 0.88917973E+03</pdfrwt>
<totfact> 0.54376863E+00</totfact>
</mgrwt>
</event>
<event>
12    3  0.2269558E-007  0.5133827E+03  0.7818608E-02  0.1010344E+00
          1   -1    0    0  501    0  0.00000000000E+00  0.00000000000E+00  0.14224741524E+04  0.14224741524E+04  0.00000000000E+00 0. -1.
         -2   -1    0    0    0  501 -0.00000000000E+00 -0.00000000000E+00 -0.25182590629E+03  0.25182590629E+03  0.00000000000E+00 0.  1.
        -24    2    1    2    0    0  0.28295825125E+03  0.29734765842E+03  0.67674079775E+03  0.79549199319E+03  0.79676859704E+02 0.  0.
    5000000    2    1    2    0    0 -0.28295825125E+03 -0.29734765842E+03  0.49390744831E+03  0.87880806546E+03  0.59989836347E+03 0.  0.
        -24    2    4    4    0    0 -0.39632374981E+03 -0.26935622045E+03  0.54294063513E+03  0.72864062053E+03  0.80668038626E+02 0.  0.
         24    2    4    4    0    0  0.11336549856E+03 -0.27991437966E+02 -0.49033186814E+02  0.15016744492E+03  0.80689226310E+02 0.  0.
         11    1    3    3    0    0  0.25881557687E+03  0.22917280193E+03  0.56634034516E+03  0.66351116232E+03  0.00000000000E+00 0. -1.
        -12    1    3    3    0    0  0.24142674386E+02  0.68174856495E+02  0.11040045259E+03  0.13198083087E+03  0.00000000000E+00 0.  1.
         13    1    5    5    0    0 -0.24028526221E+03 -0.15793059484E+03  0.26534118942E+03  0.39126081688E+03  0.00000000000E+00 0. -1.
        -14    1    5    5    0    0 -0.15603848760E+03 -0.11142562562E+03  0.27759944571E+03  0.33737980365E+03  0.00000000000E+00 0.  1.
          2    1    6    6  502    0  0.53701128052E+02 -0.42007287795E+02 -0.56339132198E+02  0.88445017942E+02  0.00000000000E+00 0. -1.
         -1    1    6    6    0  502  0.59664370508E+02  0.14015849829E+02  0.73059453840E+01  0.61722426981E+02  0.00000000000E+00 0.  1.
<mgrwt>
<rscale>  0 0.51338275E+03</rscale>
<asrwt>0</asrwt>
<pdfrwt beam="1">  1        1 0.21884217E+00 0.51338275E+03</pdfrwt>
<pdfrwt beam="2">  1       -2 0.38742448E-01 0.51338275E+03</pdfrwt>
<totfact> 0.43259643E+01</totfact>
</mgrwt>
</event>
<event>
12    3  0.2269558E-007  0.3354311E+03  0.7818608E-02  0.1068759E+00
         -2   -1    0    0    0  501 -0.00000000000E+00  0.00000000000E+00  0.49661823116E+03  0.49661823116E+03  0.00000000000E+00 0.  1.
          1   -1    0    0  501    0  0.00000000000E+00 -0.00000000000E+00 -0.52616352542E+03  0.52616352542E+03  0.00000000000E+00 0. -1.
        -24    2    1    2    0    0  0.14687606932E+02  0.15591280050E+03  0.28278380486E+03  0.32837070171E+03  0.57759071112E+02 0.  0.
    5000000    2    1    2    0    0 -0.14687606932E+02 -0.15591280050E+03 -0.31232909912E+03  0.69441105487E+03  0.60011058965E+03 0.  0.
        -24    2    4    4    0    0 -0.34889741117E+02 -0.31978946343E+03  0.11391131521E+01  0.33143250412E+03  0.79772252405E+02 0.  0.
         24    2    4    4    0    0  0.20202134185E+02  0.16387666293E+03 -0.31346821227E+03  0.36297855075E+03  0.78914012187E+02 0.  0.
         11    1    5    5    0    0 -0.54487687851E+02 -0.29398363544E+03  0.24805378997E+01  0.29900073429E+03  0.00000000000E+00 0. -1.
        -12    1    5    5    0    0  0.19597946734E+02 -0.25805827987E+02 -0.13414247476E+01  0.32431769835E+02  0.00000000000E+00 0.  1.
         11    1    3    3    0    0 -0.24625265072E+01  0.86396553433E+02  0.10064835016E+03  0.13266694718E+03  0.00000000000E+00 0. -1.
        -12    1    3    3    0    0  0.17150133439E+02  0.69516247063E+02  0.18213545470E+03  0.19570375454E+03  0.00000000000E+00 0.  1.
          4    1    6    6  502    0  0.17858347218E+02  0.17202876865E+03 -0.30678880808E+03  0.35218204181E+03  0.00000000000E+00 0. -1.
         -3    1    6    6    0  502  0.23437869674E+01 -0.81521057162E+01 -0.66794041877E+01  0.10796508939E+02  0.00000000000E+00 0.  1.
<mgrwt>
<rscale>  0 0.33543110E+03</rscale>
<asrwt>0</asrwt>
<pdfrwt beam="1">  1        1 0.80948234E-01 0.33543110E+03</pdfrwt>
<pdfrwt beam="2">  1       -2 0.76402805E-01 0.33543110E+03</pdfrwt>
<totfact> 0.58574378E+01</totfact>
</mgrwt>
</event>
<event>
12    3  0.2269558E-007  0.7569521E+03  0.7818608E-02  0.9624506E-01
          1   -1    0    0  501    0  0.00000000000E+00  0.00000000000E+00  0.32323363411E+03  0.32323363411E+03  0.00000000000E+00 0. -1.
         -2   -1    0    0    0  501 -0.00000000000E+00 -0.00000000000E+00 -0.19245784367E+04  0.19245784367E+04  0.00000000000E+00 0.  1.
        -24    2    1    2    0    0  0.92832662324E+02  0.66422759485E+03 -0.74468415951E+03  0.10053720097E+04  0.80013621000E+02 0.  0.
    5000000    2    1    2    0    0 -0.92832662324E+02 -0.66422759485E+03 -0.85666064313E+03  0.12424400611E+04  0.59997803883E+03 0.  0.
        -24    2    4    4    0    0 -0.28567206475E+03 -0.51904350221E+03 -0.39853660306E+03  0.71851882037E+03  0.80144778297E+02 0.  0.
         24    2    4    4    0    0  0.19283940243E+03 -0.14518409263E+03 -0.45812404007E+03  0.52392124076E+03  0.79689237319E+02 0.  0.
         11    1    3    3    0    0  0.67994348467E+02  0.53990461686E+03 -0.64639779694E+03  0.84495582052E+03  0.00000000000E+00 0. -1.
        -12    1    3    3    0    0  0.24838313857E+02  0.12432297799E+03 -0.98286362561E+02  0.16041618920E+03  0.00000000000E+00 0.  1.
         13    1    5    5    0    0 -0.72374086217E+02 -0.11171955816E+03 -0.12994664371E+03  0.18602526238E+03  0.00000000000E+00 0. -1.
        -14    1    5    5    0    0 -0.21329797853E+03 -0.40732394406E+03 -0.26858995935E+03  0.53249355800E+03  0.00000000000E+00 0.  1.
          4    1    6    6  502    0  0.39804437970E+02 -0.67655434357E+02 -0.19043070372E+03  0.20597452270E+03  0.00000000000E+00 0. -1.
         -3    1    6    6    0  502  0.15303496446E+03 -0.77528658276E+02 -0.26769333635E+03  0.31794671806E+03  0.00000000000E+00 0.  1.
<mgrwt>
<rscale>  0 0.75695209E+03</rscale>
<asrwt>0</asrwt>
<pdfrwt beam="1">  1        1 0.49728253E-01 0.75695209E+03</pdfrwt>
<pdfrwt beam="2">  1       -2 0.29608898E+00 0.75695209E+03</pdfrwt>
<totfact> 0.24333022E+00</totfact>
</mgrwt>
</event>
<event>
12    3  0.2269558E-007  0.6082860E+03  0.7818608E-02  0.9888363E-01
          1   -1    0    0  501    0  0.00000000000E+00  0.00000000000E+00  0.14558250670E+04  0.14558250670E+04  0.00000000000E+00 0. -1.
         -2   -1    0    0    0  501 -0.00000000000E+00 -0.00000000000E+00 -0.34013101915E+03  0.34013101915E+03  0.00000000000E+00 0.  1.
        -24    2    1    2    0    0  0.11980156171E+03 -0.53491053365E+03  0.24698255993E+03  0.60636095007E+03  0.78686235518E+02 0.  0.
    5000000    2    1    2    0    0 -0.11980156171E+03  0.53491053365E+03  0.86871148789E+03  0.11895951361E+04  0.59999603776E+03 0.  0.
        -24    2    4    4    0    0  0.90113098216E+02  0.38720939475E+03  0.16690260132E+03  0.43817169586E+03  0.78015837329E+02 0.  0.
         24    2    4    4    0    0 -0.20991465993E+03  0.14770113890E+03  0.70180888658E+03  0.75142344020E+03  0.78877641400E+02 0.  0.
         11    1    5    5    0    0  0.80072762429E+01  0.37936429998E-01 -0.13334960609E+01  0.81176427457E+01  0.00000000000E+00 0. -1.
        -12    1    5    5    0    0  0.82105821973E+02  0.38717145832E+03  0.16823609738E+03  0.43005405311E+03  0.00000000000E+00 0.  1.
         13    1    3    3    0    0  0.10314076130E+03 -0.33107163640E+03  0.18285968354E+03  0.39202564832E+03  0.00000000000E+00 0. -1.
        -14    1    3    3    0    0  0.16660800413E+02 -0.20383889725E+03  0.64122876385E+02  0.21433530175E+03  0.00000000000E+00 0.  1.
          4    1    6    6  502    0 -0.18017592291E+03  0.10220520811E+03  0.61553405457E+03  0.64945472521E+03  0.00000000000E+00 0. -1.
         -3    1    6    6    0  502 -0.29738737015E+02  0.45495930796E+02  0.86274832004E+02  0.10196871498E+03  0.00000000000E+00 0.  1.
<mgrwt>
<rscale>  0 0.60828604E+03</rscale>
<asrwt>0</asrwt>
<pdfrwt beam="1">  1        1 0.22397308E+00 0.60828604E+03</pdfrwt>
<pdfrwt beam="2">  1       -2 0.52327850E-01 0.60828604E+03</pdfrwt>
<totfact> 0.22275209E+01</totfact>
</mgrwt>
</event>
<event>
12    3  0.2269558E-007  0.1348168E+04  0.7818608E-02  0.8992216E-01
         -2   -1    0    0    0  501 -0.00000000000E+00  0.00000000000E+00  0.67202353972E+03  0.67202353972E+03  0.00000000000E+00 0.  1.
          1   -1    0    0  501    0  0.00000000000E+00 -0.00000000000E+00 -0.28136485921E+04  0.28136485921E+04  0.00000000000E+00 0. -1.
        -24    2    1    2    0    0  0.81755511814E+03  0.10116852938E+04 -0.11994978583E+04  0.17711613044E+04  0.79459102437E+02 0.  0.
    5000000    2    1    2    0    0 -0.81755511814E+03 -0.10116852938E+04 -0.94212719402E+03  0.17145108274E+04  0.60003351799E+03 0.  0.
        -24    2    4    4    0    0  0.16827008744E+02  0.23489564726E+02 -0.13014407176E+03  0.15457840915E+03  0.78243832254E+02 0.  0.
         24    2    4    4    0    0 -0.83438212689E+03 -0.10351748585E+04 -0.81198312226E+03  0.15599324183E+04  0.79322363355E+02 0.  0.
         13    1    3    3    0    0  0.18734469016E+03  0.24843653466E+03 -0.33179954827E+03  0.45487326248E+03  0.00000000000E+00 0. -1.
        -14    1    3    3    0    0  0.63021042798E+03  0.76324875916E+03 -0.86769831006E+03  0.13162880419E+04  0.00000000000E+00 0.  1.
         13    1    5    5    0    0 -0.20908854989E+02  0.12846843407E+02 -0.10539142711E+03  0.10821078741E+03  0.00000000000E+00 0. -1.
        -14    1    5    5    0    0  0.37735863733E+02  0.10642721319E+02 -0.24752644648E+02  0.46367621740E+02  0.00000000000E+00 0.  1.
          4    1    6    6  502    0 -0.13642337823E+03 -0.12842566455E+03 -0.10254903671E+03  0.21359024878E+03  0.00000000000E+00 0. -1.
         -3    1    6    6    0  502 -0.69795874866E+03 -0.90674919399E+03 -0.70943408555E+03  0.13463421695E+04  0.00000000000E+00 0.  1.
<mgrwt>
<rscale>  0 0.13481682E+04</rscale>
<asrwt>0</asrwt>
<pdfrwt beam="1">  1        1 0.43286901E+00 0.13481682E+04</pdfrwt>
<pdfrwt beam="2">  1       -2 0.10338824E+00 0.13481682E+04</pdfrwt>
<totfact> 0.53013820E-01</totfact>
</mgrwt>
</event>
<event>
12    3  0.2269558E-007  0.6842027E+03  0.7818608E-02  0.9744636E-01
          1   -1    0    0  501    0  0.00000000000E+00  0.00000000000E+00  0.14157001626E+04  0.14157001626E+04  0.00000000000E+00 0. -1.
         -4   -1    0    0    0  501 -0.00000000000E+00 -0.00000000000E+00 -0.45471294488E+03  0.45471294488E+03  0.00000000000E+00 0.  1.
        -24    2    1    2    0    0  0.41454173800E+03  0.37526070089E+03  0.88086499139E+03  0.10463827811E+04  0.79550897858E+02 0.  0.
    5000000    2    1    2    0    0 -0.41454173800E+03 -0.37526070089E+03  0.80122226375E+02  0.82403032643E+03  0.59995079927E+03 0.  0.
        -24    2    4    4    0    0 -0.29584722680E+02 -0.40906863820E+03 -0.14309278152E+02  0.41805650401E+03  0.79712474111E+02 0.  0.
         24    2    4    4    0    0 -0.38495701531E+03  0.33807937304E+02  0.94431504527E+02  0.40597382242E+03  0.81009599319E+02 0.  0.
         13    1    3    3    0    0  0.12454527956E+03  0.11404802438E+03  0.33725503362E+03  0.37717295268E+03  0.00000000000E+00 0. -1.
        -14    1    3    3    0    0  0.28999645844E+03  0.26121267651E+03  0.54360995776E+03  0.66920982842E+03  0.00000000000E+00 0.  1.
         13    1    5    5    0    0  0.25279887429E+02 -0.87694256327E+02 -0.11782745197E+02  0.92022760150E+02  0.00000000000E+00 0. -1.
        -14    1    5    5    0    0 -0.54864610110E+02 -0.32137438187E+03 -0.25265329541E+01  0.32603374386E+03  0.00000000000E+00 0.  1.
          2    1    6    6  502    0 -0.20259978712E+03  0.50586302725E+02  0.25797120887E+02  0.21040707975E+03  0.00000000000E+00 0. -1.
         -1    1    6    6    0  502 -0.18235722819E+03 -0.16778365421E+02  0.68634383640E+02  0.19556674267E+03  0.00000000000E+00 0.  1.
<mgrwt>
<rscale>  0 0.68420265E+03</rscale>
<asrwt>0</asrwt>
<pdfrwt beam="1">  1        1 0.21780002E+00 0.68420265E+03</pdfrwt>
<pdfrwt beam="2">  1       -4 0.69955838E-01 0.68420265E+03</pdfrwt>
<totfact> 0.69486635E+00</totfact>
</mgrwt>
</event>
<event>
12    3  0.2269558E-007  0.7678781E+03  0.7818608E-02  0.9607713E-01
         -2   -1    0    0    0  501 -0.00000000000E+00  0.00000000000E+00  0.14136414638E+04  0.14136414638E+04  0.00000000000E+00 0.  1.
          1   -1    0    0  501    0  0.00000000000E+00 -0.00000000000E+00 -0.59233844766E+03  0.59233844766E+03  0.00000000000E+00 0. -1.
        -24    2    1    2    0    0  0.22729187815E+03 -0.62143754450E+03  0.88815556138E+03  0.11102718941E+04  0.77699151005E+02 0.  0.
    5000000    2    1    2    0    0 -0.22729187815E+03  0.62143754450E+03 -0.66852545228E+02  0.89570801736E+03  0.59998114134E+03 0.  0.
        -24    2    4    4    0    0 -0.17035819083E+02 -0.10335332613E+03 -0.35514076133E+02  0.13611123715E+03  0.79327738663E+02 0.  0.
         24    2    4    4    0    0 -0.21025605906E+03  0.72479087063E+03 -0.31338469095E+02  0.75959678021E+03  0.80472059378E+02 0.  0.
         11    1    3    3    0    0  0.21844900653E+03 -0.52183580319E+03  0.73829716684E+03  0.93011573501E+03  0.00000000000E+00 0. -1.
        -12    1    3    3    0    0  0.88428716174E+01 -0.99601741306E+02  0.14985839454E+03  0.18015615911E+03  0.00000000000E+00 0.  1.
         13    1    5    5    0    0  0.14022030720E+02 -0.11571349822E+02 -0.34744910871E+02  0.39213802591E+02  0.00000000000E+00 0. -1.
        -14    1    5    5    0    0 -0.31057849803E+02 -0.91781976305E+02 -0.76916526233E+00  0.96897434558E+02  0.00000000000E+00 0.  1.
          2    1    6    6  502    0 -0.14998895585E+03  0.55001080051E+03 -0.57032931059E+02  0.57294094179E+03  0.00000000000E+00 0. -1.
         -1    1    6    6    0  502 -0.60267103211E+02  0.17478007011E+03  0.25694461964E+02  0.18665583841E+03  0.00000000000E+00 0.  1.
<mgrwt>
<rscale>  0 0.76787812E+03</rscale>
<asrwt>0</asrwt>
<pdfrwt beam="1">  1        1 0.91128993E-01 0.76787812E+03</pdfrwt>
<pdfrwt beam="2">  1       -2 0.21748330E+00 0.76787812E+03</pdfrwt>
<totfact> 0.32163223E+00</totfact>
</mgrwt>
</event>
<event>
12    3  0.2269558E-007  0.5762534E+03  0.7818608E-02  0.9955935E-01
         -2   -1    0    0    0  501 -0.00000000000E+00  0.00000000000E+00  0.12248188589E+04  0.12248188589E+04  0.00000000000E+00 0.  1.
          1   -1    0    0  501    0  0.00000000000E+00 -0.00000000000E+00 -0.57740863613E+03  0.57740863613E+03  0.00000000000E+00 0. -1.
        -24    2    1    2    0    0 -0.46681604335E+03  0.15783687017E+03  0.86243975348E+03  0.99656138916E+03  0.80638564471E+02 0.  0.
    5000000    2    1    2    0    0  0.46681604335E+03 -0.15783687017E+03 -0.21502953066E+03  0.80566610591E+03  0.60002539883E+03 0.  0.
        -24    2    4    4    0    0  0.44150914861E+03 -0.26608660392E+03 -0.33964536685E+03  0.62238698047E+03  0.79209653046E+02 0.  0.
         24    2    4    4    0    0  0.25306894737E+02  0.10824973375E+03  0.12461583619E+03  0.18327912544E+03  0.75522760907E+02 0.  0.
         13    1    5    5    0    0  0.14658152391E+03 -0.13213472244E+03 -0.13841131978E+03  0.24104651308E+03  0.00000000000E+00 0. -1.
        -14    1    5    5    0    0  0.29492762470E+03 -0.13395188149E+03 -0.20123404707E+03  0.38134046739E+03  0.00000000000E+00 0.  1.
         13    1    3    3    0    0 -0.57944877053E+02  0.46587397208E+02  0.15537318026E+03  0.17224639184E+03  0.00000000000E+00 0. -1.
        -14    1    3    3    0    0 -0.40887116630E+03  0.11124947296E+03  0.70706657321E+03  0.82431499733E+03  0.00000000000E+00 0.  1.
          4    1    6    6  502    0 -0.11878324451E+02 -0.57815729576E+01  0.20842491696E+02  0.24676519968E+02  0.00000000000E+00 0. -1.
         -3    1    6    6    0  502  0.37185219188E+02  0.11403130671E+03  0.10377334449E+03  0.15860260547E+03  0.00000000000E+00 0.  1.
<mgrwt>
<rscale>  0 0.57625339E+03</rscale>
<asrwt>0</asrwt>
<pdfrwt beam="1">  1        1 0.88832098E-01 0.57625339E+03</pdfrwt>
<pdfrwt beam="2">  1       -2 0.18843367E+00 0.57625339E+03</pdfrwt>
<totfact> 0.52814568E+00</totfact>
</mgrwt>
</event>
<event>
12    3  0.2269558E-007  0.4309369E+03  0.7818608E-02  0.1033564E+00
         -2   -1    0    0    0  501 -0.00000000000E+00  0.00000000000E+00  0.22785614370E+03  0.22785614370E+03  0.00000000000E+00 0.  1.
          1   -1    0    0  501    0  0.00000000000E+00 -0.00000000000E+00 -0.12123137765E+04  0.12123137765E+04  0.00000000000E+00 0. -1.
        -24    2    1    2    0    0 -0.23472761864E+03 -0.22371674415E+03 -0.16136945064E+03  0.37127134578E+03  0.81584778213E+02 0.  0.
    5000000    2    1    2    0    0  0.23472761864E+03  0.22371674415E+03 -0.82308818212E+03  0.10688985744E+04  0.59993647179E+03 0.  0.
        -24    2    4    4    0    0 -0.48821652373E+02  0.21970901777E+03 -0.71741890652E+03  0.75629193316E+03  0.81437058576E+02 0.  0.
         24    2    4    4    0    0  0.28354927101E+03  0.40077263807E+01 -0.10566927561E+03  0.31260664121E+03  0.78362397615E+02 0.  0.
         11    1    5    5    0    0 -0.10010946224E+02  0.17507384378E+03 -0.46320940964E+03  0.49529186042E+03  0.00000000000E+00 0. -1.
        -12    1    5    5    0    0 -0.38810706149E+02  0.44635173989E+02 -0.25420949687E+03  0.26100007274E+03  0.00000000000E+00 0.  1.
         11    1    3    3    0    0 -0.15808458882E+03 -0.19608107874E+03 -0.10917791914E+03  0.27451474403E+03  0.00000000000E+00 0. -1.
        -12    1    3    3    0    0 -0.76643029817E+02 -0.27635665405E+02 -0.52191531499E+02  0.96756601750E+02  0.00000000000E+00 0.  1.
          2    1    6    6  502    0  0.80028711836E+02  0.36438252629E+02 -0.26572755981E+02  0.91861049054E+02  0.00000000000E+00 0. -1.
         -1    1    6    6    0  502  0.20352055918E+03 -0.32430526249E+02 -0.79096519624E+02  0.22074559216E+03  0.00000000000E+00 0.  1.
<mgrwt>
<rscale>  0 0.43093688E+03</rscale>
<asrwt>0</asrwt>
<pdfrwt beam="1">  1        1 0.18650981E+00 0.43093688E+03</pdfrwt>
<pdfrwt beam="2">  1       -2 0.35054792E-01 0.43093688E+03</pdfrwt>
<totfact> 0.74232620E+01</totfact>
</mgrwt>
</event>
<event>
12    3  0.2269558E-007  0.1227111E+04  0.7818608E-02  0.9089452E-01
          1   -1    0    0  501    0  0.00000000000E+00  0.00000000000E+00  0.10966972811E+04  0.10966972811E+04  0.00000000000E+00 0. -1.
         -2   -1    0    0    0  501 -0.00000000000E+00 -0.00000000000E+00 -0.15586756905E+04  0.15586756905E+04  0.00000000000E+00 0.  1.
        -24    2    1    2    0    0  0.11301140947E+04 -0.44226589267E+03  0.25570425814E+02  0.12164557645E+04  0.79710685292E+02 0.  0.
    5000000    2    1    2    0    0 -0.11301140947E+04  0.44226589267E+03 -0.48754883522E+03  0.14389172072E+04  0.60001822945E+03 0.  0.
        -24    2    4    4    0    0 -0.67836934299E+03  0.36876323407E+03 -0.57430013496E+03  0.96550059613E+03  0.78736699118E+02 0.  0.
         24    2    4    4    0    0 -0.45174475170E+03  0.73502658604E+02  0.86751299747E+02  0.47341661109E+03  0.84389206308E+02 0.  0.
         13    1    5    5    0    0 -0.43268742200E+03  0.19784498619E+03 -0.32774494208E+03  0.57773505240E+03  0.00000000000E+00 0. -1.
        -14    1    5    5    0    0 -0.24568192100E+03  0.17091824788E+03 -0.24655519288E+03  0.38776554373E+03  0.00000000000E+00 0.  1.
         13    1    3    3    0    0  0.19813329115E+03 -0.91302494527E+02  0.32453168650E+02  0.22055873305E+03  0.00000000000E+00 0. -1.
        -14    1    3    3    0    0  0.93198080354E+03 -0.35096339815E+03 -0.68827428366E+01  0.99589703140E+03  0.00000000000E+00 0.  1.
          4    1    6    6  502    0 -0.36228034636E+03  0.24460808710E+02  0.74377489264E+02  0.37064456212E+03  0.00000000000E+00 0. -1.
         -1    1    6    6    0  502 -0.89464405335E+02  0.49041849894E+02  0.12373810484E+02  0.10277204897E+03  0.00000000000E+00 0.  1.
<mgrwt>
<rscale>  0 0.12271110E+04</rscale>
<asrwt>0</asrwt>
<pdfrwt beam="1">  1        1 0.16872266E+00 0.12271110E+04</pdfrwt>
<pdfrwt beam="2">  1       -2 0.23979626E+00 0.12271110E+04</pdfrwt>
<totfact> 0.80815794E-01</totfact>
</mgrwt>
</event>
<event>
12    3  0.2269558E-007  0.1054361E+04  0.7818608E-02  0.9250853E-01
         -2   -1    0    0    0  501 -0.00000000000E+00  0.00000000000E+00  0.17559079618E+04  0.17559079618E+04  0.00000000000E+00 0.  1.
          1   -1    0    0  501    0  0.00000000000E+00 -0.00000000000E+00 -0.69241633052E+03  0.69241633052E+03  0.00000000000E+00 0. -1.
        -24    2    1    2    0    0  0.92213759344E+03  0.40989200015E+03  0.33347148498E+03  0.10658201243E+04  0.80125607587E+02 0.  0.
    5000000    2    1    2    0    0 -0.92213759344E+03 -0.40989200015E+03  0.73002014633E+03  0.13825041681E+04  0.60003263882E+03 0.  0.
        -24    2    4    4    0    0 -0.92467558800E+03 -0.31947975495E+03  0.45522882944E+03  0.10820030367E+04  0.80031415779E+02 0.  0.
         24    2    4    4    0    0  0.25379945591E+01 -0.90412245199E+02  0.27479131689E+03  0.30050113132E+03  0.81300963011E+02 0.  0.
         11    1    5    5    0    0 -0.66719623779E+03 -0.21261377880E+03  0.28990481206E+03  0.75789197034E+03  0.00000000000E+00 0. -1.
        -12    1    5    5    0    0 -0.25747935021E+03 -0.10686597615E+03  0.16532401737E+03  0.32411106640E+03  0.00000000000E+00 0.  1.
         13    1    3    3    0    0  0.39828908482E+03  0.22049730400E+03  0.14636041467E+03  0.47819935920E+03  0.00000000000E+00 0. -1.
        -14    1    3    3    0    0  0.52384850862E+03  0.18939469615E+03  0.18711107031E+03  0.58762076507E+03  0.00000000000E+00 0.  1.
          4    1    6    6  502    0  0.35195515309E+02 -0.71440631610E+02  0.21985282572E+03  0.23383274604E+03  0.00000000000E+00 0. -1.
         -3    1    6    6    0  502 -0.32657520750E+02 -0.18971613590E+02  0.54938491173E+02  0.66668385282E+02  0.00000000000E+00 0.  1.
<mgrwt>
<rscale>  0 0.10543615E+04</rscale>
<asrwt>0</asrwt>
<pdfrwt beam="1">  1        1 0.10652559E+00 0.10543615E+04</pdfrwt>
<pdfrwt beam="2">  1       -2 0.27013969E+00 0.10543615E+04</pdfrwt>
<totfact> 0.11714569E+00</totfact>
</mgrwt>
</event>
<event>
12    3  0.2269558E-007  0.8843196E+03  0.7818608E-02  0.9445398E-01
         -2   -1    0    0    0  501 -0.00000000000E+00  0.00000000000E+00  0.18332462513E+04  0.18332462513E+04  0.00000000000E+00 0.  1.
          1   -1    0    0  501    0  0.00000000000E+00 -0.00000000000E+00 -0.63799888191E+03  0.63799888191E+03  0.00000000000E+00 0. -1.
        -24    2    1    2    0    0 -0.57570353766E+03 -0.54820955796E+03 -0.13426775236E+03  0.81003977937E+03  0.78538730064E+02 0.  0.
    5000000    2    1    2    0    0  0.57570353766E+03  0.54820955796E+03  0.13295151217E+04  0.16612053538E+04  0.60002040459E+03 0.  0.
        -24    2    4    4    0    0  0.31707913730E+03  0.62276882870E+03  0.10611135882E+04  0.12730459645E+04  0.79396392713E+02 0.  0.
         24    2    4    4    0    0  0.25862440036E+03 -0.74559270741E+02  0.26840153345E+03  0.38815938932E+03  0.78629911884E+02 0.  0.
         11    1    3    3    0    0 -0.20954562453E+03 -0.20272610245E+03 -0.11092473591E+02  0.29177094500E+03  0.00000000000E+00 0. -1.
        -12    1    3    3    0    0 -0.36615791313E+03 -0.34548345551E+03 -0.12317527877E+03  0.51826883437E+03  0.00000000000E+00 0.  1.
         11    1    5    5    0    0  0.22208183206E+03  0.47287323821E+03  0.84436054638E+03  0.99291196580E+03  0.00000000000E+00 0. -1.
        -12    1    5    5    0    0  0.94997305242E+02  0.14989559049E+03  0.21675304187E+03  0.28013399867E+03  0.00000000000E+00 0.  1.
          2    1    6    6  502    0  0.54387410838E+02  0.49299488703E+01  0.23324703281E+02  0.59382965880E+02  0.00000000000E+00 0. -1.
         -1    1    6    6    0  502  0.20423698952E+03 -0.79489219611E+02  0.24507683017E+03  0.32877642344E+03  0.00000000000E+00 0.  1.
<mgrwt>
<rscale>  0 0.88431961E+03</rscale>
<asrwt>0</asrwt>
<pdfrwt beam="1">  1        1 0.98153675E-01 0.88431961E+03</pdfrwt>
<pdfrwt beam="2">  1       -2 0.28203788E+00 0.88431961E+03</pdfrwt>
<totfact> 0.11474748E+00</totfact>
</mgrwt>
</event>
<event>
12    3  0.2269558E-007  0.6232953E+03  0.7818608E-02  0.9858221E-01
         -4   -1    0    0    0  501 -0.00000000000E+00  0.00000000000E+00  0.45392166585E+03  0.45392166585E+03  0.00000000000E+00 0.  1.
          3   -1    0    0  501    0  0.00000000000E+00 -0.00000000000E+00 -0.11577478580E+04  0.11577478580E+04  0.00000000000E+00 0. -1.
        -24    2    1    2    0    0  0.39260704863E+03 -0.37770889943E+03 -0.21823423594E+02  0.55249834149E+03  0.89296406327E+02 0.  0.
    5000000    2    1    2    0    0 -0.39260704863E+03  0.37770889943E+03 -0.68200276853E+03  0.10591711823E+04  0.59992625369E+03 0.  0.
        -24    2    4    4    0    0  0.83622658347E+01 -0.61193115218E+02  0.50271248375E+02  0.11256740365E+03  0.79559393607E+02 0.  0.
         24    2    4    4    0    0 -0.40096931447E+03  0.43890201465E+03 -0.73227401690E+03  0.94660377869E+03  0.80138058276E+02 0.  0.
         11    1    3    3    0    0  0.13517049189E+03 -0.15917120966E+03  0.29632503461E+02  0.21091377652E+03  0.00000000000E+00 0. -1.
        -12    1    3    3    0    0  0.25743655674E+03 -0.21853768977E+03 -0.51455927055E+02  0.34158456497E+03  0.00000000000E+00 0.  1.
         13    1    5    5    0    0 -0.29541750885E+02 -0.54204356561E+02  0.25761735475E+02  0.66891661141E+02  0.00000000000E+00 0. -1.
        -14    1    5    5    0    0  0.37904016720E+02 -0.69887586578E+01  0.24509512899E+02  0.45675742508E+02  0.00000000000E+00 0.  1.
          2    1    6    6  502    0 -0.25114100167E+03  0.32945665015E+03 -0.49985606781E+03  0.64920688195E+03  0.00000000000E+00 0. -1.
         -1    1    6    6    0  502 -0.14982831280E+03  0.10944536450E+03 -0.23241794909E+03  0.29739689673E+03  0.00000000000E+00 0.  1.
<mgrwt>
<rscale>  0 0.62329526E+03</rscale>
<asrwt>0</asrwt>
<pdfrwt beam="1">  1        3 0.17811505E+00 0.62329526E+03</pdfrwt>
<pdfrwt beam="2">  1       -4 0.69834104E-01 0.62329526E+03</pdfrwt>
<totfact> 0.87409517E-01</totfact>
</mgrwt>
</event>
<event>
12    3  0.2269558E-007  0.1520501E+04  0.7818608E-02  0.8870934E-01
         -4   -1    0    0    0  501 -0.00000000000E+00  0.00000000000E+00  0.17840613981E+04  0.17840613981E+04  0.00000000000E+00 0.  1.
          3   -1    0    0  501    0  0.00000000000E+00 -0.00000000000E+00 -0.13223289649E+04  0.13223289649E+04  0.00000000000E+00 0. -1.
        -24    2    1    2    0    0 -0.11411591272E+04 -0.93270659588E+03  0.13923025248E+03  0.14827818869E+04  0.84091101088E+02 0.  0.
    5000000    2    1    2    0    0  0.11411591272E+04  0.93270659588E+03  0.32250218073E+03  0.16236084761E+04  0.59992589505E+03 0.  0.
        -24    2    4    4    0    0  0.11822066448E+04  0.89916283483E+03  0.26172113647E+03  0.15101772052E+04  0.77658760687E+02 0.  0.
         24    2    4    4    0    0 -0.41047517577E+02  0.33543761048E+02  0.60781044262E+02  0.11343127098E+03  0.79763621352E+02 0.  0.
         11    1    3    3    0    0 -0.97900912755E+03 -0.83605670583E+03  0.12514428148E+03  0.12934878346E+04  0.00000000000E+00 0. -1.
        -12    1    3    3    0    0 -0.16214999969E+03 -0.96649890046E+02  0.14085971009E+02  0.18929405227E+03  0.00000000000E+00 0.  1.
         11    1    5    5    0    0  0.11458516339E+04  0.88154359715E+03  0.26437660847E+03  0.14696904680E+04  0.00000000000E+00 0. -1.
        -12    1    5    5    0    0  0.36355010900E+02  0.17619237680E+02 -0.26554720019E+01  0.40486737156E+02  0.00000000000E+00 0.  1.
          4    1    6    6  502    0 -0.20809332975E+02  0.48997195146E+02  0.68565616212E+02  0.86804361628E+02  0.00000000000E+00 0. -1.
         -3    1    6    6    0  502 -0.20238184603E+02 -0.15453434098E+02 -0.77845719503E+01  0.26626909357E+02  0.00000000000E+00 0.  1.
<mgrwt>
<rscale>  0 0.15205006E+04</rscale>
<asrwt>0</asrwt>
<pdfrwt beam="1">  1        3 0.20343523E+00 0.15205006E+04</pdfrwt>
<pdfrwt beam="2">  1       -4 0.27447098E+00 0.15205006E+04</pdfrwt>
<totfact> 0.13102148E-02</totfact>
</mgrwt>
</event>
<event>
12    3  0.2269558E-007  0.3940662E+03  0.7818608E-02  0.1045854E+00
          1   -1    0    0  501    0  0.00000000000E+00  0.00000000000E+00  0.85494195224E+03  0.85494195224E+03  0.00000000000E+00 0. -1.
         -2   -1    0    0    0  501 -0.00000000000E+00 -0.00000000000E+00 -0.26181014165E+03  0.26181014165E+03  0.00000000000E+00 0.  1.
        -24    2    1    2    0    0 -0.22364770556E+03 -0.91447059200E+02  0.33392793523E+03  0.41997434486E+03  0.80558820600E+02 0.  0.
    5000000    2    1    2    0    0  0.22364770556E+03  0.91447059200E+02  0.25920387536E+03  0.69677774903E+03  0.59994309872E+03 0.  0.
        -24    2    4    4    0    0 -0.90852382036E+02 -0.10765039508E+03 -0.85366235513E+02  0.18272337322E+03  0.79105461719E+02 0.  0.
         24    2    4    4    0    0  0.31450008760E+03  0.19909745428E+03  0.34457011088E+03  0.51405437581E+03  0.83505919392E+02 0.  0.
         11    1    5    5    0    0 -0.47179845404E+02 -0.10740488682E+03 -0.68909572154E+02  0.13605247759E+03  0.00000000000E+00 0. -1.
        -12    1    5    5    0    0 -0.43672536631E+02 -0.24550826490E+00 -0.16456663360E+02  0.46670895632E+02  0.00000000000E+00 0.  1.
         11    1    3    3    0    0 -0.19819859030E+03 -0.10288403265E+03  0.27110638275E+03  0.35123564190E+03  0.00000000000E+00 0. -1.
        -12    1    3    3    0    0 -0.25449115260E+02  0.11436973451E+02  0.62821552476E+02  0.68738702961E+02  0.00000000000E+00 0.  1.
          2    1    6    6  502    0  0.14121353345E+03  0.12058622745E+03  0.21389665111E+03  0.28325620494E+03  0.00000000000E+00 0. -1.
         -3    1    6    6    0  502  0.17328655415E+03  0.78511226833E+02  0.13067345977E+03  0.23079817087E+03  0.00000000000E+00 0.  1.
<mgrwt>
<rscale>  0 0.39406616E+03</rscale>
<asrwt>0</asrwt>
<pdfrwt beam="1">  1        1 0.13152953E+00 0.39406616E+03</pdfrwt>
<pdfrwt beam="2">  1       -2 0.40278484E-01 0.39406616E+03</pdfrwt>
<totfact> 0.10654420E+02</totfact>
</mgrwt>
</event>
<event>
12    3  0.2269558E-007  0.1576162E+04  0.7818608E-02  0.8835328E-01
          1   -1    0    0  501    0  0.00000000000E+00  0.00000000000E+00  0.61823583752E+03  0.61823583752E+03  0.00000000000E+00 0. -1.
         -2   -1    0    0    0  501 -0.00000000000E+00 -0.00000000000E+00 -0.42282621678E+04  0.42282621678E+04  0.00000000000E+00 0.  1.
        -24    2    1    2    0    0 -0.37686019612E+03  0.15029481835E+04 -0.14716276979E+04  0.21384562437E+04  0.80188374711E+02 0.  0.
    5000000    2    1    2    0    0  0.37686019612E+03 -0.15029481835E+04 -0.21383986324E+04  0.27080417616E+04  0.59988717427E+03 0.  0.
        -24    2    4    4    0    0  0.39316924490E+03 -0.14980334413E+04 -0.18798108819E+04  0.24369418707E+04  0.79438548724E+02 0.  0.
         24    2    4    4    0    0 -0.16309048785E+02 -0.49147422227E+01 -0.25858775054E+03  0.27109989097E+03  0.79607703066E+02 0.  0.
         13    1    3    3    0    0 -0.32889150972E+03  0.12022395033E+04 -0.11582194708E+04  0.17014763562E+04  0.00000000000E+00 0. -1.
        -14    1    3    3    0    0 -0.47968686401E+02  0.30070868023E+03 -0.31340822707E+03  0.43697988745E+03  0.00000000000E+00 0.  1.
         13    1    5    5    0    0  0.75253473985E+02 -0.37720034771E+03 -0.50732469946E+03  0.63664867732E+03  0.00000000000E+00 0. -1.
        -14    1    5    5    0    0  0.31791577092E+03 -0.11208330936E+04 -0.13724861824E+04  0.18002931933E+04  0.00000000000E+00 0.  1.
          4    1    6    6  502    0 -0.15361494654E+02 -0.26220542477E+02 -0.24247166643E+03  0.24436857693E+03  0.00000000000E+00 0. -1.
         -3    1    6    6    0  502 -0.94755413158E+00  0.21305800254E+02 -0.16116084110E+02  0.26731314041E+02  0.00000000000E+00 0.  1.
<mgrwt>
<rscale>  0 0.15761616E+04</rscale>
<asrwt>0</asrwt>
<pdfrwt beam="1">  1        1 0.95113206E-01 0.15761616E+04</pdfrwt>
<pdfrwt beam="2">  1       -2 0.65050187E+00 0.15761616E+04</pdfrwt>
<totfact> 0.88714415E-03</totfact>
</mgrwt>
</event>
<event>
12    3  0.2269558E-007  0.5962938E+03  0.7818608E-02  0.9913125E-01
         -4   -1    0    0    0  501 -0.00000000000E+00  0.00000000000E+00  0.10338324209E+04  0.10338324209E+04  0.00000000000E+00 0.  1.
          1   -1    0    0  501    0  0.00000000000E+00 -0.00000000000E+00 -0.45412555060E+04  0.45412555060E+04  0.00000000000E+00 0. -1.
        -24    2    1    2    0    0 -0.48621548242E+03  0.55840296244E+01 -0.43812763178E+04  0.44088724846E+04  0.78343704188E+02 0.  0.
    5000000    2    1    2    0    0  0.48621548242E+03 -0.55840296244E+01  0.87385323271E+03  0.11662154423E+04  0.60000192394E+03 0.  0.
        -24    2    4    4    0    0  0.29406276829E+03  0.24178521107E+03  0.24433308325E+03  0.45847779846E+03  0.74634014533E+02 0.  0.
         24    2    4    4    0    0  0.19215271413E+03 -0.24736924070E+03  0.62952014946E+03  0.70773764380E+03  0.80515508387E+02 0.  0.
         11    1    5    5    0    0  0.19911082550E+03  0.15628786063E+03  0.11974326314E+03  0.28001690178E+03  0.00000000000E+00 0. -1.
        -12    1    5    5    0    0  0.94951942787E+02  0.85497350442E+02  0.12458982010E+03  0.17846089668E+03  0.00000000000E+00 0.  1.
         11    1    3    3    0    0 -0.16112951339E+03  0.38287132560E+02 -0.15299505933E+04  0.15388883788E+04  0.00000000000E+00 0. -1.
        -12    1    3    3    0    0 -0.32508596903E+03 -0.32703102936E+02 -0.28513257245E+04  0.28699841058E+04  0.00000000000E+00 0.  1.
          4    1    6    6  502    0  0.27778745564E+02 -0.80334319677E+02  0.12163302138E+03  0.14839088083E+03  0.00000000000E+00 0. -1.
         -1    1    6    6    0  502  0.16437396856E+03 -0.16703492102E+03  0.50788712807E+03  0.55934676297E+03  0.00000000000E+00 0.  1.
<mgrwt>
<rscale>  0 0.59629385E+03</rscale>
<asrwt>0</asrwt>
<pdfrwt beam="1">  1        1 0.69865470E+00 0.59629385E+03</pdfrwt>
<pdfrwt beam="2">  1       -4 0.15905114E+00 0.59629385E+03</pdfrwt>
<totfact> 0.42301530E-03</totfact>
</mgrwt>
</event>
<event>
12    3  0.2269558E-007  0.1982948E+04  0.7818608E-02  0.8614635E-01
         -2   -1    0    0    0  501 -0.00000000000E+00  0.00000000000E+00  0.27021622170E+04  0.27021622170E+04  0.00000000000E+00 0.  1.
          1   -1    0    0  501    0  0.00000000000E+00 -0.00000000000E+00 -0.17892297146E+04  0.17892297146E+04  0.00000000000E+00 0. -1.
        -24    2    1    2    0    0  0.76184082805E+02  0.19745628565E+04  0.13316991344E+04  0.23842128041E+04  0.79659412647E+02 0.  0.
    5000000    2    1    2    0    0 -0.76184082805E+02 -0.19745628565E+04 -0.41876663195E+03  0.21071791275E+04  0.60011323508E+03 0.  0.
        -24    2    4    4    0    0 -0.13618437964E+03 -0.15374164657E+04 -0.84229375699E+02  0.15477774390E+04  0.79528854758E+02 0.  0.
         24    2    4    4    0    0  0.60000296839E+02 -0.43714639078E+03 -0.33453725625E+03  0.55940168854E+03  0.79486292731E+02 0.  0.
         13    1    5    5    0    0 -0.60734039368E+02 -0.10694969898E+04 -0.44316423535E+02  0.10721363627E+04  0.00000000000E+00 0. -1.
        -14    1    5    5    0    0 -0.75450340277E+02 -0.46791947584E+03 -0.39912952163E+02  0.47564107631E+03  0.00000000000E+00 0.  1.
         13    1    3    3    0    0  0.84783603398E+02  0.12584620190E+04  0.83436928803E+03  0.15123118135E+04  0.00000000000E+00 0. -1.
        -14    1    3    3    0    0 -0.85995205925E+01  0.71610083750E+03  0.49732984636E+03  0.87190099054E+03  0.00000000000E+00 0.  1.
          4    1    6    6  502    0  0.62513986400E+02 -0.31880455969E+03 -0.20608605770E+03  0.38472822740E+03  0.00000000000E+00 0. -1.
         -3    1    6    6    0  502 -0.25136895614E+01 -0.11834183109E+03 -0.12845119855E+03  0.17467346114E+03  0.00000000000E+00 0.  1.
<mgrwt>
<rscale>  0 0.19829476E+04</rscale>
<asrwt>0</asrwt>
<pdfrwt beam="1">  1        1 0.27526611E+00 0.19829476E+04</pdfrwt>
<pdfrwt beam="2">  1       -2 0.41571726E+00 0.19829476E+04</pdfrwt>
<totfact> 0.18910733E-02</totfact>
</mgrwt>
</event>
<event>
12    3  0.2269558E-007  0.9252756E+03  0.7818608E-02  0.9394526E-01
          1   -1    0    0  501    0  0.00000000000E+00  0.00000000000E+00  0.30146391910E+04  0.30146391910E+04  0.00000000000E+00 0. -1.
         -2   -1    0    0    0  501 -0.00000000000E+00 -0.00000000000E+00 -0.76018555462E+03  0.76018555462E+03  0.00000000000E+00 0.  1.
        -24    2    1    2    0    0 -0.54424121578E+03  0.69973317131E+03  0.25195068816E+04  0.26720742260E+04  0.78998297655E+02 0.  0.
    5000000    2    1    2    0    0  0.54424121578E+03 -0.69973317131E+03 -0.26505324523E+03  0.11027505196E+04  0.59998372779E+03 0.  0.
        -24    2    4    4    0    0  0.53426865889E+03 -0.70241963808E+03 -0.37854557605E+03  0.96394671502E+03  0.84024808326E+02 0.  0.
         24    2    4    4    0    0  0.99725568932E+01  0.26864667697E+01  0.11349233082E+03  0.13880380455E+03  0.79242147929E+02 0.  0.
         11    1    5    5    0    0  0.22299752297E+03 -0.26115683634E+03 -0.10820825077E+03  0.36005529292E+03  0.00000000000E+00 0. -1.
        -12    1    5    5    0    0  0.31127113592E+03 -0.44126280173E+03 -0.27033732528E+03  0.60389142210E+03  0.00000000000E+00 0.  1.
         11    1    3    3    0    0 -0.21110735193E+03  0.33078544478E+03  0.10681340740E+04  0.11379348507E+04  0.00000000000E+00 0. -1.
        -12    1    3    3    0    0 -0.33313386385E+03  0.36894772653E+03  0.14513728076E+04  0.15341393753E+04  0.00000000000E+00 0.  1.
          4    1    6    6  502    0  0.43564121192E+02 -0.25528134456E+01  0.79722318828E+02  0.90884529107E+02  0.00000000000E+00 0. -1.
         -3    1    6    6    0  502 -0.33591564298E+02  0.52392802153E+01  0.33770011991E+02  0.47919275444E+02  0.00000000000E+00 0.  1.
<mgrwt>
<rscale>  0 0.92527562E+03</rscale>
<asrwt>0</asrwt>
<pdfrwt beam="1">  1        1 0.46379064E+00 0.92527562E+03</pdfrwt>
<pdfrwt beam="2">  1       -2 0.11695163E+00 0.92527562E+03</pdfrwt>
<totfact> 0.29992725E-01</totfact>
</mgrwt>
</event>
<event>
12    3  0.2269558E-007  0.2468892E+04  0.7818608E-02  0.8414152E-01
         -2   -1    0    0    0  501 -0.00000000000E+00  0.00000000000E+00  0.20732632076E+04  0.20732632076E+04  0.00000000000E+00 0.  1.
          1   -1    0    0  501    0  0.00000000000E+00 -0.00000000000E+00 -0.29863798758E+04  0.29863798758E+04  0.00000000000E+00 0. -1.
        -24    2    1    2    0    0 -0.19509927964E+04 -0.14686749377E+04 -0.66782577200E+03  0.25331111713E+04  0.85334518977E+02 0.  0.
    5000000    2    1    2    0    0  0.19509927964E+04  0.14686749377E+04 -0.24529089620E+03  0.25265319120E+04  0.59984740927E+03 0.  0.
        -24    2    4    4    0    0  0.10471052871E+04  0.47768914023E+03 -0.26049548238E+03  0.11827240994E+04  0.79762158927E+02 0.  0.
         24    2    4    4    0    0  0.90388750927E+03  0.99098579751E+03  0.15204586183E+02  0.13438078126E+04  0.80763714023E+02 0.  0.
         11    1    5    5    0    0  0.43758600017E+03  0.23796237309E+03 -0.13157618007E+03  0.51518917856E+03  0.00000000000E+00 0. -1.
        -12    1    5    5    0    0  0.60951928694E+03  0.23972676714E+03 -0.12891930231E+03  0.66753492085E+03  0.00000000000E+00 0.  1.
         13    1    3    3    0    0 -0.85251399883E+03 -0.59028811591E+03 -0.29312875062E+03  0.10775642173E+04  0.00000000000E+00 0. -1.
        -14    1    3    3    0    0 -0.10984787976E+04 -0.87838682182E+03 -0.37469702138E+03  0.14555469540E+04  0.00000000000E+00 0.  1.
          4    1    6    6  502    0  0.69918161321E+03  0.76638396680E+03 -0.22091789979E+02  0.10376354659E+04  0.00000000000E+00 0. -1.
         -3    1    6    6    0  502  0.20470589607E+03  0.22460183070E+03  0.37296376162E+02  0.30617234675E+03  0.00000000000E+00 0.  1.
<mgrwt>
<rscale>  0 0.24688921E+04</rscale>
<asrwt>0</asrwt>
<pdfrwt beam="1">  1        1 0.45944306E+00 0.24688921E+04</pdfrwt>
<pdfrwt beam="2">  1       -2 0.31896357E+00 0.24688921E+04</pdfrwt>
<totfact> 0.10988609E-02</totfact>
</mgrwt>
</event>
<event>
12    3  0.2269558E-007  0.1258476E+04  0.7818608E-02  0.9063158E-01
          1   -1    0    0  501    0  0.00000000000E+00  0.00000000000E+00  0.17729840204E+04  0.17729840204E+04  0.00000000000E+00 0. -1.
         -2   -1    0    0    0  501 -0.00000000000E+00 -0.00000000000E+00 -0.13432931098E+04  0.13432931098E+04  0.00000000000E+00 0.  1.
        -24    2    1    2    0    0 -0.14851283571E+03 -0.12035529101E+04 -0.65657807251E+03  0.13813056906E+04  0.79466822720E+02 0.  0.
    5000000    2    1    2    0    0  0.14851283571E+03  0.12035529101E+04  0.10862689832E+04  0.17349714396E+04  0.59962481818E+03 0.  0.
        -24    2    4    4    0    0 -0.16806663001E+03  0.34976522624E+03  0.54090775742E+03  0.67039169674E+03  0.79131026799E+02 0.  0.
         24    2    4    4    0    0  0.31657946572E+03  0.85378768383E+03  0.54536122574E+03  0.10645797428E+04  0.82068234465E+02 0.  0.
         11    1    3    3    0    0 -0.45607588436E+02 -0.37561305165E+03 -0.24724235806E+03  0.45198893826E+03  0.00000000000E+00 0. -1.
        -12    1    3    3    0    0 -0.10290524727E+03 -0.82793985843E+03 -0.40933571446E+03  0.92931675236E+03  0.00000000000E+00 0.  1.
         13    1    5    5    0    0 -0.10439138825E+03  0.26782805969E+03  0.44051810606E+03  0.52600915701E+03  0.00000000000E+00 0. -1.
        -14    1    5    5    0    0 -0.63675241758E+02  0.81937166552E+02  0.10038965137E+03  0.14438253972E+03  0.00000000000E+00 0.  1.
          2    1    6    6  502    0  0.24443962944E+03  0.56939608461E+03  0.39569821355E+03  0.73521405714E+03  0.00000000000E+00 0. -1.
         -1    1    6    6    0  502  0.72139836275E+02  0.28439159922E+03  0.14966301219E+03  0.32936568568E+03  0.00000000000E+00 0.  1.
<mgrwt>
<rscale>  0 0.12584757E+04</rscale>
<asrwt>0</asrwt>
<pdfrwt beam="1">  1        1 0.27276677E+00 0.12584757E+04</pdfrwt>
<pdfrwt beam="2">  1       -2 0.20666048E+00 0.12584757E+04</pdfrwt>
<totfact> 0.43397715E-01</totfact>
</mgrwt>
</event>
<event>
12    3  0.2373371E-007  0.1245872E+04  0.7818608E-02  0.9073626E-01
         -2   -1    0    0    0  501 -0.00000000000E+00  0.00000000000E+00  0.84070906667E+03  0.84070906667E+03  0.00000000000E+00 0.  1.
          1   -1    0    0  501    0  0.00000000000E+00 -0.00000000000E+00 -0.19331676570E+04  0.19331676570E+04  0.00000000000E+00 0. -1.
        -24    2    1    2    0    0 -0.11333895168E+04  0.38684831118E+03 -0.39947470758E+03  0.12657154725E+04  0.90731486490E+02 0.  0.
    5000000    2    1    2    0    0  0.11333895168E+04 -0.38684831118E+03 -0.69298388271E+03  0.15081612511E+04  0.60008356498E+03 0.  0.
        -24    2    4    4    0    0  0.11087509654E+04 -0.23370420801E+03 -0.69861359514E+03  0.13335212250E+04  0.79193068638E+02 0.  0.
         24    2    4    4    0    0  0.24638551471E+02 -0.15314410317E+03  0.56297124349E+01  0.17464002614E+03  0.80045427815E+02 0.  0.
         11    1    3    3    0    0 -0.51669280965E+03  0.12875684455E+03 -0.17558787361E+03  0.56069678608E+03  0.00000000000E+00 0. -1.
        -12    1    3    3    0    0 -0.61669670718E+03  0.25809146663E+03 -0.22388683397E+03  0.70501868643E+03  0.00000000000E+00 0.  1.
         13    1    5    5    0    0  0.19489671608E+03 -0.12983576304E+02 -0.10670169187E+03  0.22257258196E+03  0.00000000000E+00 0. -1.
        -14    1    5    5    0    0  0.91385424928E+03 -0.22072063171E+03 -0.59191190327E+03  0.11109486430E+04  0.00000000000E+00 0.  1.
          4    1    6    6  502    0  0.22577417706E+01 -0.31331795851E+02  0.35331748149E+02  0.47276963275E+02  0.00000000000E+00 0. -1.
         -3    1    6    6    0  502  0.22380809701E+02 -0.12181230732E+03 -0.29702035715E+02  0.12736306286E+03  0.00000000000E+00 0.  1.
<mgrwt>
<rscale>  0 0.12458718E+04</rscale>
<asrwt>0</asrwt>
<pdfrwt beam="1">  1        1 0.29741041E+00 0.12458718E+04</pdfrwt>
<pdfrwt beam="2">  1       -2 0.12933986E+00 0.12458718E+04</pdfrwt>
<totfact> 0.12435577E+00</totfact>
</mgrwt>
</event>
<event>
12    3  0.2269558E-007  0.5325378E+03  0.7818608E-02  0.1005619E+00
          1   -1    0    0  501    0  0.00000000000E+00  0.00000000000E+00  0.40013122815E+03  0.40013122815E+03  0.00000000000E+00 0. -1.
         -2   -1    0    0    0  501 -0.00000000000E+00 -0.00000000000E+00 -0.10785452504E+04  0.10785452504E+04  0.00000000000E+00 0.  1.
        -24    2    1    2    0    0  0.77946785051E+02 -0.46445868383E+03 -0.50744778683E+03  0.69699625160E+03  0.80640858794E+02 0.  0.
    5000000    2    1    2    0    0 -0.77946785051E+02  0.46445868383E+03 -0.17096623541E+03  0.78168022695E+03  0.59999746105E+03 0.  0.
        -24    2    4    4    0    0  0.12347679780E+03  0.28597812137E+03  0.14837387466E+03  0.35419567273E+03  0.80060991750E+02 0.  0.
         24    2    4    4    0    0 -0.20142358285E+03  0.17848056246E+03 -0.31934011007E+03  0.42748455422E+03  0.91313565749E+02 0.  0.
         11    1    5    5    0    0  0.94851012359E+02  0.19503722633E+03  0.14075868761E+03  0.25855220428E+03  0.00000000000E+00 0. -1.
        -12    1    5    5    0    0  0.28625785445E+02  0.90940895041E+02  0.76151870480E+01  0.95643468449E+02  0.00000000000E+00 0.  1.
         13    1    3    3    0    0 -0.82918778672E-01 -0.20147256492E+03 -0.24682289508E+03  0.31861064456E+03  0.00000000000E+00 0. -1.
        -14    1    3    3    0    0  0.78029703830E+02 -0.26298611890E+03 -0.26062489175E+03  0.37838560704E+03  0.00000000000E+00 0.  1.
          4    1    6    6  502    0 -0.12982685199E+03  0.71142627058E+02 -0.21754068408E+03  0.26313539122E+03  0.00000000000E+00 0. -1.
         -3    1    6    6    0  502 -0.71596730863E+02  0.10733793540E+03 -0.10179942600E+03  0.16434916300E+03  0.00000000000E+00 0.  1.
<mgrwt>
<rscale>  0 0.53253776E+03</rscale>
<asrwt>0</asrwt>
<pdfrwt beam="1">  1        1 0.61558651E-01 0.53253776E+03</pdfrwt>
<pdfrwt beam="2">  1       -2 0.16593004E+00 0.53253776E+03</pdfrwt>
<totfact> 0.12486697E+01</totfact>
</mgrwt>
</event>
<event>
12    3  0.2269558E-007  0.8359702E+03  0.7818608E-02  0.9509363E-01
          1   -1    0    0  501    0  0.00000000000E+00  0.00000000000E+00  0.52488244190E+03  0.52488244190E+03  0.00000000000E+00 0. -1.
         -2   -1    0    0    0  501 -0.00000000000E+00 -0.00000000000E+00 -0.16276246024E+04  0.16276246024E+04  0.00000000000E+00 0.  1.
        -24    2    1    2    0    0 -0.75840223612E+03  0.77409387719E+02 -0.86094951697E+03  0.11526688368E+04  0.79026649997E+02 0.  0.
    5000000    2    1    2    0    0  0.75840223612E+03 -0.77409387719E+02 -0.24179264358E+03  0.99983820759E+03  0.60003882692E+03 0.  0.
        -24    2    4    4    0    0  0.45101565750E+03 -0.28835440959E+03 -0.29317623048E+03  0.61544873079E+03  0.79129319919E+02 0.  0.
         24    2    4    4    0    0  0.30738657862E+03  0.21094502187E+03  0.51383586905E+02  0.38438947679E+03  0.78298696667E+02 0.  0.
         11    1    3    3    0    0 -0.20447056346E+03  0.16518400275E+02 -0.28611148600E+03  0.35205234169E+03  0.00000000000E+00 0. -1.
        -12    1    3    3    0    0 -0.55393167266E+03  0.60890987444E+02 -0.57483803097E+03  0.80061649507E+03  0.00000000000E+00 0.  1.
         13    1    5    5    0    0  0.23317931544E+03 -0.16982513000E+03 -0.11722768828E+03  0.31137677953E+03  0.00000000000E+00 0. -1.
        -14    1    5    5    0    0  0.21783634206E+03 -0.11852927959E+03 -0.17594854220E+03  0.30407195126E+03  0.00000000000E+00 0.  1.
          2    1    6    6  502    0  0.23067499362E+03  0.15078703449E+03  0.31060355527E+01  0.27560357383E+03  0.00000000000E+00 0. -1.
         -1    1    6    6    0  502  0.76711584997E+02  0.60157987385E+02  0.48277551352E+02  0.10878590296E+03  0.00000000000E+00 0.  1.
<mgrwt>
<rscale>  0 0.83597021E+03</rscale>
<asrwt>0</asrwt>
<pdfrwt beam="1">  1        1 0.80751143E-01 0.83597021E+03</pdfrwt>
<pdfrwt beam="2">  1       -2 0.25040379E+00 0.83597021E+03</pdfrwt>
<totfact> 0.23703176E+00</totfact>
</mgrwt>
</event>
<event>
12    3  0.2269558E-007  0.2539296E+03  0.7818608E-02  0.1110846E+00
          1   -1    0    0  501    0  0.00000000000E+00  0.00000000000E+00  0.18048952747E+03  0.18048952747E+03  0.00000000000E+00 0. -1.
         -2   -1    0    0    0  501 -0.00000000000E+00 -0.00000000000E+00 -0.89701832745E+03  0.89701832745E+03  0.00000000000E+00 0.  1.
        -24    2    1    2    0    0 -0.53634491309E+02 -0.14466246942E+03 -0.89561580534E+02  0.19616868923E+03  0.81590374484E+02 0.  0.
    5000000    2    1    2    0    0  0.53634491309E+02  0.14466246942E+03 -0.62696721944E+03  0.88133916569E+03  0.59988910810E+03 0.  0.
        -24    2    4    4    0    0 -0.11530534109E+03  0.45945145666E+02 -0.65188505565E+03  0.66854196946E+03  0.81166255666E+02 0.  0.
         24    2    4    4    0    0  0.16893983239E+03  0.98717323753E+02  0.24917836204E+02  0.21279719624E+03  0.79849678686E+02 0.  0.
         11    1    5    5    0    0 -0.11023899698E+03  0.30953687195E+02 -0.39743884748E+03  0.41360416426E+03  0.00000000000E+00 0. -1.
        -12    1    5    5    0    0 -0.50663441069E+01  0.14991458471E+02 -0.25444620817E+03  0.25493780520E+03  0.00000000000E+00 0.  1.
         13    1    3    3    0    0  0.14130416590E+02 -0.14982558048E+02  0.59490019810E+01  0.21436798811E+02  0.00000000000E+00 0. -1.
        -14    1    3    3    0    0 -0.67764907899E+02 -0.12967991137E+03 -0.95510582515E+02  0.17473189042E+03  0.00000000000E+00 0.  1.
          4    1    6    6  502    0  0.46628699370E+02  0.71428906443E+02  0.15294158932E+01  0.85315083036E+02  0.00000000000E+00 0. -1.
         -3    1    6    6    0  502  0.12231113302E+03  0.27288417310E+02  0.23388420311E+02  0.12748211320E+03  0.00000000000E+00 0.  1.
<mgrwt>
<rscale>  0 0.25392956E+03</rscale>
<asrwt>0</asrwt>
<pdfrwt beam="1">  1        1 0.27767620E-01 0.25392956E+03</pdfrwt>
<pdfrwt beam="2">  1       -2 0.13800282E+00 0.25392956E+03</pdfrwt>
<totfact> 0.58191854E+01</totfact>
</mgrwt>
</event>
<event>
12    3  0.2269558E-007  0.3275790E+03  0.7818608E-02  0.1072213E+00
         -2   -1    0    0    0  501 -0.00000000000E+00  0.00000000000E+00  0.20318024666E+03  0.20318024666E+03  0.00000000000E+00 0.  1.
          1   -1    0    0  501    0  0.00000000000E+00 -0.00000000000E+00 -0.11604849209E+04  0.11604849209E+04  0.00000000000E+00 0. -1.
        -24    2    1    2    0    0  0.17158386973E+02  0.18439056663E+03  0.19247425518E+02  0.20266876968E+03  0.80061698149E+02 0.  0.
    5000000    2    1    2    0    0 -0.17158386973E+02 -0.18439056663E+03 -0.97655209975E+03  0.11609963979E+04  0.59997028346E+03 0.  0.
        -24    2    4    4    0    0 -0.14174851708E+03 -0.26446752223E+03 -0.20806724375E+03  0.37420882345E+03  0.81881336226E+02 0.  0.
         24    2    4    4    0    0  0.12459013010E+03  0.80076955599E+02 -0.76848485600E+03  0.78678757442E+03  0.80812709527E+02 0.  0.
         13    1    5    5    0    0 -0.95547580401E+02 -0.93552052777E+02 -0.97129051899E+02  0.16527365011E+03  0.00000000000E+00 0. -1.
        -14    1    5    5    0    0 -0.46200936676E+02 -0.17091546945E+03 -0.11093819185E+03  0.20893517334E+03  0.00000000000E+00 0.  1.
         13    1    3    3    0    0  0.23560824462E+02  0.88630839312E+02  0.46605850834E+02  0.10287197606E+03  0.00000000000E+00 0. -1.
        -14    1    3    3    0    0 -0.64024374889E+01  0.95759727316E+02 -0.27358425317E+02  0.99796793622E+02  0.00000000000E+00 0.  1.
          4    1    6    6  502    0  0.11461284587E+03  0.87560864055E+02 -0.57189297907E+03  0.58980046530E+03  0.00000000000E+00 0. -1.
         -3    1    6    6    0  502  0.99772842386E+01 -0.74839084556E+01 -0.19659187693E+03  0.19698710912E+03  0.00000000000E+00 0.  1.
<mgrwt>
<rscale>  0 0.32757901E+03</rscale>
<asrwt>0</asrwt>
<pdfrwt beam="1">  1        1 0.17853614E+00 0.32757901E+03</pdfrwt>
<pdfrwt beam="2">  1       -2 0.31258500E-01 0.32757901E+03</pdfrwt>
<totfact> 0.10177365E+02</totfact>
</mgrwt>
</event>
<event>
12    3  0.2269558E-007  0.9218572E+03  0.7818608E-02  0.9398664E-01
          1   -1    0    0  501    0  0.00000000000E+00  0.00000000000E+00  0.25373445358E+04  0.25373445358E+04  0.00000000000E+00 0. -1.
         -2   -1    0    0    0  501 -0.00000000000E+00 -0.00000000000E+00 -0.71593898922E+03  0.71593898922E+03  0.00000000000E+00 0.  1.
        -24    2    1    2    0    0 -0.74464222719E+03  0.36215677349E+03 -0.31122728861E+03  0.88810247190E+03  0.78828930760E+02 0.  0.
    5000000    2    1    2    0    0  0.74464222719E+03 -0.36215677349E+03  0.21326328352E+04  0.23651810531E+04  0.60025746906E+03 0.  0.
        -24    2    4    4    0    0  0.13170604934E+03 -0.37076652760E+03  0.73109226170E+03  0.83409704479E+03  0.80048008034E+02 0.  0.
         24    2    4    4    0    0  0.61293617785E+03  0.86097541109E+01  0.14015405735E+04  0.15310840083E+04  0.64322433215E+02 0.  0.
         13    1    3    3    0    0 -0.15460919927E+03  0.63106741907E+02 -0.31692174439E+02  0.16997311344E+03  0.00000000000E+00 0. -1.
        -14    1    3    3    0    0 -0.59003302792E+03  0.29905003158E+03 -0.27953511417E+03  0.71812935846E+03  0.00000000000E+00 0.  1.
         13    1    5    5    0    0  0.24821970244E+02 -0.18925196372E+03  0.34977127007E+03  0.39846251686E+03  0.00000000000E+00 0. -1.
        -14    1    5    5    0    0  0.10688407910E+03 -0.18151456388E+03  0.38132099164E+03  0.43563452794E+03  0.00000000000E+00 0.  1.
          4    1    6    6  502    0  0.17844749392E+03  0.15977127433E+02  0.47618858868E+03  0.50877730755E+03  0.00000000000E+00 0. -1.
         -3    1    6    6    0  502  0.43448868392E+03 -0.73673733221E+01  0.92535198479E+03  0.10223067008E+04  0.00000000000E+00 0.  1.
<mgrwt>
<rscale>  0 0.92185718E+03</rscale>
<asrwt>0</asrwt>
<pdfrwt beam="1">  1        1 0.39036069E+00 0.92185718E+03</pdfrwt>
<pdfrwt beam="2">  1       -2 0.11014446E+00 0.92185718E+03</pdfrwt>
<totfact> 0.75261463E-01</totfact>
</mgrwt>
</event>
<event>
12    3  0.2269558E-007  0.9934902E+03  0.7818608E-02  0.9315714E-01
          1   -1    0    0  501    0  0.00000000000E+00  0.00000000000E+00  0.11601139141E+04  0.11601139141E+04  0.00000000000E+00 0. -1.
         -2   -1    0    0    0  501 -0.00000000000E+00 -0.00000000000E+00 -0.11646627367E+04  0.11646627367E+04  0.00000000000E+00 0.  1.
        -24    2    1    2    0    0  0.94314951355E+02 -0.90258235286E+03 -0.59380670492E+03  0.10875098575E+04  0.80753164136E+02 0.  0.
    5000000    2    1    2    0    0 -0.94314951355E+02  0.90258235286E+03  0.58925788226E+03  0.12372667933E+04  0.60004504189E+03 0.  0.
        -24    2    4    4    0    0 -0.27757916951E+03  0.82672651374E+03  0.51336433010E+03  0.10151394645E+04  0.80238849918E+02 0.  0.
         24    2    4    4    0    0  0.18326421816E+03  0.75855839126E+02  0.75893552157E+02  0.22212732885E+03  0.65121708960E+02 0.  0.
         11    1    5    5    0    0 -0.14647397141E+03  0.45334258597E+03  0.23435807105E+03  0.53094051458E+03  0.00000000000E+00 0. -1.
        -12    1    5    5    0    0 -0.13110519810E+03  0.37338392777E+03  0.27900625905E+03  0.48419894988E+03  0.00000000000E+00 0.  1.
         13    1    3    3    0    0  0.10131301325E+03 -0.74861556164E+03 -0.46897152378E+03  0.88917033009E+03  0.00000000000E+00 0. -1.
        -14    1    3    3    0    0 -0.69980618991E+01 -0.15396679122E+03 -0.12483518114E+03  0.19833952737E+03  0.00000000000E+00 0.  1.
          4    1    6    6  502    0  0.71991431540E+02  0.58253133757E+02  0.14217289589E+02  0.93692716531E+02  0.00000000000E+00 0. -1.
         -3    1    6    6    0  502  0.11127278662E+03  0.17602705369E+02  0.61676262568E+02  0.12843461232E+03  0.00000000000E+00 0.  1.
<mgrwt>
<rscale>  0 0.99349020E+03</rscale>
<asrwt>0</asrwt>
<pdfrwt beam="1">  1        1 0.17847906E+00 0.99349020E+03</pdfrwt>
<pdfrwt beam="2">  1       -2 0.17917888E+00 0.99349020E+03</pdfrwt>
<totfact> 0.18366013E+00</totfact>
</mgrwt>
</event>
<event>
12    3  0.2269558E-007  0.7954654E+03  0.7818608E-02  0.9566604E-01
         -2   -1    0    0    0  501 -0.00000000000E+00  0.00000000000E+00  0.34815077561E+03  0.34815077561E+03  0.00000000000E+00 0.  1.
          1   -1    0    0  501    0  0.00000000000E+00 -0.00000000000E+00 -0.22865817436E+04  0.22865817436E+04  0.00000000000E+00 0. -1.
        -24    2    1    2    0    0 -0.70135121392E+03 -0.10566395205E+02 -0.32604484591E+03  0.77683717698E+03  0.71871997449E+02 0.  0.
    5000000    2    1    2    0    0  0.70135121392E+03  0.10566395205E+02 -0.16123861221E+04  0.18578953422E+04  0.59998410149E+03 0.  0.
        -24    2    4    4    0    0  0.61126358516E+03 -0.21208741278E+03 -0.13228902035E+04  0.14747081305E+04  0.78111063888E+02 0.  0.
         24    2    4    4    0    0  0.90087628760E+02  0.22265380799E+03 -0.28949591852E+03  0.38318721173E+03  0.73034603629E+02 0.  0.
         11    1    5    5    0    0  0.39486078024E+03 -0.13559219247E+03 -0.93541391170E+03  0.10243531933E+04  0.00000000000E+00 0. -1.
        -12    1    5    5    0    0  0.21640280491E+03 -0.76495220308E+02 -0.38747629183E+03  0.45035493717E+03  0.00000000000E+00 0.  1.
         11    1    3    3    0    0 -0.62287438157E+03 -0.26338325402E+02 -0.30516728927E+03  0.69411330274E+03  0.00000000000E+00 0. -1.
        -12    1    3    3    0    0 -0.78476832348E+02  0.15771930196E+02 -0.20877556643E+02  0.82723874238E+02  0.00000000000E+00 0.  1.
          4    1    6    6  502    0  0.44149753533E+02  0.12359719996E+03 -0.21182738870E+03  0.24919131441E+03  0.00000000000E+00 0. -1.
         -3    1    6    6    0  502  0.45937875227E+02  0.99056608025E+02 -0.77668529827E+02  0.13399589732E+03  0.00000000000E+00 0.  1.
<mgrwt>
<rscale>  0 0.79546542E+03</rscale>
<asrwt>0</asrwt>
<pdfrwt beam="1">  1        1 0.35178180E+00 0.79546542E+03</pdfrwt>
<pdfrwt beam="2">  1       -2 0.53561659E-01 0.79546542E+03</pdfrwt>
<totfact> 0.57116052E+00</totfact>
</mgrwt>
</event>
<event>
12    3  0.2269558E-007  0.4747397E+03  0.7818608E-02  0.1020591E+00
          1   -1    0    0  501    0  0.00000000000E+00  0.00000000000E+00  0.34457580290E+03  0.34457580290E+03  0.00000000000E+00 0. -1.
         -2   -1    0    0    0  501 -0.00000000000E+00 -0.00000000000E+00 -0.93112100656E+03  0.93112100656E+03  0.00000000000E+00 0.  1.
        -24    2    1    2    0    0  0.22849972947E+03  0.33168085430E+03 -0.21610348255E+03  0.46377927144E+03  0.78525040393E+02 0.  0.
    5000000    2    1    2    0    0 -0.22849972947E+03 -0.33168085430E+03 -0.37044172111E+03  0.81191753802E+03  0.59979888657E+03 0.  0.
        -24    2    4    4    0    0 -0.79691320331E+02 -0.36197374837E+03  0.25398434596E+02  0.38043607852E+03  0.81919645469E+02 0.  0.
         24    2    4    4    0    0 -0.14880840914E+03  0.30292894071E+02 -0.39584015571E+03  0.43148145950E+03  0.80157463533E+02 0.  0.
         13    1    3    3    0    0  0.15895615791E+03  0.16193149389E+03 -0.11943298864E+03  0.25642368773E+03  0.00000000000E+00 0. -1.
        -14    1    3    3    0    0  0.69543571562E+02  0.16974936041E+03 -0.96670493909E+02  0.20735558371E+03  0.00000000000E+00 0.  1.
         13    1    5    5    0    0 -0.22296008598E+02 -0.15824920495E+03 -0.27765344695E+02  0.16220615658E+03  0.00000000000E+00 0. -1.
        -14    1    5    5    0    0 -0.57395311732E+02 -0.20372454342E+03  0.53163779291E+02  0.21822992194E+03  0.00000000000E+00 0.  1.
          2    1    6    6  502    0 -0.80081907388E+02 -0.19944160568E+02 -0.14836529076E+03  0.16977379343E+03  0.00000000000E+00 0. -1.
         -1    1    6    6    0  502 -0.68726501749E+02  0.50237054638E+02 -0.24747486494E+03  0.26170766607E+03  0.00000000000E+00 0.  1.
<mgrwt>
<rscale>  0 0.47473967E+03</rscale>
<asrwt>0</asrwt>
<pdfrwt beam="1">  1        1 0.53011663E-01 0.47473967E+03</pdfrwt>
<pdfrwt beam="2">  1       -2 0.14324938E+00 0.47473967E+03</pdfrwt>
<totfact> 0.22572084E+01</totfact>
</mgrwt>
</event>
<event>
12    3  0.2269558E-007  0.7137423E+03  0.7818608E-02  0.9694015E-01
          1   -1    0    0  501    0  0.00000000000E+00  0.00000000000E+00  0.40727877632E+03  0.40727877632E+03  0.00000000000E+00 0. -1.
         -2   -1    0    0    0  501 -0.00000000000E+00 -0.00000000000E+00 -0.14885847698E+04  0.14885847698E+04  0.00000000000E+00 0.  1.
        -24    2    1    2    0    0 -0.31873683221E+03  0.56816281661E+03 -0.59441749227E+03  0.88535253024E+03  0.78197143808E+02 0.  0.
    5000000    2    1    2    0    0  0.31873683221E+03 -0.56816281661E+03 -0.48688850126E+03  0.10105110159E+04  0.59972489215E+03 0.  0.
        -24    2    4    4    0    0 -0.24471661025E+02  0.25643903310E+02 -0.27219938626E+03  0.28666570855E+03  0.82633229458E+02 0.  0.
         24    2    4    4    0    0  0.34320849324E+03 -0.59380671992E+03 -0.21468911500E+03  0.72384530737E+03  0.86383577457E+02 0.  0.
         11    1    3    3    0    0 -0.17603941337E+03  0.28764137093E+03 -0.25751983803E+03  0.42431580257E+03  0.00000000000E+00 0. -1.
        -12    1    3    3    0    0 -0.14269741885E+03  0.28052144568E+03 -0.33689765424E+03  0.46103672767E+03  0.00000000000E+00 0.  1.
         11    1    5    5    0    0  0.22639707310E+02  0.31589483606E+02 -0.16334736584E+03  0.16790715812E+03  0.00000000000E+00 0. -1.
        -12    1    5    5    0    0 -0.47111368336E+02 -0.59455802964E+01 -0.10885202042E+03  0.11875855043E+03  0.00000000000E+00 0.  1.
          2    1    6    6  502    0  0.13540929852E+03 -0.17154935759E+03 -0.42045738544E+02  0.22255944003E+03  0.00000000000E+00 0. -1.
         -1    1    6    6    0  502  0.20779919471E+03 -0.42225736232E+03 -0.17264337645E+03  0.50128586734E+03  0.00000000000E+00 0.  1.
<mgrwt>
<rscale>  0 0.71374230E+03</rscale>
<asrwt>0</asrwt>
<pdfrwt beam="1">  1        1 0.62658272E-01 0.71374230E+03</pdfrwt>
<pdfrwt beam="2">  1       -2 0.22901305E+00 0.71374230E+03</pdfrwt>
<totfact> 0.45926734E+00</totfact>
</mgrwt>
</event>
<event>
12    3  0.2269558E-007  0.5433771E+03  0.7818608E-02  0.1003039E+00
         -2   -1    0    0    0  501 -0.00000000000E+00  0.00000000000E+00  0.23724871686E+03  0.23724871686E+03  0.00000000000E+00 0.  1.
          1   -1    0    0  501    0  0.00000000000E+00 -0.00000000000E+00 -0.21364695677E+04  0.21364695677E+04  0.00000000000E+00 0. -1.
        -24    2    1    2    0    0 -0.34222976851E+03  0.17342366227E+03 -0.15146799919E+04  0.15643663556E+04  0.76089654508E+02 0.  0.
    5000000    2    1    2    0    0  0.34222976851E+03 -0.17342366227E+03 -0.38454085893E+03  0.80935192897E+03  0.59998490953E+03 0.  0.
        -24    2    4    4    0    0 -0.13813444214E+03  0.56562252399E+02 -0.56248281935E+02  0.17870233809E+03  0.80562050094E+02 0.  0.
         24    2    4    4    0    0  0.48036421065E+03 -0.22998591467E+03 -0.32829257700E+03  0.63064959089E+03  0.79369985233E+02 0.  0.
         11    1    3    3    0    0 -0.29736543348E+03  0.11828255753E+03 -0.12456677643E+04  0.12861201901E+04  0.00000000000E+00 0. -1.
        -12    1    3    3    0    0 -0.44864335025E+02  0.55141104742E+02 -0.26901222764E+03  0.27824616549E+03  0.00000000000E+00 0.  1.
         13    1    5    5    0    0 -0.47959024051E+02  0.46446782083E+02 -0.57261081636E+02  0.87955687842E+02  0.00000000000E+00 0. -1.
        -14    1    5    5    0    0 -0.90175418091E+02  0.10115470316E+02  0.10127997009E+01  0.90746650246E+02  0.00000000000E+00 0.  1.
          4    1    6    6  502    0  0.30956608740E+03 -0.10649858295E+03 -0.18894175100E+03  0.37798425352E+03  0.00000000000E+00 0. -1.
         -3    1    6    6    0  502  0.17079812325E+03 -0.12348733172E+03 -0.13935082600E+03  0.25266533737E+03  0.00000000000E+00 0.  1.
<mgrwt>
<rscale>  0 0.54337710E+03</rscale>
<asrwt>0</asrwt>
<pdfrwt beam="1">  1        1 0.32868763E+00 0.54337710E+03</pdfrwt>
<pdfrwt beam="2">  1       -2 0.36499802E-01 0.54337710E+03</pdfrwt>
<totfact> 0.16101120E+01</totfact>
</mgrwt>
</event>
<event>
12    3  0.2269558E-007  0.8155848E+03  0.7818608E-02  0.9537729E-01
          1   -1    0    0  501    0  0.00000000000E+00  0.00000000000E+00  0.65469111273E+03  0.65469111273E+03  0.00000000000E+00 0. -1.
         -2   -1    0    0    0  501 -0.00000000000E+00 -0.00000000000E+00 -0.14576130225E+04  0.14576130225E+04  0.00000000000E+00 0.  1.
        -24    2    1    2    0    0 -0.68361298364E+03  0.26133334755E+03 -0.89799855373E+03  0.11613731252E+04  0.82245385190E+02 0.  0.
    5000000    2    1    2    0    0  0.68361298364E+03 -0.26133334755E+03  0.95076643918E+02  0.95093101011E+03  0.59967356773E+03 0.  0.
        -24    2    4    4    0    0  0.17202811842E+03 -0.32883016103E+03  0.17293189032E+03  0.42320593655E+03  0.10712085563E+03 0.  0.
         24    2    4    4    0    0  0.51158486521E+03  0.67496813471E+02 -0.77855246399E+02  0.52772507356E+03  0.78469227943E+02 0.  0.
         11    1    3    3    0    0 -0.49825674904E+03  0.19362892259E+03 -0.59585244508E+03  0.80049489938E+03  0.00000000000E+00 0. -1.
        -12    1    3    3    0    0 -0.18535623460E+03  0.67704424964E+02 -0.30214610865E+03  0.36087822577E+03  0.00000000000E+00 0.  1.
         13    1    5    5    0    0  0.17561703530E+03 -0.29108720913E+03  0.12527509843E+03  0.36230782037E+03  0.00000000000E+00 0. -1.
        -14    1    5    5    0    0 -0.35889168782E+01 -0.37742951891E+02  0.47656791883E+02  0.60898116181E+02  0.00000000000E+00 0.  1.
          4    1    6    6  502    0  0.15265517045E+03 -0.14135745723E+02 -0.11922366396E+02  0.15377113901E+03  0.00000000000E+00 0. -1.
         -3    1    6    6    0  502  0.35892969476E+03  0.81632559193E+02 -0.65932880003E+02  0.37395393455E+03  0.00000000000E+00 0.  1.
<mgrwt>
<rscale>  0 0.81558477E+03</rscale>
<asrwt>0</asrwt>
<pdfrwt beam="1">  1        1 0.10072171E+00 0.81558477E+03</pdfrwt>
<pdfrwt beam="2">  1       -2 0.22424816E+00 0.81558477E+03</pdfrwt>
<totfact> 0.25057033E+00</totfact>
</mgrwt>
</event>
<event>
12    3  0.2269558E-007  0.7756057E+03  0.7818608E-02  0.9596014E-01
         -2   -1    0    0    0  501 -0.00000000000E+00  0.00000000000E+00  0.82533876428E+03  0.82533876428E+03  0.00000000000E+00 0.  1.
          1   -1    0    0  501    0  0.00000000000E+00 -0.00000000000E+00 -0.89285163997E+03  0.89285163997E+03  0.00000000000E+00 0. -1.
        -24    2    1    2    0    0 -0.53134984652E+02  0.73099262779E+03 -0.19456018596E+03  0.76243595087E+03  0.79255061221E+02 0.  0.
    5000000    2    1    2    0    0  0.53134984652E+02 -0.73099262779E+03  0.12704731027E+03  0.95575445339E+03  0.60012665967E+03 0.  0.
        -24    2    4    4    0    0 -0.12800764060E+03 -0.16691719688E+03 -0.17784362727E+03  0.28500568425E+03  0.73161312405E+02 0.  0.
         24    2    4    4    0    0  0.18114262525E+03 -0.56407543092E+03  0.30489093753E+03  0.67074876914E+03  0.77147164927E+02 0.  0.
         11    1    5    5    0    0 -0.10643699019E+03 -0.92960426925E+02 -0.87234360734E+02  0.16607319936E+03  0.00000000000E+00 0. -1.
        -12    1    5    5    0    0 -0.21570650415E+02 -0.73956769951E+02 -0.90609266532E+02  0.11893248489E+03  0.00000000000E+00 0.  1.
         11    1    3    3    0    0 -0.18797775604E+02  0.62071812246E+03 -0.17596501274E+03  0.64545180271E+03  0.00000000000E+00 0. -1.
        -12    1    3    3    0    0 -0.34337209049E+02  0.11027450534E+03 -0.18595173223E+02  0.11698414815E+03  0.00000000000E+00 0.  1.
          2    1    6    6  502    0 -0.50252028069E+01 -0.37611385013E+02  0.29840264871E+02  0.48273288198E+02  0.00000000000E+00 0. -1.
         -1    1    6    6    0  502  0.18616782806E+03 -0.52646404591E+03  0.27505067266E+03  0.62247548094E+03  0.00000000000E+00 0.  1.
<mgrwt>
<rscale>  0 0.77560566E+03</rscale>
<asrwt>0</asrwt>
<pdfrwt beam="1">  1        1 0.13736179E+00 0.77560566E+03</pdfrwt>
<pdfrwt beam="2">  1       -2 0.12697519E+00 0.77560566E+03</pdfrwt>
<totfact> 0.76008384E+00</totfact>
</mgrwt>
</event>
<event>
12    3  0.2269558E-007  0.3806196E+03  0.7818608E-02  0.1050705E+00
         -4   -1    0    0    0  501 -0.00000000000E+00  0.00000000000E+00  0.76138043487E+03  0.76138043487E+03  0.00000000000E+00 0.  1.
          3   -1    0    0  501    0  0.00000000000E+00 -0.00000000000E+00 -0.42194848399E+03  0.42194848399E+03  0.00000000000E+00 0. -1.
        -24    2    1    2    0    0 -0.68965911544E+02  0.32338218332E+03  0.36180955124E+03  0.49776953780E+03  0.86810298614E+02 0.  0.
    5000000    2    1    2    0    0  0.68965911544E+02 -0.32338218332E+03 -0.22377600364E+02  0.68555938106E+03  0.60013213089E+03 0.  0.
        -24    2    4    4    0    0  0.71412403547E+02 -0.86651900007E+00  0.24082000147E+03  0.26342042591E+03  0.79344599304E+02 0.  0.
         24    2    4    4    0    0 -0.24464920034E+01 -0.32251566432E+03 -0.26319760184E+03  0.42213895516E+03  0.70042706930E+02 0.  0.
         13    1    3    3    0    0 -0.24930288305E+02  0.25194563903E+03  0.30520369881E+03  0.39654435070E+03  0.00000000000E+00 0. -1.
        -14    1    3    3    0    0 -0.44035623239E+02  0.71436544291E+02  0.56605852428E+02  0.10122518710E+03  0.00000000000E+00 0.  1.
         13    1    5    5    0    0  0.52130666357E+02  0.33125531827E+02  0.10236155795E+03  0.11955248128E+03  0.00000000000E+00 0. -1.
        -14    1    5    5    0    0  0.19281737190E+02 -0.33992050827E+02  0.13845844352E+03  0.14386794462E+03  0.00000000000E+00 0.  1.
          4    1    6    6  502    0 -0.12279589207E+02 -0.20820566107E+03 -0.12755288314E+03  0.24447929075E+03  0.00000000000E+00 0. -1.
         -3    1    6    6    0  502  0.98330972032E+01 -0.11431000325E+03 -0.13564471870E+03  0.17765966440E+03  0.00000000000E+00 0.  1.
<mgrwt>
<rscale>  0 0.38061956E+03</rscale>
<asrwt>0</asrwt>
<pdfrwt beam="1">  1        3 0.64915151E-01 0.38061956E+03</pdfrwt>
<pdfrwt beam="2">  1       -4 0.11713545E+00 0.38061956E+03</pdfrwt>
<totfact> 0.29067180E+00</totfact>
</mgrwt>
</event>
<event>
12    3  0.2269558E-007  0.1331360E+04  0.7818608E-02  0.9005059E-01
         -2   -1    0    0    0  501 -0.00000000000E+00  0.00000000000E+00  0.14052856777E+04  0.14052856777E+04  0.00000000000E+00 0.  1.
          1   -1    0    0  501    0  0.00000000000E+00 -0.00000000000E+00 -0.15670582717E+04  0.15670582717E+04  0.00000000000E+00 0. -1.
        -24    2    1    2    0    0  0.58868231560E+03 -0.11514349208E+04  0.51482958556E+03  0.13943597410E+04  0.82706346348E+02 0.  0.
    5000000    2    1    2    0    0 -0.58868231560E+03  0.11514349208E+04 -0.67660217964E+03  0.15779842084E+04  0.59991199938E+03 0.  0.
        -24    2    4    4    0    0 -0.51870075180E+03  0.53544805240E+03 -0.15892003529E+03  0.76642345818E+03  0.79964072526E+02 0.  0.
         24    2    4    4    0    0 -0.69981563796E+02  0.61598686837E+03 -0.51768214435E+03  0.81156075022E+03  0.79365026548E+02 0.  0.
         11    1    3    3    0    0  0.21269557145E+03 -0.44510017031E+03  0.15575048870E+03  0.51731207453E+03  0.00000000000E+00 0. -1.
        -12    1    3    3    0    0  0.37598674415E+03 -0.70633475046E+03  0.35907909686E+03  0.87704766649E+03  0.00000000000E+00 0.  1.
         13    1    5    5    0    0 -0.23662812380E+03  0.28458317968E+03 -0.49559095633E+02  0.37341205001E+03  0.00000000000E+00 0. -1.
        -14    1    5    5    0    0 -0.28207262800E+03  0.25086487272E+03 -0.10936093966E+03  0.39301140817E+03  0.00000000000E+00 0.  1.
          4    1    6    6  502    0 -0.59594722714E+02  0.59727711092E+03 -0.48140764946E+03  0.76944447698E+03  0.00000000000E+00 0. -1.
         -3    1    6    6    0  502 -0.10386841082E+02  0.18709757453E+02 -0.36274494891E+02  0.42116273235E+02  0.00000000000E+00 0.  1.
<mgrwt>
<rscale>  0 0.13313605E+04</rscale>
<asrwt>0</asrwt>
<pdfrwt beam="1">  1        1 0.24108589E+00 0.13313605E+04</pdfrwt>
<pdfrwt beam="2">  1       -2 0.21619780E+00 0.13313605E+04</pdfrwt>
<totfact> 0.51688149E-01</totfact>
</mgrwt>
</event>
<event>
12    3  0.2269558E-007  0.8041458E+03  0.7818608E-02  0.9554036E-01
          1   -1    0    0  501    0  0.00000000000E+00  0.00000000000E+00  0.69208955765E+03  0.69208955765E+03  0.00000000000E+00 0. -1.
         -2   -1    0    0    0  501 -0.00000000000E+00 -0.00000000000E+00 -0.10347630773E+04  0.10347630773E+04  0.00000000000E+00 0.  1.
        -24    2    1    2    0    0 -0.20144951848E+03 -0.70832949156E+03 -0.19144645728E+03  0.76500485407E+03  0.79171356168E+02 0.  0.
    5000000    2    1    2    0    0  0.20144951848E+03  0.70832949156E+03 -0.15122706240E+03  0.96184778091E+03  0.59997412621E+03 0.  0.
        -24    2    4    4    0    0  0.31225944809E+03  0.29683406695E+03  0.11497285869E+03  0.45304315305E+03  0.80080672235E+02 0.  0.
         24    2    4    4    0    0 -0.11080992961E+03  0.41149542461E+03 -0.26619992110E+03  0.50880462785E+03  0.80077627099E+02 0.  0.
         11    1    3    3    0    0 -0.17293951830E+03 -0.47552068148E+03 -0.12433329726E+03  0.52104391783E+03  0.00000000000E+00 0. -1.
        -12    1    3    3    0    0 -0.28510000180E+02 -0.23280881009E+03 -0.67113160017E+02  0.24396093624E+03  0.00000000000E+00 0.  1.
         11    1    5    5    0    0  0.21873502393E+03  0.15663202915E+03  0.82615173888E+02  0.28143182160E+03  0.00000000000E+00 0. -1.
        -12    1    5    5    0    0  0.93524424161E+02  0.14020203780E+03  0.32357684804E+02  0.17161133146E+03  0.00000000000E+00 0.  1.
          4    1    6    6  502    0 -0.11484531872E+03  0.41015987606E+03 -0.26895115223E+03  0.50374129615E+03  0.00000000000E+00 0. -1.
         -3    1    6    6    0  502  0.40353891074E+01  0.13355485485E+01  0.27512311373E+01  0.50633317039E+01  0.00000000000E+00 0.  1.
<mgrwt>
<rscale>  0 0.80414578E+03</rscale>
<asrwt>0</asrwt>
<pdfrwt beam="1">  1        1 0.10647532E+00 0.80414578E+03</pdfrwt>
<pdfrwt beam="2">  1       -2 0.15919432E+00 0.80414578E+03</pdfrwt>
<totfact> 0.63001464E+00</totfact>
</mgrwt>
</event>
<event>
12    3  0.2269558E-007  0.8668558E+03  0.7818608E-02  0.9467989E-01
          1   -1    0    0  501    0  0.00000000000E+00  0.00000000000E+00  0.61401959752E+03  0.61401959752E+03  0.00000000000E+00 0. -1.
         -2   -1    0    0    0  501 -0.00000000000E+00 -0.00000000000E+00 -0.18919541992E+04  0.18919541992E+04  0.00000000000E+00 0.  1.
        -24    2    1    2    0    0 -0.29303703428E+02 -0.78967958361E+03 -0.12886310407E+04  0.15137553432E+04  0.80204291048E+02 0.  0.
    5000000    2    1    2    0    0  0.29303703428E+02  0.78967958361E+03  0.10696439017E+02  0.99221845350E+03  0.59994207541E+03 0.  0.
        -24    2    4    4    0    0  0.15809705050E+03  0.78842515855E+03 -0.87080439393E+02  0.81272821752E+03  0.79594249878E+02 0.  0.
         24    2    4    4    0    0 -0.12879334708E+03  0.12544250608E+01  0.97776878411E+02  0.17949023598E+03  0.77891764820E+02 0.  0.
         11    1    5    5    0    0  0.34062223539E+02  0.37163783658E+03 -0.39317617888E+02  0.37526096484E+03  0.00000000000E+00 0. -1.
        -12    1    5    5    0    0  0.12403482696E+03  0.41678732197E+03 -0.47762821505E+02  0.43746725268E+03  0.00000000000E+00 0.  1.
         13    1    3    3    0    0 -0.49153287384E+02 -0.53009753308E+03 -0.81983921567E+03  0.97752533460E+03  0.00000000000E+00 0. -1.
        -14    1    3    3    0    0  0.19849583957E+02 -0.25958205053E+03 -0.46879182502E+03  0.53623000862E+03  0.00000000000E+00 0.  1.
          2    1    6    6  502    0 -0.54166318766E+01 -0.75160390529E+01  0.43398621700E+02  0.44376470222E+02  0.00000000000E+00 0. -1.
         -1    1    6    6    0  502 -0.12337671520E+03  0.87704641137E+01  0.54378256711E+02  0.13511376576E+03  0.00000000000E+00 0.  1.
<mgrwt>
<rscale>  0 0.86685577E+03</rscale>
<asrwt>0</asrwt>
<pdfrwt beam="1">  1        1 0.94464557E-01 0.86685577E+03</pdfrwt>
<pdfrwt beam="2">  1       -2 0.29106987E+00 0.86685577E+03</pdfrwt>
<totfact> 0.10734365E+00</totfact>
</mgrwt>
</event>
<event>
12    3  0.2269558E-007  0.5710198E+03  0.7818608E-02  0.9967425E-01
          1   -1    0    0  501    0  0.00000000000E+00  0.00000000000E+00  0.14813761130E+04  0.14813761130E+04  0.00000000000E+00 0. -1.
         -2   -1    0    0    0  501 -0.00000000000E+00 -0.00000000000E+00 -0.24676561645E+03  0.24676561645E+03  0.00000000000E+00 0.  1.
        -24    2    1    2    0    0  0.43052635079E+03 -0.96214678702E+02  0.60317302634E+03  0.75151472814E+03  0.79664821512E+02 0.  0.
    5000000    2    1    2    0    0 -0.43052635079E+03  0.96214678702E+02  0.63143747021E+03  0.97662700131E+03  0.60039721667E+03 0.  0.
        -24    2    4    4    0    0  0.11001965346E+03 -0.30558903162E+01  0.14801589918E+02  0.14682293162E+03  0.96042821550E+02 0.  0.
         24    2    4    4    0    0 -0.54054600425E+03  0.99270569018E+02  0.61663588029E+03  0.82980406969E+03  0.79311768580E+02 0.  0.
         11    1    5    5    0    0  0.49183345073E+02 -0.47124635096E+02 -0.73329252881E+01  0.68509156021E+02  0.00000000000E+00 0. -1.
        -12    1    5    5    0    0  0.60836308387E+02  0.44068744779E+02  0.22134515206E+02  0.78313775595E+02  0.00000000000E+00 0.  1.
         13    1    3    3    0    0  0.20529589402E+03 -0.21501135171E+02  0.22766720109E+03  0.30731263782E+03  0.00000000000E+00 0. -1.
        -14    1    3    3    0    0  0.22523045677E+03 -0.74713543532E+02  0.37550582526E+03  0.44420209032E+03  0.00000000000E+00 0.  1.
          2    1    6    6  502    0 -0.30270475227E+03  0.16139990323E+02  0.32581469966E+03  0.44502346550E+03  0.00000000000E+00 0. -1.
         -1    1    6    6    0  502 -0.23784125198E+03  0.83130578695E+02  0.29082118063E+03  0.38478060419E+03  0.00000000000E+00 0.  1.
<mgrwt>
<rscale>  0 0.57101977E+03</rscale>
<asrwt>0</asrwt>
<pdfrwt beam="1">  1        1 0.22790401E+00 0.57101977E+03</pdfrwt>
<pdfrwt beam="2">  1       -2 0.37963942E-01 0.57101977E+03</pdfrwt>
<totfact> 0.40660860E+01</totfact>
</mgrwt>
</event>
<event>
12    3  0.2269558E-007  0.1909415E+04  0.7818608E-02  0.8650184E-01
         -2   -1    0    0    0  501 -0.00000000000E+00  0.00000000000E+00  0.29029328727E+04  0.29029328727E+04  0.00000000000E+00 0.  1.
          1   -1    0    0  501    0  0.00000000000E+00 -0.00000000000E+00 -0.14714490669E+04  0.14714490669E+04  0.00000000000E+00 0. -1.
        -24    2    1    2    0    0 -0.60461343867E+03  0.17876008129E+04  0.14706821393E+04  0.23937987292E+04  0.79324172648E+02 0.  0.
    5000000    2    1    2    0    0  0.60461343867E+03 -0.17876008129E+04 -0.39198333489E+02  0.19805832105E+04  0.60008271742E+03 0.  0.
        -24    2    4    4    0    0  0.64804886729E+03 -0.16147088021E+04 -0.16257770979E+03  0.17493361325E+04  0.80582521423E+02 0.  0.
         24    2    4    4    0    0 -0.43435428617E+02 -0.17289201080E+03  0.12337937630E+03  0.23124707798E+03  0.80464008836E+02 0.  0.
         11    1    3    3    0    0 -0.12501447193E+03  0.33893625024E+03  0.31979619036E+03  0.48246865524E+03  0.00000000000E+00 0. -1.
        -12    1    3    3    0    0 -0.47959896674E+03  0.14486645627E+04  0.11508859489E+04  0.19113300739E+04  0.00000000000E+00 0.  1.
         13    1    5    5    0    0  0.33383923453E+03 -0.89910027451E+03 -0.58154351206E+02  0.96083914715E+03  0.00000000000E+00 0. -1.
        -14    1    5    5    0    0  0.31420963276E+03 -0.71560852762E+03 -0.10442335858E+03  0.78849698537E+03  0.00000000000E+00 0.  1.
          4    1    6    6  502    0 -0.94269823144E+01 -0.14921989696E+03  0.74130137517E+02  0.16688535865E+03  0.00000000000E+00 0. -1.
         -3    1    6    6    0  502 -0.34008446303E+02 -0.23672113845E+02  0.49249238785E+02  0.64361719327E+02  0.00000000000E+00 0.  1.
<mgrwt>
<rscale>  0 0.19094146E+04</rscale>
<asrwt>0</asrwt>
<pdfrwt beam="1">  1        1 0.22637678E+00 0.19094146E+04</pdfrwt>
<pdfrwt beam="2">  1       -2 0.44660506E+00 0.19094146E+04</pdfrwt>
<totfact> 0.19722305E-02</totfact>
</mgrwt>
</event>
<event>
12    3  0.2269558E-007  0.4550024E+03  0.7818608E-02  0.1026241E+00
          1   -1    0    0  501    0  0.00000000000E+00  0.00000000000E+00  0.76558664699E+03  0.76558664699E+03  0.00000000000E+00 0. -1.
         -2   -1    0    0    0  501 -0.00000000000E+00 -0.00000000000E+00 -0.34875495926E+03  0.34875495926E+03  0.00000000000E+00 0.  1.
        -24    2    1    2    0    0  0.18186611430E+03  0.28071374002E+03  0.10167073935E+03  0.35870043234E+03  0.80334136923E+02 0.  0.
    5000000    2    1    2    0    0 -0.18186611430E+03 -0.28071374002E+03  0.31516094838E+03  0.75564117391E+03  0.59982636901E+03 0.  0.
        -24    2    4    4    0    0 -0.32839460482E+03 -0.21945053295E+03  0.39124271106E+03  0.56172264850E+03  0.80373639923E+02 0.  0.
         24    2    4    4    0    0  0.14652849052E+03 -0.61263207072E+02 -0.76081762675E+02  0.19391852541E+03  0.81192246013E+02 0.  0.
         13    1    5    5    0    0 -0.88975381847E+02 -0.10261936987E+03  0.14952347366E+03  0.20200154164E+03  0.00000000000E+00 0. -1.
        -14    1    5    5    0    0 -0.23941922297E+03 -0.11683116308E+03  0.24171923740E+03  0.35972110686E+03  0.00000000000E+00 0.  1.
         13    1    3    3    0    0  0.13280503141E+03  0.13250489401E+03  0.62549866596E+02  0.19775542753E+03  0.00000000000E+00 0. -1.
        -14    1    3    3    0    0  0.49061082890E+02  0.14820884601E+03  0.39120872750E+02  0.16094500482E+03  0.00000000000E+00 0.  1.
          2    1    6    6  502    0  0.37495502592E+02 -0.36335730170E+02  0.95200132193E+01  0.53073803833E+02  0.00000000000E+00 0. -1.
         -1    1    6    6    0  502  0.10903298792E+03 -0.24927476901E+02 -0.85601775894E+02  0.14084472158E+03  0.00000000000E+00 0.  1.
<mgrwt>
<rscale>  0 0.45500243E+03</rscale>
<asrwt>0</asrwt>
<pdfrwt beam="1">  1        1 0.11778256E+00 0.45500243E+03</pdfrwt>
<pdfrwt beam="2">  1       -2 0.53654609E-01 0.45500243E+03</pdfrwt>
<totfact> 0.71146932E+01</totfact>
</mgrwt>
</event>
<event>
12    3  0.2269558E-007  0.8902617E+03  0.7818608E-02  0.9437837E-01
          1   -1    0    0  501    0  0.00000000000E+00  0.00000000000E+00  0.11177714208E+04  0.11177714208E+04  0.00000000000E+00 0. -1.
         -2   -1    0    0    0  501 -0.00000000000E+00 -0.00000000000E+00 -0.78502220473E+03  0.78502220473E+03  0.00000000000E+00 0.  1.
        -24    2    1    2    0    0 -0.58926417272E+03  0.59602006752E+03  0.17568166463E+03  0.86012845395E+03  0.80527783207E+02 0.  0.
    5000000    2    1    2    0    0  0.58926417272E+03 -0.59602006752E+03  0.15706755139E+03  0.10426651715E+04  0.60000688170E+03 0.  0.
        -24    2    4    4    0    0  0.55334992154E+03 -0.64692631783E+03  0.11648187474E+02  0.85597028049E+03  0.88541766708E+02 0.  0.
         24    2    4    4    0    0  0.35914251188E+02  0.50906250308E+02  0.14541936392E+03  0.18669489104E+03  0.99130778162E+02 0.  0.
         11    1    5    5    0    0  0.46775973862E+03 -0.59060841930E+03  0.12593455413E+02  0.75350917256E+03  0.00000000000E+00 0. -1.
        -12    1    5    5    0    0  0.85590182917E+02 -0.56317898535E+02 -0.94526793900E+00  0.10246110793E+03  0.00000000000E+00 0.  1.
         11    1    3    3    0    0 -0.31175822361E+03  0.29500634438E+03  0.51457001145E+02  0.43228434645E+03  0.00000000000E+00 0. -1.
        -12    1    3    3    0    0 -0.27750594911E+03  0.30101372314E+03  0.12422466348E+03  0.42784410751E+03  0.00000000000E+00 0.  1.
          4    1    6    6  502    0  0.32070923923E+02  0.64435036178E+02  0.15416107385E+03  0.17013540119E+03  0.00000000000E+00 0. -1.
         -3    1    6    6    0  502  0.38433272648E+01 -0.13528785870E+02 -0.87417099290E+01  0.16559489849E+02  0.00000000000E+00 0.  1.
<mgrwt>
<rscale>  0 0.89026175E+03</rscale>
<asrwt>0</asrwt>
<pdfrwt beam="1">  1        1 0.17196483E+00 0.89026175E+03</pdfrwt>
<pdfrwt beam="2">  1       -2 0.12077265E+00 0.89026175E+03</pdfrwt>
<totfact> 0.56845264E+00</totfact>
</mgrwt>
</event>
<event>
12    3  0.4047812E-007  0.1114031E+04  0.7818608E-02  0.9191623E-01
          1   -1    0    0  501    0  0.00000000000E+00  0.00000000000E+00  0.18504427292E+04  0.18504427292E+04  0.00000000000E+00 0. -1.
         -2   -1    0    0    0  501 -0.00000000000E+00 -0.00000000000E+00 -0.76594320692E+03  0.76594320692E+03  0.00000000000E+00 0.  1.
        -24    2    1    2    0    0 -0.64829790874E+03  0.83083859586E+03  0.90329198515E+03  0.13902913239E+04  0.79941253143E+02 0.  0.
    5000000    2    1    2    0    0  0.64829790874E+03 -0.83083859586E+03  0.18120753714E+03  0.12260946123E+04  0.59990738939E+03 0.  0.
        -24    2    4    4    0    0  0.26573102792E+03 -0.25129681524E+02  0.17778317280E+03  0.33030571820E+03  0.79060298825E+02 0.  0.
         24    2    4    4    0    0  0.38256688081E+03 -0.80570891433E+03  0.34243643396E+01  0.89578889406E+03  0.83076732680E+02 0.  0.
         11    1    3    3    0    0 -0.42365516485E+03  0.47943694320E+03  0.54693953190E+03  0.84171630182E+03  0.00000000000E+00 0. -1.
        -12    1    3    3    0    0 -0.22464274389E+03  0.35140165266E+03  0.35635245325E+03  0.54857502205E+03  0.00000000000E+00 0.  1.
         13    1    5    5    0    0  0.15008412453E+03  0.21708219735E+02  0.77932838905E+02  0.17049932147E+03  0.00000000000E+00 0. -1.
        -14    1    5    5    0    0  0.11564690339E+03 -0.46837901259E+02  0.99850333895E+02  0.15980639673E+03  0.00000000000E+00 0.  1.
          2    1    6    6  502    0  0.15873554007E+03 -0.25568493819E+03 -0.18911815803E+02  0.30154504817E+03  0.00000000000E+00 0. -1.
         -1    1    6    6    0  502  0.22383134074E+03 -0.55002397614E+03  0.22336180143E+02  0.59424384588E+03  0.00000000000E+00 0.  1.
<mgrwt>
<rscale>  0 0.11140314E+04</rscale>
<asrwt>0</asrwt>
<pdfrwt beam="1">  1        1 0.28468350E+00 0.11140314E+04</pdfrwt>
<pdfrwt beam="2">  1       -2 0.11783742E+00 0.11140314E+04</pdfrwt>
<totfact> 0.18150073E+00</totfact>
</mgrwt>
</event>
<event>
12    3  0.2269558E-007  0.6533932E+03  0.7818608E-02  0.9800433E-01
         -2   -1    0    0    0  501 -0.00000000000E+00  0.00000000000E+00  0.32471478959E+03  0.32471478959E+03  0.00000000000E+00 0.  1.
          1   -1    0    0  501    0  0.00000000000E+00 -0.00000000000E+00 -0.28337245716E+04  0.28337245716E+04  0.00000000000E+00 0. -1.
        -24    2    1    2    0    0 -0.53756540492E+03  0.32846146815E+03 -0.16238328379E+03  0.65569917988E+03  0.81912044429E+02 0.  0.
    5000000    2    1    2    0    0  0.53756540492E+03 -0.32846146815E+03 -0.23466264982E+04  0.25027401813E+04  0.60015747298E+03 0.  0.
        -24    2    4    4    0    0  0.35210688676E+03 -0.94016944524E+02 -0.20042136106E+04  0.20386323564E+04  0.79569102138E+02 0.  0.
         24    2    4    4    0    0  0.18545851816E+03 -0.23444452362E+03 -0.34241288763E+03  0.46410782494E+03  0.93757084743E+02 0.  0.
         11    1    3    3    0    0 -0.12455626607E+03  0.58505877480E+02 -0.46497495395E+01  0.13769103561E+03  0.00000000000E+00 0. -1.
        -12    1    3    3    0    0 -0.41300913885E+03  0.26995559067E+03 -0.15773353425E+03  0.51800814427E+03  0.00000000000E+00 0.  1.
         13    1    5    5    0    0  0.26129621619E+03 -0.98618917518E+02 -0.16121538695E+04  0.16361667099E+04  0.00000000000E+00 0. -1.
        -14    1    5    5    0    0  0.90810670571E+02  0.46019729933E+01 -0.39205974106E+03  0.40246564649E+03  0.00000000000E+00 0.  1.
          2    1    6    6  502    0  0.20608014792E+02 -0.68936918555E+02 -0.12895717905E+03  0.14767174084E+03  0.00000000000E+00 0. -1.
         -1    1    6    6    0  502  0.16485050336E+03 -0.16550760507E+03 -0.21345570858E+03  0.31643608410E+03  0.00000000000E+00 0.  1.
<mgrwt>
<rscale>  0 0.65339318E+03</rscale>
<asrwt>0</asrwt>
<pdfrwt beam="1">  1        1 0.43595762E+00 0.65339318E+03</pdfrwt>
<pdfrwt beam="2">  1       -2 0.49956122E-01 0.65339318E+03</pdfrwt>
<totfact> 0.28487381E+00</totfact>
</mgrwt>
</event>
<event>
12    3  0.2269558E-007  0.5280519E+03  0.7818608E-02  0.1006706E+00
         -2   -1    0    0    0  501 -0.00000000000E+00  0.00000000000E+00  0.88612935901E+03  0.88612935901E+03  0.00000000000E+00 0.  1.
          1   -1    0    0  501    0  0.00000000000E+00 -0.00000000000E+00 -0.44141470914E+03  0.44141470914E+03  0.00000000000E+00 0. -1.
        -24    2    1    2    0    0  0.14284309811E+03 -0.45530305679E+03  0.15910407233E+03  0.50998244510E+03  0.84041443846E+02 0.  0.
    5000000    2    1    2    0    0 -0.14284309811E+03  0.45530305679E+03  0.28561057754E+03  0.81756162304E+03  0.59927337774E+03 0.  0.
        -24    2    4    4    0    0 -0.24124142391E+03  0.35014902887E+03 -0.57664964723E+02  0.43645060802E+03  0.79762886441E+02 0.  0.
         24    2    4    4    0    0  0.98398325796E+02  0.10515402791E+03  0.34327554227E+03  0.38111101503E+03  0.81657257794E+02 0.  0.
         11    1    5    5    0    0 -0.97305731409E+02  0.10635223845E+03  0.12741567720E+02  0.14471196058E+03  0.00000000000E+00 0. -1.
        -12    1    5    5    0    0 -0.14393569250E+03  0.24379679042E+03 -0.70406532443E+02  0.29173864743E+03  0.00000000000E+00 0.  1.
         11    1    3    3    0    0  0.89793319723E+02 -0.23458752153E+03  0.12454010184E+03  0.28036473118E+03  0.00000000000E+00 0. -1.
        -12    1    3    3    0    0  0.53049778388E+02 -0.22071553525E+03  0.34563970490E+02  0.22961771392E+03  0.00000000000E+00 0.  1.
          4    1    6    6  502    0  0.62753984952E+02  0.34736373345E+02  0.24377983937E+03  0.25411274730E+03  0.00000000000E+00 0. -1.
         -3    1    6    6    0  502  0.35644340844E+02  0.70417654569E+02  0.99495702899E+02  0.12699826772E+03  0.00000000000E+00 0.  1.
<mgrwt>
<rscale>  0 0.52805186E+03</rscale>
<asrwt>0</asrwt>
<pdfrwt beam="1">  1        1 0.67909956E-01 0.52805186E+03</pdfrwt>
<pdfrwt beam="2">  1       -2 0.13632759E+00 0.52805186E+03</pdfrwt>
<totfact> 0.18415847E+01</totfact>
</mgrwt>
</event>
<event>
12    3  0.2269558E-007  0.5237585E+03  0.7818608E-02  0.1007757E+00
          1   -1    0    0  501    0  0.00000000000E+00  0.00000000000E+00  0.41741654136E+03  0.41741654136E+03  0.00000000000E+00 0. -1.
         -4   -1    0    0    0  501 -0.00000000000E+00 -0.00000000000E+00 -0.99730001366E+03  0.99730001366E+03  0.00000000000E+00 0.  1.
        -24    2    1    2    0    0 -0.27486546787E+03 -0.34526005516E+03 -0.48885409189E+03  0.66430143267E+03  0.86962860932E+02 0.  0.
    5000000    2    1    2    0    0  0.27486546787E+03  0.34526005516E+03 -0.91029380405E+02  0.75041512235E+03  0.60006747673E+03 0.  0.
        -24    2    4    4    0    0  0.30730906333E+03  0.66994746736E+02  0.16469686484E+03  0.36278115539E+03  0.74551679576E+02 0.  0.
         24    2    4    4    0    0 -0.32443595461E+02  0.27826530842E+03 -0.25572624525E+03  0.38763396695E+03  0.79874971469E+02 0.  0.
         11    1    5    5    0    0  0.11123995463E+03  0.27692320703E+02  0.10136340973E+03  0.15302200157E+03  0.00000000000E+00 0. -1.
        -12    1    5    5    0    0  0.19606910869E+03  0.39302426033E+02  0.63333455110E+02  0.20975915382E+03  0.00000000000E+00 0.  1.
         11    1    3    3    0    0 -0.81334495144E+02 -0.16690424227E+03 -0.18116125101E+03  0.25940648615E+03  0.00000000000E+00 0. -1.
        -12    1    3    3    0    0 -0.19353097272E+03 -0.17835581289E+03 -0.30769284088E+03  0.40489494653E+03  0.00000000000E+00 0.  1.
          4    1    6    6  502    0 -0.42923429173E+02  0.25443063999E+03 -0.20115901242E+03  0.32717322571E+03  0.00000000000E+00 0. -1.
         -3    1    6    6    0  502  0.10479833712E+02  0.23834668431E+02 -0.54567232826E+02  0.60460741247E+02  0.00000000000E+00 0.  1.
<mgrwt>
<rscale>  0 0.52375850E+03</rscale>
<asrwt>0</asrwt>
<pdfrwt beam="1">  1        1 0.64217930E-01 0.52375850E+03</pdfrwt>
<pdfrwt beam="2">  1       -4 0.15343077E+00 0.52375850E+03</pdfrwt>
<totfact> 0.77290325E+00</totfact>
</mgrwt>
</event>
<event>
12    3  0.2269558E-007  0.6229304E+03  0.7818608E-02  0.9858943E-01
         -2   -1    0    0    0  501 -0.00000000000E+00  0.00000000000E+00  0.86535036258E+03  0.86535036258E+03  0.00000000000E+00 0.  1.
          1   -1    0    0  501    0  0.00000000000E+00 -0.00000000000E+00 -0.91701770381E+03  0.91701770381E+03  0.00000000000E+00 0. -1.
        -24    2    1    2    0    0 -0.55770652517E+03 -0.19576341351E+03 -0.54351842642E+03  0.80700807981E+03  0.80559783643E+02 0.  0.
    5000000    2    1    2    0    0  0.55770652517E+03  0.19576341351E+03  0.49185108519E+03  0.97535998657E+03  0.60004144118E+03 0.  0.
        -24    2    4    4    0    0  0.17226754954E+03 -0.55087607857E+02 -0.99779701932E+02  0.22136190427E+03  0.79588633479E+02 0.  0.
         24    2    4    4    0    0  0.38543897562E+03  0.25085102136E+03  0.59163078712E+03  0.75399808231E+03  0.83646165500E+02 0.  0.
         13    1    5    5    0    0  0.17555125275E+03 -0.48436234566E+02 -0.77564148829E+02  0.19794066875E+03  0.00000000000E+00 0. -1.
        -14    1    5    5    0    0 -0.32837032122E+01 -0.66513732915E+01 -0.22215553103E+02  0.23421235516E+02  0.00000000000E+00 0.  1.
         13    1    3    3    0    0 -0.58109400097E+02 -0.10339600764E+01 -0.34026026748E+02  0.67346432343E+02  0.00000000000E+00 0. -1.
        -14    1    3    3    0    0 -0.49959712507E+03 -0.19472945343E+03 -0.50949239967E+03  0.73966164747E+03  0.00000000000E+00 0.  1.
          2    1    6    6  502    0  0.38148547559E+03  0.25275440721E+03  0.56532843566E+03  0.72733224775E+03  0.00000000000E+00 0. -1.
         -1    1    6    6    0  502  0.39535000325E+01 -0.19033858494E+01  0.26302351456E+02  0.26665834551E+02  0.00000000000E+00 0.  1.
<mgrwt>
<rscale>  0 0.62293039E+03</rscale>
<asrwt>0</asrwt>
<pdfrwt beam="1">  1        1 0.14107965E+00 0.62293039E+03</pdfrwt>
<pdfrwt beam="2">  1       -2 0.13313083E+00 0.62293039E+03</pdfrwt>
<totfact> 0.65790392E+00</totfact>
</mgrwt>
</event>
<event>
12    3  0.2269558E-007  0.7382763E+03  0.7818608E-02  0.9653925E-01
         -2   -1    0    0    0  501 -0.00000000000E+00  0.00000000000E+00  0.55008215668E+03  0.55008215668E+03  0.00000000000E+00 0.  1.
          1   -1    0    0  501    0  0.00000000000E+00 -0.00000000000E+00 -0.10286570425E+04  0.10286570425E+04  0.00000000000E+00 0. -1.
        -24    2    1    2    0    0  0.40180789741E+03  0.46893204179E+03 -0.33180625272E+03  0.70530910161E+03  0.77580237343E+02 0.  0.
    5000000    2    1    2    0    0 -0.40180789741E+03 -0.46893204179E+03 -0.14676863315E+03  0.87343009762E+03  0.59999354789E+03 0.  0.
        -24    2    4    4    0    0 -0.26781163504E+03 -0.59541106807E+03 -0.84788973084E+02  0.66324686465E+03  0.80435201704E+02 0.  0.
         24    2    4    4    0    0 -0.13399626237E+03  0.12647902628E+03 -0.61979660062E+02  0.21018323296E+03  0.79897251123E+02 0.  0.
         11    1    5    5    0    0 -0.62587750855E+01  0.11068546720E+01 -0.20201680278E+01  0.66692182223E+01  0.00000000000E+00 0. -1.
        -12    1    5    5    0    0 -0.26155285995E+03 -0.59651792274E+03 -0.82768805056E+02  0.65657764643E+03  0.00000000000E+00 0.  1.
         13    1    3    3    0    0  0.26007474024E+03  0.27795685444E+03 -0.16533294265E+03  0.41501068103E+03  0.00000000000E+00 0. -1.
        -14    1    3    3    0    0  0.14173315717E+03  0.19097518735E+03 -0.16647331007E+03  0.29029842058E+03  0.00000000000E+00 0.  1.
          4    1    6    6  502    0 -0.28853813378E+02 -0.77455589252E+01 -0.14409707131E+02  0.33168899425E+02  0.00000000000E+00 0. -1.
         -3    1    6    6    0  502 -0.10514244900E+03  0.13422458521E+03 -0.47569952932E+02  0.17701433354E+03  0.00000000000E+00 0.  1.
<mgrwt>
<rscale>  0 0.73827633E+03</rscale>
<asrwt>0</asrwt>
<pdfrwt beam="1">  1        1 0.15825493E+00 0.73827633E+03</pdfrwt>
<pdfrwt beam="2">  1       -2 0.84628025E-01 0.73827633E+03</pdfrwt>
<totfact> 0.15726790E+01</totfact>
</mgrwt>
</event>
<event>
12    3  0.2269558E-007  0.1249330E+04  0.7818608E-02  0.9070741E-01
          1   -1    0    0  501    0  0.00000000000E+00  0.00000000000E+00  0.12503987596E+04  0.12503987596E+04  0.00000000000E+00 0. -1.
         -2   -1    0    0    0  501 -0.00000000000E+00 -0.00000000000E+00 -0.12955190789E+04  0.12955190789E+04  0.00000000000E+00 0.  1.
        -24    2    1    2    0    0 -0.50799176525E+03 -0.10866752867E+04  0.28940246950E+02  0.12025990520E+04  0.80548926299E+02 0.  0.
    5000000    2    1    2    0    0  0.50799176525E+03  0.10866752867E+04 -0.74060566255E+02  0.13433187866E+04  0.60008464626E+03 0.  0.
        -24    2    4    4    0    0 -0.86609302492E+02  0.18970235574E+03  0.11049369836E+03  0.24865155618E+03  0.78298045710E+02 0.  0.
         24    2    4    4    0    0  0.59460106774E+03  0.89697293099E+03 -0.18455426461E+03  0.10946672304E+04  0.78263657883E+02 0.  0.
         11    1    3    3    0    0 -0.32520456904E+03 -0.63627719575E+03 -0.13301880180E+02  0.71469127711E+03  0.00000000000E+00 0. -1.
        -12    1    3    3    0    0 -0.18278719620E+03 -0.45039809097E+03  0.42242127130E+02  0.48790777484E+03  0.00000000000E+00 0.  1.
         13    1    5    5    0    0 -0.36061786711E+02  0.18421437030E+02  0.39174161022E+01  0.40683509582E+02  0.00000000000E+00 0. -1.
        -14    1    5    5    0    0 -0.50547515781E+02  0.17128091871E+03  0.10657628226E+03  0.20796804659E+03  0.00000000000E+00 0.  1.
          2    1    6    6  502    0  0.12355167839E+03  0.24753019197E+03 -0.42304143403E+02  0.27986756461E+03  0.00000000000E+00 0. -1.
         -1    1    6    6    0  502  0.47104938935E+03  0.64944273902E+03 -0.14225012121E+03  0.81479966584E+03  0.00000000000E+00 0.  1.
<mgrwt>
<rscale>  0 0.12493298E+04</rscale>
<asrwt>0</asrwt>
<pdfrwt beam="1">  1        1 0.19236904E+00 0.12493298E+04</pdfrwt>
<pdfrwt beam="2">  1       -2 0.19931063E+00 0.12493298E+04</pdfrwt>
<totfact> 0.11216240E+00</totfact>
</mgrwt>
</event>
<event>
12    3  0.2269558E-007  0.1011829E+04  0.7818608E-02  0.9295666E-01
         -2   -1    0    0    0  501 -0.00000000000E+00  0.00000000000E+00  0.14299460223E+04  0.14299460223E+04  0.00000000000E+00 0.  1.
          1   -1    0    0  501    0  0.00000000000E+00 -0.00000000000E+00 -0.26708232513E+04  0.26708232513E+04  0.00000000000E+00 0. -1.
        -24    2    1    2    0    0  0.87244693991E+03 -0.33227532648E+03 -0.23511190743E+04  0.25309638376E+04  0.80290037969E+02 0.  0.
    5000000    2    1    2    0    0 -0.87244693991E+03  0.33227532648E+03  0.11102418453E+04  0.15698054360E+04  0.60006799306E+03 0.  0.
        -24    2    4    4    0    0 -0.53872315203E+03 -0.91309820480E+02  0.67728499450E+03  0.87379861391E+03  0.79050212241E+02 0.  0.
         24    2    4    4    0    0 -0.33372378788E+03  0.42358514696E+03  0.43295685080E+03  0.69600682209E+03  0.78599735444E+02 0.  0.
         11    1    5    5    0    0 -0.12965355048E+03 -0.99122310665E+01  0.21413694314E+03  0.25052529991E+03  0.00000000000E+00 0. -1.
        -12    1    5    5    0    0 -0.40906960155E+03 -0.81397589414E+02  0.46314805136E+03  0.62327331401E+03  0.00000000000E+00 0.  1.
         13    1    3    3    0    0  0.19360187119E+03 -0.11023626644E+03 -0.56221022286E+03  0.60474296495E+03  0.00000000000E+00 0. -1.
        -14    1    3    3    0    0  0.67884506872E+03 -0.22203906004E+03 -0.17889088514E+04  0.19262208726E+04  0.00000000000E+00 0.  1.
          2    1    6    6  502    0 -0.30057689720E+03  0.37298603488E+03  0.41248699825E+03  0.63214759121E+03  0.00000000000E+00 0. -1.
         -1    1    6    6    0  502 -0.33146890679E+02  0.50599112076E+02  0.20469852557E+02  0.63859230877E+02  0.00000000000E+00 0.  1.
<mgrwt>
<rscale>  0 0.10118287E+04</rscale>
<asrwt>0</asrwt>
<pdfrwt beam="1">  1        1 0.41089588E+00 0.10118287E+04</pdfrwt>
<pdfrwt beam="2">  1       -2 0.21999170E+00 0.10118287E+04</pdfrwt>
<totfact> 0.90490727E-02</totfact>
</mgrwt>
</event>
<event>
12    3  0.2269558E-007  0.1108753E+04  0.7818608E-02  0.9196703E-01
          1   -1    0    0  501    0  0.00000000000E+00  0.00000000000E+00  0.19127393230E+04  0.19127393230E+04  0.00000000000E+00 0. -1.
         -2   -1    0    0    0  501 -0.00000000000E+00 -0.00000000000E+00 -0.96435188112E+03  0.96435188112E+03  0.00000000000E+00 0.  1.
        -24    2    1    2    0    0 -0.10972936019E+04  0.91685236211E+02 -0.26159912309E+03  0.11345082028E+04  0.78837362049E+02 0.  0.
    5000000    2    1    2    0    0  0.10972936019E+04 -0.91685236211E+02  0.12099865650E+04  0.17425830014E+04  0.60005716228E+03 0.  0.
        -24    2    4    4    0    0  0.85860409413E+03 -0.14100517373E+02  0.52714566141E+03  0.10107330353E+04  0.79365643404E+02 0.  0.
         24    2    4    4    0    0  0.23868950774E+03 -0.77584718838E+02  0.68284090357E+03  0.73184996603E+03  0.79627906415E+02 0.  0.
         11    1    3    3    0    0 -0.72200280170E+03  0.74676522471E+02 -0.13670506195E+03  0.73861553100E+03  0.00000000000E+00 0. -1.
        -12    1    3    3    0    0 -0.37529080017E+03  0.17008713740E+02 -0.12489406114E+03  0.39589267175E+03  0.00000000000E+00 0.  1.
         11    1    5    5    0    0  0.40467338922E+03 -0.84123387048E+01  0.20221019686E+03  0.45246025582E+03  0.00000000000E+00 0. -1.
        -12    1    5    5    0    0  0.45393070492E+03 -0.56881786680E+01  0.32493546455E+03  0.55827277953E+03  0.00000000000E+00 0.  1.
          2    1    6    6  502    0  0.13556639021E+03 -0.73119506442E+02  0.32917833109E+03  0.36343236239E+03  0.00000000000E+00 0. -1.
         -1    1    6    6    0  502  0.10312311753E+03 -0.44652123964E+01  0.35366257249E+03  0.36841760364E+03  0.00000000000E+00 0.  1.
<mgrwt>
<rscale>  0 0.11087528E+04</rscale>
<asrwt>0</asrwt>
<pdfrwt beam="1">  1        1 0.29426759E+00 0.11087528E+04</pdfrwt>
<pdfrwt beam="2">  1       -2 0.14836183E+00 0.11087528E+04</pdfrwt>
<totfact> 0.91318647E-01</totfact>
</mgrwt>
</event>
<event>
12    3  0.2269558E-007  0.7796847E+03  0.7818608E-02  0.9589897E-01
         -2   -1    0    0    0  501 -0.00000000000E+00  0.00000000000E+00  0.17298672072E+03  0.17298672072E+03  0.00000000000E+00 0.  1.
          1   -1    0    0  501    0  0.00000000000E+00 -0.00000000000E+00 -0.37915659430E+04  0.37915659430E+04  0.00000000000E+00 0. -1.
        -24    2    1    2    0    0  0.58113417162E+03 -0.37584127043E+03 -0.13915458991E+04  0.15564938135E+04  0.85436621524E+02 0.  0.
    5000000    2    1    2    0    0 -0.58113417162E+03  0.37584127043E+03 -0.22270333233E+04  0.24080588503E+04  0.60008034244E+03 0.  0.
        -24    2    4    4    0    0 -0.51334429907E+03  0.48963224997E+03 -0.14507221876E+04  0.16168791883E+04  0.80257923745E+02 0.  0.
         24    2    4    4    0    0 -0.67789872551E+02 -0.11379097955E+03 -0.77631113568E+03  0.79117966198E+03  0.75910633672E+02 0.  0.
         11    1    5    5    0    0 -0.25143833166E+03  0.25872281254E+03 -0.65166562075E+03  0.74486697445E+03  0.00000000000E+00 0. -1.
        -12    1    5    5    0    0 -0.26190596742E+03  0.23090943743E+03 -0.79905656683E+03  0.87201221382E+03  0.00000000000E+00 0.  1.
         13    1    3    3    0    0  0.26634903614E+03 -0.12460875300E+03 -0.61727219253E+03  0.68373540939E+03  0.00000000000E+00 0. -1.
        -14    1    3    3    0    0  0.31478513549E+03 -0.25123251743E+03 -0.77427370652E+03  0.87275840411E+03  0.00000000000E+00 0.  1.
          4    1    6    6  502    0 -0.42866809993E+02 -0.11958719967E+03 -0.63946209926E+03  0.65195892364E+03  0.00000000000E+00 0. -1.
         -3    1    6    6    0  502 -0.24923062558E+02  0.57962201242E+01 -0.13684903642E+03  0.13922073834E+03  0.00000000000E+00 0.  1.
<mgrwt>
<rscale>  0 0.77968468E+03</rscale>
<asrwt>0</asrwt>
<pdfrwt beam="1">  1        1 0.58331785E+00 0.77968468E+03</pdfrwt>
<pdfrwt beam="2">  1       -2 0.26613341E-01 0.77968468E+03</pdfrwt>
<totfact> 0.17673917E+00</totfact>
</mgrwt>
</event>
<event>
12    3  0.2269558E-007  0.6218056E+03  0.7818608E-02  0.9861171E-01
         -2   -1    0    0    0  501 -0.00000000000E+00  0.00000000000E+00  0.57952704471E+03  0.57952704471E+03  0.00000000000E+00 0.  1.
          1   -1    0    0  501    0  0.00000000000E+00 -0.00000000000E+00 -0.70240940994E+03  0.70240940994E+03  0.00000000000E+00 0. -1.
        -24    2    1    2    0    0 -0.17253908286E+02  0.49300140702E+03 -0.56580722222E+02  0.50241561241E+03  0.76628877013E+02 0.  0.
    5000000    2    1    2    0    0  0.17253908286E+02 -0.49300140702E+03 -0.66301643006E+02  0.77952084224E+03  0.59992395431E+03 0.  0.
        -24    2    4    4    0    0 -0.86990077401E+01 -0.61053389569E+03  0.32859014708E+01  0.61734502193E+03  0.90976746672E+02 0.  0.
         24    2    4    4    0    0  0.25952916026E+02  0.11753248867E+03 -0.69587544477E+02  0.16217582031E+03  0.83493296771E+02 0.  0.
         11    1    5    5    0    0 -0.26447462597E+02 -0.22372812861E+03  0.38431975314E+02  0.22854050086E+03  0.00000000000E+00 0. -1.
        -12    1    5    5    0    0  0.17748454857E+02 -0.38680576708E+03 -0.35146073844E+02  0.38880452106E+03  0.00000000000E+00 0.  1.
         13    1    3    3    0    0  0.60168493056E+01  0.44485926986E+03 -0.41350394319E+02  0.44681744322E+03  0.00000000000E+00 0. -1.
        -14    1    3    3    0    0 -0.23270757592E+02  0.48142137157E+02 -0.15230327903E+02  0.55598169187E+02  0.00000000000E+00 0.  1.
          2    1    6    6  502    0  0.42965534458E+02  0.68690304902E+02 -0.74701867111E+02  0.11020328529E+03  0.00000000000E+00 0. -1.
         -1    1    6    6    0  502 -0.17012618432E+02  0.48842183764E+02  0.51143226349E+01  0.51972535023E+02  0.00000000000E+00 0.  1.
<mgrwt>
<rscale>  0 0.62180564E+03</rscale>
<asrwt>0</asrwt>
<pdfrwt beam="1">  1        1 0.10806299E+00 0.62180564E+03</pdfrwt>
<pdfrwt beam="2">  1       -2 0.89158007E-01 0.62180564E+03</pdfrwt>
<totfact> 0.26469099E+01</totfact>
</mgrwt>
</event>
<event>
12    3  0.2269558E-007  0.6255113E+03  0.7818608E-02  0.9853848E-01
         -4   -1    0    0    0  501 -0.00000000000E+00  0.00000000000E+00  0.16080338625E+04  0.16080338625E+04  0.00000000000E+00 0.  1.
          3   -1    0    0  501    0  0.00000000000E+00 -0.00000000000E+00 -0.31195694410E+03  0.31195694410E+03  0.00000000000E+00 0. -1.
        -24    2    1    2    0    0  0.25979418773E+03 -0.42049563798E+03  0.12407223056E+03  0.51364171212E+03  0.64220623627E+02 0.  0.
    5000000    2    1    2    0    0 -0.25979418773E+03  0.42049563798E+03  0.11720046878E+04  0.14063490945E+04  0.59992765036E+03 0.  0.
        -24    2    4    4    0    0 -0.10252264043E+03  0.53700191227E+03  0.72254890480E+03  0.90959391085E+03  0.80013856565E+02 0.  0.
         24    2    4    4    0    0 -0.15727154730E+03 -0.11650627429E+03  0.44945578303E+03  0.49675518361E+03  0.80294209032E+02 0.  0.
         11    1    5    5    0    0 -0.58053063436E+02  0.33257729928E+03  0.38091193504E+03  0.50899088443E+03  0.00000000000E+00 0. -1.
        -12    1    5    5    0    0 -0.44469576990E+02  0.20442461299E+03  0.34163696976E+03  0.40060302642E+03  0.00000000000E+00 0.  1.
         11    1    3    3    0    0  0.13879354585E+03 -0.20347526214E+03  0.92807325903E+02  0.26320910017E+03  0.00000000000E+00 0. -1.
        -12    1    3    3    0    0  0.12100064187E+03 -0.21702037584E+03  0.31264904655E+02  0.25043261195E+03  0.00000000000E+00 0.  1.
          2    1    6    6  502    0 -0.15734379190E+03 -0.86743589581E+02  0.40712839649E+03  0.44501129245E+03  0.00000000000E+00 0. -1.
         -1    1    6    6    0  502  0.72244602227E-01 -0.29762684714E+02  0.42327386548E+02  0.51743891163E+02  0.00000000000E+00 0.  1.
<mgrwt>
<rscale>  0 0.62551130E+03</rscale>
<asrwt>0</asrwt>
<pdfrwt beam="1">  1        3 0.47993377E-01 0.62551130E+03</pdfrwt>
<pdfrwt beam="2">  1       -4 0.24738982E+00 0.62551130E+03</pdfrwt>
<totfact> 0.65424930E-01</totfact>
</mgrwt>
</event>
<event>
12    3  0.4618873E-007  0.1338643E+04  0.7818608E-02  0.8999470E-01
         -2   -1    0    0    0  501 -0.00000000000E+00  0.00000000000E+00  0.86476191160E+03  0.86476191160E+03  0.00000000000E+00 0.  1.
          1   -1    0    0  501    0  0.00000000000E+00 -0.00000000000E+00 -0.27349963483E+04  0.27349963483E+04  0.00000000000E+00 0. -1.
        -24    2    1    2    0    0 -0.11675903425E+03  0.13208453353E+04 -0.13515498092E+03  0.13350599319E+04  0.76505430235E+02 0.  0.
    5000000    2    1    2    0    0  0.11675903425E+03 -0.13208453353E+04 -0.17350794558E+04  0.22646983281E+04  0.60007726763E+03 0.  0.
        -24    2    4    4    0    0 -0.60290664211E+02 -0.46516608572E+03 -0.10455772967E+04  0.11487424549E+04  0.79767742654E+02 0.  0.
         24    2    4    4    0    0  0.17704969846E+03 -0.85567924962E+03 -0.68950215907E+03  0.11159558731E+04  0.80066906165E+02 0.  0.
         11    1    5    5    0    0 -0.35944235155E+02 -0.81705582939E+02 -0.24446910343E+03  0.26025551455E+03  0.00000000000E+00 0. -1.
        -12    1    5    5    0    0 -0.24346429056E+02 -0.38346050278E+03 -0.80110819332E+03  0.88848694037E+03  0.00000000000E+00 0.  1.
         13    1    3    3    0    0 -0.87758843066E+02  0.59896341572E+03 -0.45747832823E+02  0.60708455105E+03  0.00000000000E+00 0. -1.
        -14    1    3    3    0    0 -0.29000191186E+02  0.72188191962E+03 -0.89407148096E+02  0.72797538083E+03  0.00000000000E+00 0.  1.
          4    1    6    6  502    0  0.91462741213E+02 -0.29680505697E+03 -0.21363189846E+03  0.37695790603E+03  0.00000000000E+00 0. -1.
         -3    1    6    6    0  502  0.85586957250E+02 -0.55887419265E+03 -0.47587026061E+03  0.73899796711E+03  0.00000000000E+00 0.  1.
<mgrwt>
<rscale>  0 0.13386427E+04</rscale>
<asrwt>0</asrwt>
<pdfrwt beam="1">  1        1 0.42076867E+00 0.13386427E+04</pdfrwt>
<pdfrwt beam="2">  1       -2 0.13304029E+00 0.13386427E+04</pdfrwt>
<totfact> 0.32235179E-01</totfact>
</mgrwt>
</event>
<event>
12    3  0.2269558E-007  0.1524038E+04  0.7818608E-02  0.8868623E-01
          1   -1    0    0  501    0  0.00000000000E+00  0.00000000000E+00  0.23707736997E+04  0.23707736997E+04  0.00000000000E+00 0. -1.
         -2   -1    0    0    0  501 -0.00000000000E+00 -0.00000000000E+00 -0.11768034733E+04  0.11768034733E+04  0.00000000000E+00 0.  1.
        -24    2    1    2    0    0 -0.42048085927E+03  0.14052697231E+04 -0.14055902693E+03  0.14756182398E+04  0.78135792748E+02 0.  0.
    5000000    2    1    2    0    0  0.42048085927E+03 -0.14052697231E+04  0.13345292533E+04  0.20719589332E+04  0.60038183283E+03 0.  0.
        -24    2    4    4    0    0 -0.70897437469E+02 -0.18463978467E+02  0.12887349867E+03  0.16801695307E+03  0.79081936732E+02 0.  0.
         24    2    4    4    0    0  0.49137829674E+03 -0.13868057446E+04  0.12056557547E+04  0.19039419801E+04  0.81892985795E+02 0.  0.
         11    1    5    5    0    0 -0.18185775504E+02  0.30633562506E+02  0.38645538335E+02  0.52560586143E+02  0.00000000000E+00 0. -1.
        -12    1    5    5    0    0 -0.52711661965E+02 -0.49097540973E+02  0.90227960336E+02  0.11545636692E+03  0.00000000000E+00 0.  1.
         13    1    3    3    0    0 -0.23615921019E+03  0.80796048332E+03 -0.11907293495E+03  0.85014685732E+03  0.00000000000E+00 0. -1.
        -14    1    3    3    0    0 -0.18432164908E+03  0.59730923973E+03 -0.21486091982E+02  0.62547138251E+03  0.00000000000E+00 0.  1.
          2    1    6    6  502    0  0.16957490493E+03 -0.59926902067E+03  0.51402785960E+03  0.80752934806E+03  0.00000000000E+00 0. -1.
         -1    1    6    6    0  502  0.32180339181E+03 -0.78753672391E+03  0.69162789506E+03  0.10964126320E+04  0.00000000000E+00 0.  1.
<mgrwt>
<rscale>  0 0.15240381E+04</rscale>
<asrwt>0</asrwt>
<pdfrwt beam="1">  1        1 0.36473442E+00 0.15240381E+04</pdfrwt>
<pdfrwt beam="2">  1       -2 0.18104669E+00 0.15240381E+04</pdfrwt>
<totfact> 0.24481096E-01</totfact>
</mgrwt>
</event>
<event>
12    3  0.2269558E-007  0.7109039E+03  0.7818608E-02  0.9698765E-01
          3   -1    0    0  501    0  0.00000000000E+00  0.00000000000E+00  0.11776479029E+04  0.11776479029E+04  0.00000000000E+00 0. -1.
         -4   -1    0    0    0  501 -0.00000000000E+00 -0.00000000000E+00 -0.61534434191E+03  0.61534434191E+03  0.00000000000E+00 0.  1.
        -24    2    1    2    0    0  0.59493725020E+03 -0.23439703657E+03 -0.15485849850E+03  0.66018220527E+03  0.54470975483E+02 0.  0.
    5000000    2    1    2    0    0 -0.59493725020E+03  0.23439703657E+03  0.71716205953E+03  0.11328100396E+04  0.60003738523E+03 0.  0.
        -24    2    4    4    0    0 -0.29088576944E+03  0.34959307913E+03  0.63914217569E+03  0.78887743418E+03  0.83636317327E+02 0.  0.
         24    2    4    4    0    0 -0.30405148077E+03 -0.11519604257E+03  0.78019883844E+02  0.34393260539E+03  0.80530140906E+02 0.  0.
         11    1    3    3    0    0  0.37664384210E+03 -0.16029780153E+03 -0.12331323341E+03  0.42750686837E+03  0.00000000000E+00 0. -1.
        -12    1    3    3    0    0  0.21829340810E+03 -0.74099235037E+02 -0.31545265091E+02  0.23267533690E+03  0.00000000000E+00 0.  1.
         13    1    5    5    0    0 -0.14969442683E+03  0.18130601875E+03  0.25878409102E+03  0.34964195919E+03  0.00000000000E+00 0. -1.
        -14    1    5    5    0    0 -0.14119134261E+03  0.16828706038E+03  0.38035808467E+03  0.43923547499E+03  0.00000000000E+00 0.  1.
          2    1    6    6  502    0 -0.10654814544E+03 -0.59096116672E+02 -0.62397669623E+01  0.12199915161E+03  0.00000000000E+00 0. -1.
         -1    1    6    6    0  502 -0.19750333533E+03 -0.56099925893E+02  0.84259650806E+02  0.22193345378E+03  0.00000000000E+00 0.  1.
<mgrwt>
<rscale>  0 0.71090390E+03</rscale>
<asrwt>0</asrwt>
<pdfrwt beam="1">  1        3 0.18117660E+00 0.71090390E+03</pdfrwt>
<pdfrwt beam="2">  1       -4 0.94668360E-01 0.71090390E+03</pdfrwt>
<totfact> 0.41406684E-01</totfact>
</mgrwt>
</event>
<event>
12    3  0.2269558E-007  0.1545208E+04  0.7818608E-02  0.8854935E-01
         -4   -1    0    0    0  501 -0.00000000000E+00  0.00000000000E+00  0.19718779317E+04  0.19718779317E+04  0.00000000000E+00 0.  1.
          3   -1    0    0  501    0  0.00000000000E+00 -0.00000000000E+00 -0.13191080005E+04  0.13191080005E+04  0.00000000000E+00 0. -1.
        -24    2    1    2    0    0 -0.36083569610E+03 -0.14899017100E+04  0.58668119176E+03  0.16433792637E+04  0.80567230058E+02 0.  0.
    5000000    2    1    2    0    0  0.36083569610E+03  0.14899017100E+04  0.66088739386E+02  0.16476066685E+04  0.60019205892E+03 0.  0.
        -24    2    4    4    0    0  0.11983558192E+03  0.10407531943E+04  0.28269286054E+03  0.10881212267E+04  0.81023283511E+02 0.  0.
         24    2    4    4    0    0  0.24100011419E+03  0.44914851567E+03 -0.21660412115E+03  0.55948544178E+03  0.79316896625E+02 0.  0.
         11    1    3    3    0    0 -0.19356289531E+02 -0.83685663899E+02  0.53503093493E+02  0.10119553992E+03  0.00000000000E+00 0. -1.
        -12    1    3    3    0    0 -0.34147940657E+03 -0.14062160461E+04  0.53317809827E+03  0.15421837238E+04  0.00000000000E+00 0.  1.
         11    1    5    5    0    0  0.76702322853E+02  0.71966530322E+03  0.15669163625E+03  0.74050905724E+03  0.00000000000E+00 0. -1.
        -12    1    5    5    0    0  0.43133259064E+02  0.32108789107E+03  0.12600122429E+03  0.34761216946E+03  0.00000000000E+00 0.  1.
          2    1    6    6  502    0  0.19686482322E+03  0.36575788916E+03 -0.14123460836E+03  0.43872748570E+03  0.00000000000E+00 0. -1.
         -1    1    6    6    0  502  0.44135290963E+02  0.83390626515E+02 -0.75369512790E+02  0.12075795608E+03  0.00000000000E+00 0.  1.
<mgrwt>
<rscale>  0 0.15452075E+04</rscale>
<asrwt>0</asrwt>
<pdfrwt beam="1">  1        3 0.20293969E+00 0.15452075E+04</pdfrwt>
<pdfrwt beam="2">  1       -4 0.30336584E+00 0.15452075E+04</pdfrwt>
<totfact> 0.86946046E-03</totfact>
</mgrwt>
</event>
<event>
12    3  0.2269558E-007  0.8952173E+03  0.7818608E-02  0.9431580E-01
          1   -1    0    0  501    0  0.00000000000E+00  0.00000000000E+00  0.71323949397E+03  0.71323949397E+03  0.00000000000E+00 0. -1.
         -2   -1    0    0    0  501 -0.00000000000E+00 -0.00000000000E+00 -0.16474705475E+04  0.16474705475E+04  0.00000000000E+00 0.  1.
        -24    2    1    2    0    0  0.39458984049E+03  0.74056773721E+03  0.15905247234E+03  0.85769180505E+03  0.78713581298E+02 0.  0.
    5000000    2    1    2    0    0 -0.39458984049E+03 -0.74056773721E+03 -0.10932835259E+04  0.15030182365E+04  0.59971095994E+03 0.  0.
        -24    2    4    4    0    0 -0.40698688907E+03 -0.32307763010E+03 -0.88227438708E+03  0.10269457398E+04  0.78689106624E+02 0.  0.
         24    2    4    4    0    0  0.12397048585E+02 -0.41749010712E+03 -0.21100913884E+03  0.47607249664E+03  0.87569909370E+02 0.  0.
         13    1    3    3    0    0  0.13890542592E+03  0.33433789773E+03  0.86591355913E+02  0.37225610825E+03  0.00000000000E+00 0. -1.
        -14    1    3    3    0    0  0.25568441457E+03  0.40622983948E+03  0.72461116428E+02  0.48543569680E+03  0.00000000000E+00 0.  1.
         13    1    5    5    0    0 -0.27494008491E+02 -0.14624706784E+01 -0.36351841688E+02  0.45601707397E+02  0.00000000000E+00 0. -1.
        -14    1    5    5    0    0 -0.37949288058E+03 -0.32161515942E+03 -0.84592254539E+03  0.98134403243E+03  0.00000000000E+00 0.  1.
          2    1    6    6  502    0 -0.29093859859E+02 -0.17286003308E+03 -0.11692799693E+03  0.21071117717E+03  0.00000000000E+00 0. -1.
         -1    1    6    6    0  502  0.41490908444E+02 -0.24463007404E+03 -0.94081141905E+02  0.26536131947E+03  0.00000000000E+00 0.  1.
<mgrwt>
<rscale>  0 0.89521727E+03</rscale>
<asrwt>0</asrwt>
<pdfrwt beam="1">  1        1 0.10972915E+00 0.89521727E+03</pdfrwt>
<pdfrwt beam="2">  1       -2 0.25345701E+00 0.89521727E+03</pdfrwt>
<totfact> 0.14420076E+00</totfact>
</mgrwt>
</event>
<event>
12    3  0.2269558E-007  0.1139672E+04  0.7818608E-02  0.9167365E-01
          1   -1    0    0  501    0  0.00000000000E+00  0.00000000000E+00  0.13035494108E+04  0.13035494108E+04  0.00000000000E+00 0. -1.
         -2   -1    0    0    0  501 -0.00000000000E+00 -0.00000000000E+00 -0.11183046489E+04  0.11183046489E+04  0.00000000000E+00 0.  1.
        -24    2    1    2    0    0 -0.11081260987E+04  0.42198973447E+02  0.31180935292E+03  0.11547034005E+04  0.79941644265E+02 0.  0.
    5000000    2    1    2    0    0  0.11081260987E+04 -0.42198973447E+02 -0.12656459099E+03  0.12671506593E+04  0.59993999163E+03 0.  0.
        -24    2    4    4    0    0  0.93427943403E+02 -0.97409675581E+02 -0.18922257686E+03  0.24560678872E+03  0.79373078345E+02 0.  0.
         24    2    4    4    0    0  0.10146981553E+04  0.55210702133E+02  0.62657985877E+02  0.10215438705E+04  0.83458302234E+02 0.  0.
         11    1    5    5    0    0  0.54580272390E+02 -0.95865184501E+02 -0.16891046063E+03  0.20174212114E+03  0.00000000000E+00 0. -1.
        -12    1    5    5    0    0  0.38847671012E+02 -0.15444910791E+01 -0.20312116235E+02  0.43864667578E+02  0.00000000000E+00 0.  1.
         13    1    3    3    0    0 -0.37542621234E+03  0.51800752178E+02  0.10055655157E+03  0.39209664485E+03  0.00000000000E+00 0. -1.
        -14    1    3    3    0    0 -0.73269988637E+03 -0.96017787312E+01  0.21125280135E+03  0.76260675562E+03  0.00000000000E+00 0.  1.
          4    1    6    6  502    0  0.53894470494E+03  0.62798734222E+02  0.84999976478E+01  0.54265765079E+03  0.00000000000E+00 0. -1.
         -3    1    6    6    0  502  0.47575345037E+03 -0.75880320891E+01  0.54157988229E+02  0.47888621975E+03  0.00000000000E+00 0.  1.
<mgrwt>
<rscale>  0 0.11396715E+04</rscale>
<asrwt>0</asrwt>
<pdfrwt beam="1">  1        1 0.20054606E+00 0.11396715E+04</pdfrwt>
<pdfrwt beam="2">  1       -2 0.17204687E+00 0.11396715E+04</pdfrwt>
<totfact> 0.15945791E+00</totfact>
</mgrwt>
</event>
<event>
12    3  0.2269558E-007  0.8084987E+03  0.7818608E-02  0.9547796E-01
          1   -1    0    0  501    0  0.00000000000E+00  0.00000000000E+00  0.20388037908E+04  0.20388037908E+04  0.00000000000E+00 0. -1.
         -2   -1    0    0    0  501 -0.00000000000E+00 -0.00000000000E+00 -0.34415155973E+03  0.34415155973E+03  0.00000000000E+00 0.  1.
        -24    2    1    2    0    0  0.32904173058E+03 -0.62714955492E+03  0.50147450866E+03  0.87123680463E+03  0.77407119860E+02 0.  0.
    5000000    2    1    2    0    0 -0.32904173058E+03  0.62714955492E+03  0.11931777224E+04  0.15117185459E+04  0.60002904937E+03 0.  0.
        -24    2    4    4    0    0  0.80745006065E+02 -0.51708836257E+02  0.24818328266E+03  0.27560097542E+03  0.71884602746E+02 0.  0.
         24    2    4    4    0    0 -0.40978673664E+03  0.67885839117E+03  0.94499443979E+03  0.12361175705E+04  0.78729105802E+02 0.  0.
         11    1    5    5    0    0  0.19361226287E+02 -0.49120091271E+02  0.74036175431E+02  0.90934018509E+02  0.00000000000E+00 0. -1.
        -12    1    5    5    0    0  0.61383779778E+02 -0.25887449862E+01  0.17414710723E+03  0.18466695691E+03  0.00000000000E+00 0.  1.
         13    1    3    3    0    0  0.13086192759E+03 -0.28497870573E+03  0.26453133130E+03  0.41026154103E+03  0.00000000000E+00 0. -1.
        -14    1    3    3    0    0  0.19817980299E+03 -0.34217084919E+03  0.23694317735E+03  0.46097526359E+03  0.00000000000E+00 0.  1.
          4    1    6    6  502    0 -0.33280236594E+03  0.57666890586E+03  0.83036034550E+03  0.10643320653E+04  0.00000000000E+00 0. -1.
         -3    1    6    6    0  502 -0.76984370703E+02  0.10218948531E+03  0.11463409429E+03  0.17178550525E+03  0.00000000000E+00 0.  1.
<mgrwt>
<rscale>  0 0.80849872E+03</rscale>
<asrwt>0</asrwt>
<pdfrwt beam="1">  1        1 0.31366211E+00 0.80849872E+03</pdfrwt>
<pdfrwt beam="2">  1       -2 0.52946395E-01 0.80849872E+03</pdfrwt>
<totfact> 0.85655775E+00</totfact>
</mgrwt>
</event>
<event>
12    3  0.2269558E-007  0.7312040E+03  0.7818608E-02  0.9665309E-01
          1   -1    0    0  501    0  0.00000000000E+00  0.00000000000E+00  0.22284185195E+04  0.22284185195E+04  0.00000000000E+00 0. -1.
         -2   -1    0    0    0  501 -0.00000000000E+00 -0.00000000000E+00 -0.27433575147E+03  0.27433575147E+03  0.00000000000E+00 0.  1.
        -24    2    1    2    0    0 -0.32241306234E+03 -0.54787394423E+03  0.11431065566E+04  0.13103647993E+04  0.79039648420E+02 0.  0.
    5000000    2    1    2    0    0  0.32241306234E+03  0.54787394423E+03  0.81097621139E+03  0.11923894716E+04  0.59999516248E+03 0.  0.
        -24    2    4    4    0    0  0.23203998721E+03  0.64022748555E+03  0.50641432024E+03  0.85226564836E+03  0.78533322261E+02 0.  0.
         24    2    4    4    0    0  0.90373075136E+02 -0.92353541318E+02  0.30456189115E+03  0.34012382324E+03  0.78929083959E+02 0.  0.
         11    1    3    3    0    0 -0.75014883396E+02 -0.79723382308E+02  0.16249368102E+03  0.19592663624E+03  0.00000000000E+00 0. -1.
        -12    1    3    3    0    0 -0.24739817895E+03 -0.46815056193E+03  0.98061287559E+03  0.11144381631E+04  0.00000000000E+00 0.  1.
         13    1    5    5    0    0  0.12184281550E+03  0.40547787953E+03  0.35076830288E+03  0.54981486409E+03  0.00000000000E+00 0. -1.
        -14    1    5    5    0    0  0.11019717170E+03  0.23474960603E+03  0.15564601737E+03  0.30245078427E+03  0.00000000000E+00 0.  1.
          4    1    6    6  502    0  0.70359106871E+02 -0.32291859621E+02  0.10297367270E+03  0.12882835630E+03  0.00000000000E+00 0. -1.
         -1    1    6    6    0  502  0.20013968266E+02 -0.60061681697E+02  0.20158821845E+03  0.21129546695E+03  0.00000000000E+00 0.  1.
<mgrwt>
<rscale>  0 0.73120398E+03</rscale>
<asrwt>0</asrwt>
<pdfrwt beam="1">  1        1 0.34283361E+00 0.73120398E+03</pdfrwt>
<pdfrwt beam="2">  1       -2 0.42205502E-01 0.73120398E+03</pdfrwt>
<totfact> 0.10206603E+01</totfact>
</mgrwt>
</event>
<event>
12    3  0.2269558E-007  0.5882218E+03  0.7818608E-02  0.9930148E-01
         -4   -1    0    0    0  501 -0.00000000000E+00  0.00000000000E+00  0.98477035146E+03  0.98477035146E+03  0.00000000000E+00 0.  1.
          1   -1    0    0  501    0  0.00000000000E+00 -0.00000000000E+00 -0.40364721616E+03  0.40364721616E+03  0.00000000000E+00 0. -1.
        -24    2    1    2    0    0  0.65205104398E+02 -0.47018045120E+03  0.32773615908E+03  0.58249018112E+03  0.81009004475E+02 0.  0.
    5000000    2    1    2    0    0 -0.65205104398E+02  0.47018045120E+03  0.25338697622E+03  0.80592738650E+03  0.59999385852E+03 0.  0.
        -24    2    4    4    0    0  0.22230393915E+03  0.22996226388E+03 -0.30724878534E+02  0.32924017476E+03  0.71787118218E+02 0.  0.
         24    2    4    4    0    0 -0.28750904355E+03  0.24021818732E+03  0.28411185475E+03  0.47668721174E+03  0.78389566815E+02 0.  0.
         11    1    3    3    0    0  0.15754770296E+02 -0.19841774798E+03  0.18420679933E+03  0.27120095947E+03  0.00000000000E+00 0. -1.
        -12    1    3    3    0    0  0.49450334102E+02 -0.27176270322E+03  0.14352935975E+03  0.31128922165E+03  0.00000000000E+00 0.  1.
         13    1    5    5    0    0  0.98915141942E+02  0.95020231702E+02  0.22060652450E+02  0.13892343980E+03  0.00000000000E+00 0. -1.
        -14    1    5    5    0    0  0.12338879721E+03  0.13494203218E+03 -0.52785530984E+02  0.19031673496E+03  0.00000000000E+00 0.  1.
          4    1    6    6  502    0 -0.17389646207E+03  0.99649989193E+02  0.17108632575E+03  0.26351590222E+03  0.00000000000E+00 0. -1.
         -3    1    6    6    0  502 -0.11361258147E+03  0.14056819813E+03  0.11302552901E+03  0.21317130952E+03  0.00000000000E+00 0.  1.
<mgrwt>
<rscale>  0 0.58822184E+03</rscale>
<asrwt>0</asrwt>
<pdfrwt beam="1">  1        1 0.62099572E-01 0.58822184E+03</pdfrwt>
<pdfrwt beam="2">  1       -4 0.15150313E+00 0.58822184E+03</pdfrwt>
<totfact> 0.83218098E+00</totfact>
</mgrwt>
</event>
<event>
12    3  0.2269558E-007  0.3952354E+03  0.7818608E-02  0.1045442E+00
          3   -1    0    0  501    0  0.00000000000E+00  0.00000000000E+00  0.21949121435E+03  0.21949121435E+03  0.00000000000E+00 0. -1.
         -4   -1    0    0    0  501 -0.00000000000E+00 -0.00000000000E+00 -0.89320908915E+03  0.89320908915E+03  0.00000000000E+00 0.  1.
        -24    2    1    2    0    0 -0.21502819925E+02 -0.22693868324E+03 -0.15025316342E+03  0.28448875977E+03  0.79964392711E+02 0.  0.
    5000000    2    1    2    0    0  0.21502819925E+02  0.22693868324E+03 -0.52346471138E+03  0.82821154373E+03  0.59996293210E+03 0.  0.
        -24    2    4    4    0    0 -0.28244260118E+02  0.38364756645E+03 -0.16350434233E+03  0.42508967389E+03  0.77358693219E+02 0.  0.
         24    2    4    4    0    0  0.49747080043E+02 -0.15670888321E+03 -0.35996036905E+03  0.40312186984E+03  0.76833121797E+02 0.  0.
         11    1    5    5    0    0  0.18948029800E+02  0.30329557595E+02 -0.18563862693E+02  0.40293012984E+02  0.00000000000E+00 0. -1.
        -12    1    5    5    0    0 -0.47192289918E+02  0.35331800885E+03 -0.14494047963E+03  0.38479666091E+03  0.00000000000E+00 0.  1.
         11    1    3    3    0    0 -0.19176603737E+02 -0.12014117082E+03 -0.33392405539E+02  0.12616138793E+03  0.00000000000E+00 0. -1.
        -12    1    3    3    0    0 -0.23262161878E+01 -0.10679751242E+03 -0.11686075788E+03  0.15832737184E+03  0.00000000000E+00 0.  1.
          4    1    6    6  502    0  0.14310603084E+01 -0.73759165172E+02 -0.23006931353E+03  0.24160784633E+03  0.00000000000E+00 0. -1.
         -3    1    6    6    0  502  0.48316019734E+02 -0.82949718035E+02 -0.12989105552E+03  0.16151402351E+03  0.00000000000E+00 0.  1.
<mgrwt>
<rscale>  0 0.39523540E+03</rscale>
<asrwt>0</asrwt>
<pdfrwt beam="1">  1        3 0.33767879E-01 0.39523540E+03</pdfrwt>
<pdfrwt beam="2">  1       -4 0.13741678E+00 0.39523540E+03</pdfrwt>
<totfact> 0.72966595E+00</totfact>
</mgrwt>
</event>
<event>
12    3  0.2269558E-007  0.6428885E+03  0.7818608E-02  0.9820216E-01
         -2   -1    0    0    0  501 -0.00000000000E+00  0.00000000000E+00  0.36793012296E+03  0.36793012296E+03  0.00000000000E+00 0.  1.
          1   -1    0    0  501    0  0.00000000000E+00 -0.00000000000E+00 -0.20666976596E+04  0.20666976596E+04  0.00000000000E+00 0. -1.
        -24    2    1    2    0    0 -0.55568978124E+03  0.31278915477E+03 -0.13433739244E+04  0.14893651206E+04  0.83227239030E+02 0.  0.
    5000000    2    1    2    0    0  0.55568978124E+03 -0.31278915477E+03 -0.35539361221E+03  0.94526266195E+03  0.60049037641E+03 0.  0.
        -24    2    4    4    0    0  0.37693470968E+03 -0.24932747607E+03 -0.51188389839E+03  0.68762825883E+03  0.81015623324E+02 0.  0.
         24    2    4    4    0    0  0.17875507156E+03 -0.63461678692E+02  0.15649028618E+03  0.25763440312E+03  0.76847353443E+02 0.  0.
         11    1    5    5    0    0  0.32314586947E+03 -0.21172147589E+03 -0.38857734435E+03  0.54794305256E+03  0.00000000000E+00 0. -1.
        -12    1    5    5    0    0  0.53788840210E+02 -0.37606000186E+02 -0.12330655404E+03  0.13968520627E+03  0.00000000000E+00 0.  1.
         13    1    3    3    0    0 -0.29169074934E+03  0.12823290107E+03 -0.73148801264E+03  0.79787335010E+03  0.00000000000E+00 0. -1.
        -14    1    3    3    0    0 -0.26399903190E+03  0.18455625370E+03 -0.61188591177E+03  0.69149177048E+03  0.00000000000E+00 0.  1.
          2    1    6    6  502    0  0.50404598130E+02 -0.35664501917E+02  0.93337427660E+02  0.11191271425E+03  0.00000000000E+00 0. -1.
         -1    1    6    6    0  502  0.12835047343E+03 -0.27797176776E+02  0.63152858520E+02  0.14572168886E+03  0.00000000000E+00 0.  1.
<mgrwt>
<rscale>  0 0.64288851E+03</rscale>
<asrwt>0</asrwt>
<pdfrwt beam="1">  1        1 0.31795348E+00 0.64288851E+03</pdfrwt>
<pdfrwt beam="2">  1       -2 0.56604635E-01 0.64288851E+03</pdfrwt>
<totfact> 0.73356884E+00</totfact>
</mgrwt>
</event>
<event>
12    3  0.2269558E-007  0.5443336E+03  0.7818608E-02  0.1002814E+00
          1   -1    0    0  501    0  0.00000000000E+00  0.00000000000E+00  0.21094608198E+04  0.21094608198E+04  0.00000000000E+00 0. -1.
         -2   -1    0    0    0  501 -0.00000000000E+00 -0.00000000000E+00 -0.29523987977E+03  0.29523987977E+03  0.00000000000E+00 0.  1.
        -24    2    1    2    0    0 -0.32838288037E+03 -0.22180557607E+03  0.16059226107E+04  0.16559877533E+04  0.79214758143E+02 0.  0.
    5000000    2    1    2    0    0  0.32838288037E+03  0.22180557607E+03  0.20829832932E+03  0.74871294623E+03  0.60012486381E+03 0.  0.
        -24    2    4    4    0    0 -0.98893897923E+02  0.23441540170E+03  0.16149068523E+03  0.31157098028E+03  0.79162179949E+02 0.  0.
         24    2    4    4    0    0  0.42727677829E+03 -0.12609825633E+02  0.46807644080E+02  0.43714196595E+03  0.78598281673E+02 0.  0.
         11    1    5    5    0    0 -0.20080638836E+02  0.13782064267E+03  0.10642815899E+03  0.17528466741E+03  0.00000000000E+00 0. -1.
        -12    1    5    5    0    0 -0.78813259087E+02  0.96594759028E+02  0.55062526246E+02  0.13628631287E+03  0.00000000000E+00 0.  1.
         11    1    3    3    0    0 -0.23698816212E+03 -0.15851885532E+03  0.12882990001E+04  0.13194718376E+04  0.00000000000E+00 0. -1.
        -12    1    3    3    0    0 -0.91394718250E+02 -0.63286720742E+02  0.31762361061E+03  0.33651591577E+03  0.00000000000E+00 0.  1.
          2    1    6    6  502    0  0.20211932482E+03  0.84726261789E+01  0.58838664954E+02  0.21067984088E+03  0.00000000000E+00 0. -1.
         -1    1    6    6    0  502  0.22515745347E+03 -0.21082451812E+02 -0.12031020874E+02  0.22646212507E+03  0.00000000000E+00 0.  1.
<mgrwt>
<rscale>  0 0.54433358E+03</rscale>
<asrwt>0</asrwt>
<pdfrwt beam="1">  1        1 0.32453242E+00 0.54433358E+03</pdfrwt>
<pdfrwt beam="2">  1       -2 0.45421521E-01 0.54433358E+03</pdfrwt>
<totfact> 0.10959376E+01</totfact>
</mgrwt>
</event>
<event>
12    3  0.2269558E-007  0.7915526E+03  0.7818608E-02  0.9572325E-01
         -2   -1    0    0    0  501 -0.00000000000E+00  0.00000000000E+00  0.82786239991E+03  0.82786239991E+03  0.00000000000E+00 0.  1.
          1   -1    0    0  501    0  0.00000000000E+00 -0.00000000000E+00 -0.92026211790E+03  0.92026211790E+03  0.00000000000E+00 0. -1.
        -24    2    1    2    0    0 -0.70212803982E+03 -0.12423528921E+03 -0.32470598957E+03  0.78772015829E+03  0.81552907484E+02 0.  0.
    5000000    2    1    2    0    0  0.70212803982E+03  0.12423528921E+03  0.23230627158E+03  0.96040435952E+03  0.59999344878E+03 0.  0.
        -24    2    4    4    0    0  0.52865724543E+03  0.29427740590E+03 -0.63206301835E+01  0.61036978410E+03  0.80210025606E+02 0.  0.
         24    2    4    4    0    0  0.17347079439E+03 -0.17004211669E+03  0.23862690177E+03  0.35003457542E+03  0.81086175078E+02 0.  0.
         11    1    3    3    0    0 -0.28335831884E+03 -0.89594684748E+02 -0.12336028726E+03  0.32177151034E+03  0.00000000000E+00 0. -1.
        -12    1    3    3    0    0 -0.41876972098E+03 -0.34640604464E+02 -0.20134570231E+03  0.46594864795E+03  0.00000000000E+00 0.  1.
         13    1    5    5    0    0  0.16199252638E+03  0.49166562381E+02 -0.21677248003E+01  0.16930336231E+03  0.00000000000E+00 0. -1.
        -14    1    5    5    0    0  0.36666471906E+03  0.24511084352E+03 -0.41529053831E+01  0.44106642179E+03  0.00000000000E+00 0.  1.
          2    1    6    6  502    0  0.94646813202E+02 -0.38802778990E+02  0.82989857517E+02  0.13172316181E+03  0.00000000000E+00 0. -1.
         -1    1    6    6    0  502  0.78823981188E+02 -0.13123933769E+03  0.15563704425E+03  0.21831141361E+03  0.00000000000E+00 0.  1.
<mgrwt>
<rscale>  0 0.79155263E+03</rscale>
<asrwt>0</asrwt>
<pdfrwt beam="1">  1        1 0.14157879E+00 0.79155263E+03</pdfrwt>
<pdfrwt beam="2">  1       -2 0.12736345E+00 0.79155263E+03</pdfrwt>
<totfact> 0.71523389E+00</totfact>
</mgrwt>
</event>
<event>
12    3  0.2269558E-007  0.1063413E+04  0.7818608E-02  0.9241604E-01
          3   -1    0    0  501    0  0.00000000000E+00  0.00000000000E+00  0.25001941051E+04  0.25001941051E+04  0.00000000000E+00 0. -1.
         -4   -1    0    0    0  501 -0.00000000000E+00 -0.00000000000E+00 -0.53278633872E+03  0.53278633872E+03  0.00000000000E+00 0.  1.
        -24    2    1    2    0    0 -0.10374106518E+04 -0.15036085713E+03  0.12283786518E+04  0.16170310204E+04  0.83940221234E+02 0.  0.
    5000000    2    1    2    0    0  0.10374106518E+04  0.15036085713E+03  0.73902911461E+03  0.14159494235E+04  0.59993290452E+03 0.  0.
        -24    2    4    4    0    0  0.61618243550E+03 -0.26096640514E+01  0.73247716665E+03  0.96079928919E+03  0.83215805516E+02 0.  0.
         24    2    4    4    0    0  0.42122821629E+03  0.15297052118E+03  0.65519479585E+01  0.45515013432E+03  0.79281310582E+02 0.  0.
         11    1    5    5    0    0  0.59901152811E+03  0.10112189221E+02  0.71735193319E+03  0.93461803066E+03  0.00000000000E+00 0. -1.
        -12    1    5    5    0    0  0.17170907392E+02 -0.12721853272E+02  0.15125233455E+02  0.26181258534E+02  0.00000000000E+00 0.  1.
         13    1    3    3    0    0 -0.91416366043E+03 -0.10587382611E+03  0.10878115427E+04  0.14248643506E+04  0.00000000000E+00 0. -1.
        -14    1    3    3    0    0 -0.12324699135E+03 -0.44487031021E+02  0.14056710911E+03  0.19216666977E+03  0.00000000000E+00 0.  1.
          4    1    6    6  502    0  0.37966967815E+03  0.16156615465E+03  0.40188603574E+01  0.41263644783E+03  0.00000000000E+00 0. -1.
         -3    1    6    6    0  502  0.41558538136E+02 -0.85956334742E+01  0.25330876011E+01  0.42513686497E+02  0.00000000000E+00 0.  1.
<mgrwt>
<rscale>  0 0.10634132E+04</rscale>
<asrwt>0</asrwt>
<pdfrwt beam="1">  1        3 0.38464524E+00 0.10634132E+04</pdfrwt>
<pdfrwt beam="2">  1       -4 0.81967130E-01 0.10634132E+04</pdfrwt>
<totfact> 0.39541521E-02</totfact>
</mgrwt>
</event>
<event>
12    3  0.2269558E-007  0.1006913E+04  0.7818608E-02  0.9300996E-01
         -2   -1    0    0    0  501 -0.00000000000E+00  0.00000000000E+00  0.61341453628E+03  0.61341453628E+03  0.00000000000E+00 0.  1.
          1   -1    0    0  501    0  0.00000000000E+00 -0.00000000000E+00 -0.19891630518E+04  0.19891630518E+04  0.00000000000E+00 0. -1.
        -24    2    1    2    0    0 -0.77324511234E+03 -0.63577876734E+03 -0.39920356819E+03  0.10807983822E+04  0.81480116499E+02 0.  0.
    5000000    2    1    2    0    0  0.77324511234E+03  0.63577876734E+03 -0.97654494738E+03  0.15217792059E+04  0.60004105905E+03 0.  0.
        -24    2    4    4    0    0  0.65471010454E+03  0.54076868157E+03 -0.44317967117E+03  0.96109156609E+03  0.78820615978E+02 0.  0.
         24    2    4    4    0    0  0.11853500779E+03  0.95010085764E+02 -0.53336527620E+03  0.56068763982E+03  0.82550875945E+02 0.  0.
         11    1    3    3    0    0 -0.49986381981E+03 -0.45190725984E+03 -0.24476200620E+03  0.71693266736E+03  0.00000000000E+00 0. -1.
        -12    1    3    3    0    0 -0.27338129253E+03 -0.18387150750E+03 -0.15444156199E+03  0.36386571485E+03  0.00000000000E+00 0.  1.
         13    1    5    5    0    0  0.19259053671E+03  0.17380612396E+03 -0.17488374557E+03  0.31286420061E+03  0.00000000000E+00 0. -1.
        -14    1    5    5    0    0  0.46211956783E+03  0.36696255762E+03 -0.26829592560E+03  0.64822736548E+03  0.00000000000E+00 0.  1.
          2    1    6    6  502    0  0.29026538111E+02  0.56546463067E+02 -0.11778402673E+03  0.13383990195E+03  0.00000000000E+00 0. -1.
         -1    1    6    6    0  502  0.89508469683E+02  0.38463622697E+02 -0.41558124947E+03  0.42684773787E+03  0.00000000000E+00 0.  1.
<mgrwt>
<rscale>  0 0.10069126E+04</rscale>
<asrwt>0</asrwt>
<pdfrwt beam="1">  1        1 0.30602508E+00 0.10069126E+04</pdfrwt>
<pdfrwt beam="2">  1       -2 0.94371468E-01 0.10069126E+04</pdfrwt>
<totfact> 0.25317194E+00</totfact>
</mgrwt>
</event>
<event>
12    3  0.2269558E-007  0.3627484E+03  0.7818608E-02  0.1057501E+00
         -2   -1    0    0    0  501 -0.00000000000E+00  0.00000000000E+00  0.19538555678E+03  0.19538555678E+03  0.00000000000E+00 0.  1.
          1   -1    0    0  501    0  0.00000000000E+00 -0.00000000000E+00 -0.95637859020E+03  0.95637859020E+03  0.00000000000E+00 0. -1.
        -24    2    1    2    0    0  0.90922992897E+02 -0.17743224405E+03 -0.10067091233E+03  0.23766443869E+03  0.81243836471E+02 0.  0.
    5000000    2    1    2    0    0 -0.90922992897E+02  0.17743224405E+03 -0.66032212109E+03  0.91409970830E+03  0.59983646208E+03 0.  0.
        -24    2    4    4    0    0 -0.50885515208E+02  0.33423232989E+03 -0.16068281659E+03  0.38290761097E+03  0.80614421749E+02 0.  0.
         24    2    4    4    0    0 -0.40037477689E+02 -0.15680008584E+03 -0.49963930450E+03  0.53119209732E+03  0.79601150196E+02 0.  0.
         11    1    3    3    0    0 -0.16036554152E+01 -0.77303976155E+02 -0.50703471892E+02  0.92462524852E+02  0.00000000000E+00 0. -1.
        -12    1    3    3    0    0  0.92526648312E+02 -0.10012826789E+03 -0.49967440439E+02  0.14520191384E+03  0.00000000000E+00 0.  1.
         11    1    5    5    0    0  0.98194841402E+01  0.34084366898E+02  0.31509738544E+01  0.35610321142E+02  0.00000000000E+00 0. -1.
        -12    1    5    5    0    0 -0.60704999348E+02  0.30014796299E+03 -0.16383379045E+03  0.34729728983E+03  0.00000000000E+00 0.  1.
          2    1    6    6  502    0  0.51629749707E+01 -0.85957705307E+02 -0.34059252969E+03  0.35130991261E+03  0.00000000000E+00 0. -1.
         -1    1    6    6    0  502 -0.45200452660E+02 -0.70842380536E+02 -0.15904677481E+03  0.17988218471E+03  0.00000000000E+00 0.  1.
<mgrwt>
<rscale>  0 0.36274839E+03</rscale>
<asrwt>0</asrwt>
<pdfrwt beam="1">  1        1 0.14713517E+00 0.36274839E+03</pdfrwt>
<pdfrwt beam="2">  1       -2 0.30059316E-01 0.36274839E+03</pdfrwt>
<totfact> 0.15407658E+02</totfact>
</mgrwt>
</event>
<event>
12    3  0.2269558E-007  0.7356845E+03  0.7818608E-02  0.9658081E-01
          1   -1    0    0  501    0  0.00000000000E+00  0.00000000000E+00  0.15501639072E+04  0.15501639072E+04  0.00000000000E+00 0. -1.
         -2   -1    0    0    0  501 -0.00000000000E+00 -0.00000000000E+00 -0.38143817768E+03  0.38143817768E+03  0.00000000000E+00 0.  1.
        -24    2    1    2    0    0 -0.51879312242E+03  0.35282664609E+03  0.70707216505E+03  0.94847851615E+03  0.77636994772E+02 0.  0.
    5000000    2    1    2    0    0  0.51879312242E+03 -0.35282664609E+03  0.46165356448E+03  0.98312356873E+03  0.59981246381E+03 0.  0.
        -24    2    4    4    0    0  0.45658504139E+03  0.22593687833E+02  0.34242690142E+03  0.57667661122E+03  0.79494379419E+02 0.  0.
         24    2    4    4    0    0  0.62208081022E+02 -0.37542033392E+03  0.11922666306E+03  0.40644695751E+03  0.78573911795E+02 0.  0.
         11    1    3    3    0    0 -0.36827457265E+03  0.21060671644E+03  0.49809570523E+03  0.65427874904E+03  0.00000000000E+00 0. -1.
        -12    1    3    3    0    0 -0.15051854977E+03  0.14221992965E+03  0.20897645982E+03  0.29419976712E+03  0.00000000000E+00 0.  1.
         13    1    5    5    0    0  0.44946916793E+02 -0.11492016053E+02  0.61976661229E+02  0.77417041401E+02  0.00000000000E+00 0. -1.
        -14    1    5    5    0    0  0.41163812460E+03  0.34085703885E+02  0.28045024019E+03  0.49925956982E+03  0.00000000000E+00 0.  1.
          4    1    6    6  502    0  0.20370378524E+02 -0.10337419585E+03  0.70890112990E+02  0.12699049102E+03  0.00000000000E+00 0. -1.
         -3    1    6    6    0  502  0.41837702497E+02 -0.27204613807E+03  0.48336550070E+02  0.27945646649E+03  0.00000000000E+00 0.  1.
<mgrwt>
<rscale>  0 0.73568445E+03</rscale>
<asrwt>0</asrwt>
<pdfrwt beam="1">  1        1 0.23848675E+00 0.73568445E+03</pdfrwt>
<pdfrwt beam="2">  1       -2 0.58682797E-01 0.73568445E+03</pdfrwt>
<totfact> 0.14876703E+01</totfact>
</mgrwt>
</event>
<event>
12    3  0.2269558E-007  0.4264340E+03  0.7818608E-02  0.1034992E+00
         -2   -1    0    0    0  501 -0.00000000000E+00  0.00000000000E+00  0.29760809687E+03  0.29760809687E+03  0.00000000000E+00 0.  1.
          1   -1    0    0  501    0  0.00000000000E+00 -0.00000000000E+00 -0.10040282700E+04  0.10040282700E+04  0.00000000000E+00 0. -1.
        -24    2    1    2    0    0  0.19607326542E+03  0.29518633405E+03 -0.97988437828E+02  0.37646282290E+03  0.80887736112E+02 0.  0.
    5000000    2    1    2    0    0 -0.19607326542E+03 -0.29518633405E+03 -0.60843173527E+03  0.92517354395E+03  0.60014765909E+03 0.  0.
        -24    2    4    4    0    0 -0.74160100636E+02  0.61669742238E+02  0.70667095159E+02  0.14437726291E+03  0.80920195714E+02 0.  0.
         24    2    4    4    0    0 -0.12191316479E+03 -0.35685607629E+03 -0.67909883043E+03  0.78079628104E+03  0.79110884540E+02 0.  0.
         11    1    3    3    0    0  0.10497234052E+03  0.11306409257E+03 -0.99248977353E+01  0.15460008052E+03  0.00000000000E+00 0. -1.
        -12    1    3    3    0    0  0.91100924901E+02  0.18212224148E+03 -0.88063540092E+02  0.22186274238E+03  0.00000000000E+00 0.  1.
         13    1    5    5    0    0 -0.53034425466E+02  0.73808853372E+02  0.27754413085E+02  0.95030019290E+02  0.00000000000E+00 0. -1.
        -14    1    5    5    0    0 -0.21125675170E+02 -0.12139111134E+02  0.42912682075E+02  0.49347243624E+02  0.00000000000E+00 0.  1.
          2    1    6    6  502    0 -0.51309675719E+02 -0.21759093497E+03 -0.46348385898E+03  0.51458311800E+03  0.00000000000E+00 0. -1.
         -1    1    6    6    0  502 -0.70603489069E+02 -0.13926514132E+03 -0.21561497146E+03  0.26621316303E+03  0.00000000000E+00 0.  1.
<mgrwt>
<rscale>  0 0.42643402E+03</rscale>
<asrwt>0</asrwt>
<pdfrwt beam="1">  1        1 0.15446589E+00 0.42643402E+03</pdfrwt>
<pdfrwt beam="2">  1       -2 0.45785861E-01 0.42643402E+03</pdfrwt>
<totfact> 0.62981850E+01</totfact>
</mgrwt>
</event>
<event>
12    3  0.2269558E-007  0.6892174E+03  0.7818608E-02  0.9735852E-01
          1   -1    0    0  501    0  0.00000000000E+00  0.00000000000E+00  0.54202333888E+03  0.54202333888E+03  0.00000000000E+00 0. -1.
         -2   -1    0    0    0  501 -0.00000000000E+00 -0.00000000000E+00 -0.15340282882E+04  0.15340282882E+04  0.00000000000E+00 0.  1.
        -24    2    1    2    0    0  0.42493753914E+03  0.46689494010E+03 -0.10227292982E+04  0.12046163379E+04  0.81009302031E+02 0.  0.
    5000000    2    1    2    0    0 -0.42493753914E+03 -0.46689494010E+03  0.30724348884E+02  0.87143528911E+03  0.59991056020E+03 0.  0.
        -24    2    4    4    0    0  0.52287115501E+02 -0.15689900064E+03  0.20259686418E+03  0.27167950625E+03  0.73573268872E+02 0.  0.
         24    2    4    4    0    0 -0.47722465464E+03 -0.30999593945E+03 -0.17187251529E+03  0.59975578286E+03  0.79536055254E+02 0.  0.
         11    1    3    3    0    0  0.15079721231E+03  0.20058431389E+03 -0.46687785784E+03  0.53004603608E+03  0.00000000000E+00 0. -1.
        -12    1    3    3    0    0  0.27414032683E+03  0.26631062621E+03 -0.55585144032E+03  0.67457030184E+03  0.00000000000E+00 0.  1.
         13    1    5    5    0    0 -0.88282780199E+01 -0.18148232122E+02  0.60906935111E+02  0.64163475331E+02  0.00000000000E+00 0. -1.
        -14    1    5    5    0    0  0.61115393521E+02 -0.13875076852E+03  0.14168992907E+03  0.20751603092E+03  0.00000000000E+00 0.  1.
          4    1    6    6  502    0 -0.30776144637E+03 -0.23943059119E+03 -0.99391106953E+02  0.40239620775E+03  0.00000000000E+00 0. -1.
         -3    1    6    6    0  502 -0.16946320827E+03 -0.70565348265E+02 -0.72481408341E+02  0.19735957511E+03  0.00000000000E+00 0.  1.
<mgrwt>
<rscale>  0 0.68921741E+03</rscale>
<asrwt>0</asrwt>
<pdfrwt beam="1">  1        1 0.83388206E-01 0.68921741E+03</pdfrwt>
<pdfrwt beam="2">  1       -2 0.23600435E+00 0.68921741E+03</pdfrwt>
<totfact> 0.28317475E+00</totfact>
</mgrwt>
</event>
<event>
12    3  0.2269558E-007  0.7176539E+03  0.7818608E-02  0.9687509E-01
          1   -1    0    0  501    0  0.00000000000E+00  0.00000000000E+00  0.13049253406E+04  0.13049253406E+04  0.00000000000E+00 0. -1.
         -2   -1    0    0    0  501 -0.00000000000E+00 -0.00000000000E+00 -0.68251301520E+03  0.68251301520E+03  0.00000000000E+00 0.  1.
        -24    2    1    2    0    0 -0.58982201346E+03  0.13311959699E+02 -0.35847584572E+03  0.69488005861E+03  0.79285232276E+02 0.  0.
    5000000    2    1    2    0    0  0.58982201346E+03 -0.13311959699E+02  0.98088817112E+03  0.12925582972E+04  0.60041496610E+03 0.  0.
        -24    2    4    4    0    0  0.11919997562E+03  0.25529229879E+03  0.31624866511E+03  0.43135853847E+03  0.81695645655E+02 0.  0.
         24    2    4    4    0    0  0.47062203784E+03 -0.26860425849E+03  0.66463950601E+03  0.86119975871E+03  0.79284306546E+02 0.  0.
         11    1    3    3    0    0 -0.36821905540E+03 -0.28594745545E+02 -0.20987818628E+03  0.42479616913E+03  0.00000000000E+00 0. -1.
        -12    1    3    3    0    0 -0.22160295807E+03  0.41906705244E+02 -0.14859765944E+03  0.27008388948E+03  0.00000000000E+00 0.  1.
         13    1    5    5    0    0  0.18724007235E+01  0.90599838205E+02  0.11000161048E+03  0.14252084365E+03  0.00000000000E+00 0. -1.
        -14    1    5    5    0    0  0.11732757490E+03  0.16469246058E+03  0.20624705463E+03  0.28883769482E+03  0.00000000000E+00 0.  1.
          2    1    6    6  502    0  0.53985711220E+02 -0.63146327411E+02  0.97639203267E+02  0.12820034983E+03  0.00000000000E+00 0. -1.
         -1    1    6    6    0  502  0.41663632662E+03 -0.20545793107E+03  0.56700030275E+03  0.73299940888E+03  0.00000000000E+00 0.  1.
<mgrwt>
<rscale>  0 0.71765394E+03</rscale>
<asrwt>0</asrwt>
<pdfrwt beam="1">  1        1 0.20075774E+00 0.71765394E+03</pdfrwt>
<pdfrwt beam="2">  1       -2 0.10500200E+00 0.71765394E+03</pdfrwt>
<totfact> 0.59826078E+00</totfact>
</mgrwt>
</event>
<event>
12    3  0.2269558E-007  0.1186777E+04  0.7818608E-02  0.9124510E-01
         -2   -1    0    0    0  501 -0.00000000000E+00  0.00000000000E+00  0.79691151873E+03  0.79691151873E+03  0.00000000000E+00 0.  1.
          1   -1    0    0  501    0  0.00000000000E+00 -0.00000000000E+00 -0.20553826556E+04  0.20553826556E+04  0.00000000000E+00 0. -1.
        -24    2    1    2    0    0 -0.23240642742E+03  0.11564124012E+04 -0.30429550159E+03  0.12207680051E+04  0.79852243855E+02 0.  0.
    5000000    2    1    2    0    0  0.23240642742E+03 -0.11564124012E+04 -0.95417563530E+03  0.16315261693E+04  0.60010341524E+03 0.  0.
        -24    2    4    4    0    0  0.69549372621E+01 -0.18880615334E+03  0.55876713115E+02  0.21253877019E+03  0.79714409445E+02 0.  0.
         24    2    4    4    0    0  0.22545149015E+03 -0.96760624783E+03 -0.10100523484E+04  0.14189873991E+04  0.78925705658E+02 0.  0.
         11    1    3    3    0    0 -0.71199977214E+02  0.31159379516E+03 -0.11836928242E+03  0.34083928318E+03  0.00000000000E+00 0. -1.
        -12    1    3    3    0    0 -0.16120645020E+03  0.84481860600E+03 -0.18592621917E+03  0.87992872189E+03  0.00000000000E+00 0.  1.
         13    1    5    5    0    0 -0.27022508546E+02 -0.92734695068E+02  0.53908833716E+02  0.11061691548E+03  0.00000000000E+00 0. -1.
        -14    1    5    5    0    0  0.33977445808E+02 -0.96071458268E+02  0.19678793993E+01  0.10192185471E+03  0.00000000000E+00 0.  1.
          2    1    6    6  502    0  0.17069959869E+03 -0.82801391059E+03 -0.88275580651E+03  0.12222942375E+04  0.00000000000E+00 0. -1.
         -1    1    6    6    0  502  0.54751891468E+02 -0.13959233723E+03 -0.12729654190E+03  0.19669316158E+03  0.00000000000E+00 0.  1.
<mgrwt>
<rscale>  0 0.11867766E+04</rscale>
<asrwt>0</asrwt>
<pdfrwt beam="1">  1        1 0.31621272E+00 0.11867766E+04</pdfrwt>
<pdfrwt beam="2">  1       -2 0.12260177E+00 0.11867766E+04</pdfrwt>
<totfact> 0.11849567E+00</totfact>
</mgrwt>
</event>
<event>
12    3  0.2269558E-007  0.3975115E+03  0.7818608E-02  0.1044645E+00
         -2   -1    0    0    0  501 -0.00000000000E+00  0.00000000000E+00  0.13986473903E+03  0.13986473903E+03  0.00000000000E+00 0.  1.
          1   -1    0    0  501    0  0.00000000000E+00 -0.00000000000E+00 -0.14506125838E+04  0.14506125838E+04  0.00000000000E+00 0. -1.
        -24    2    1    2    0    0  0.23996676350E+03 -0.24091060629E+02 -0.35243261523E+03  0.43435084802E+03  0.79293657427E+02 0.  0.
    5000000    2    1    2    0    0 -0.23996676350E+03  0.24091060629E+02 -0.95831522953E+03  0.11561264748E+04  0.60007992784E+03 0.  0.
        -24    2    4    4    0    0  0.11858150270E+03  0.87481713826E+02 -0.64821245831E+03  0.67137791502E+03  0.94097240304E+02 0.  0.
         24    2    4    4    0    0 -0.35854826620E+03 -0.63390653197E+02 -0.31010277122E+03  0.48474855978E+03  0.79007615976E+02 0.  0.
         11    1    3    3    0    0  0.18769174137E+03  0.51143274880E+01 -0.30411558741E+03  0.35740822127E+03  0.00000000000E+00 0. -1.
        -12    1    3    3    0    0  0.52275022131E+02 -0.29205388117E+02 -0.48317027824E+02  0.76942626753E+02  0.00000000000E+00 0.  1.
         13    1    5    5    0    0  0.28405679186E+02  0.79333658640E+02 -0.31876441232E+03  0.32971421347E+03  0.00000000000E+00 0. -1.
        -14    1    5    5    0    0  0.90175823517E+02  0.81480551856E+01 -0.32944804599E+03  0.34166370155E+03  0.00000000000E+00 0.  1.
          4    1    6    6  502    0 -0.10516421415E+03  0.17456422722E+02 -0.90299038295E+02  0.13970739046E+03  0.00000000000E+00 0. -1.
         -3    1    6    6    0  502 -0.25338405205E+03 -0.80847075919E+02 -0.21980373293E+03  0.34504116932E+03  0.00000000000E+00 0.  1.
<mgrwt>
<rscale>  0 0.39751154E+03</rscale>
<asrwt>0</asrwt>
<pdfrwt beam="1">  1        1 0.22317116E+00 0.39751154E+03</pdfrwt>
<pdfrwt beam="2">  1       -2 0.21517653E-01 0.39751154E+03</pdfrwt>
<totfact> 0.12373138E+02</totfact>
</mgrwt>
</event>
<event>
12    3  0.2269558E-007  0.4193125E+03  0.7818608E-02  0.1037290E+00
          1   -1    0    0  501    0  0.00000000000E+00  0.00000000000E+00  0.12281717638E+04  0.12281717638E+04  0.00000000000E+00 0. -1.
         -2   -1    0    0    0  501 -0.00000000000E+00 -0.00000000000E+00 -0.19406116279E+03  0.19406116279E+03  0.00000000000E+00 0.  1.
        -24    2    1    2    0    0  0.26097168870E+03  0.14418867238E+03  0.30341322162E+03  0.43075846442E+03  0.67798791050E+02 0.  0.
    5000000    2    1    2    0    0 -0.26097168870E+03 -0.14418867238E+03  0.73069737942E+03  0.99147446219E+03  0.60017193648E+03 0.  0.
        -24    2    4    4    0    0 -0.37176964154E+03 -0.14447928744E+03  0.22123451612E+03  0.46394685155E+03  0.84941386086E+02 0.  0.
         24    2    4    4    0    0  0.11079795284E+03  0.29061505593E+00  0.50946286330E+03  0.52752761064E+03  0.80353594174E+02 0.  0.
         11    1    3    3    0    0  0.97026766492E+02  0.17791036972E+02  0.10334841353E+03  0.14286920239E+03  0.00000000000E+00 0. -1.
        -12    1    3    3    0    0  0.16394492221E+03  0.12639763541E+03  0.20006480809E+03  0.28788926203E+03  0.00000000000E+00 0.  1.
         13    1    5    5    0    0 -0.25902106169E+03 -0.80912068302E+02  0.10832490408E+03  0.29218651241E+03  0.00000000000E+00 0. -1.
        -14    1    5    5    0    0 -0.11274857985E+03 -0.63567219137E+02  0.11290961204E+03  0.17176033914E+03  0.00000000000E+00 0.  1.
          2    1    6    6  502    0 -0.24597810482E+01 -0.17370063363E+02  0.12854696021E+03  0.12973854709E+03  0.00000000000E+00 0. -1.
         -1    1    6    6    0  502  0.11325773389E+03  0.17660678419E+02  0.38091590310E+03  0.39778906355E+03  0.00000000000E+00 0.  1.
<mgrwt>
<rscale>  0 0.41931247E+03</rscale>
<asrwt>0</asrwt>
<pdfrwt beam="1">  1        1 0.18894950E+00 0.41931247E+03</pdfrwt>
<pdfrwt beam="2">  1       -2 0.29855564E-01 0.41931247E+03</pdfrwt>
<totfact> 0.97703674E+01</totfact>
</mgrwt>
</event>
<event>
12    3  0.2269558E-007  0.4239427E+03  0.7818608E-02  0.1035791E+00
         -2   -1    0    0    0  501 -0.00000000000E+00  0.00000000000E+00  0.44071516062E+03  0.44071516062E+03  0.00000000000E+00 0.  1.
          1   -1    0    0  501    0  0.00000000000E+00 -0.00000000000E+00 -0.52220769303E+03  0.52220769303E+03  0.00000000000E+00 0. -1.
        -24    2    1    2    0    0 -0.27433866073E+03  0.19968146642E+02  0.47690899670E+02  0.29037571206E+03  0.79894959769E+02 0.  0.
    5000000    2    1    2    0    0  0.27433866073E+03 -0.19968146642E+02 -0.12918343207E+03  0.67254714158E+03  0.59997572525E+03 0.  0.
        -24    2    4    4    0    0  0.29162678599E+03  0.19309866789E+03 -0.22735363924E+03  0.42437972043E+03  0.77943517938E+02 0.  0.
         24    2    4    4    0    0 -0.17288125265E+02 -0.21306681453E+03  0.98170207168E+02  0.24816742116E+03  0.79078016034E+02 0.  0.
         11    1    5    5    0    0  0.17107076599E+03  0.14287562968E+03 -0.17619349061E+03  0.28411757895E+03  0.00000000000E+00 0. -1.
        -12    1    5    5    0    0  0.12055602000E+03  0.50223038210E+02 -0.51160148625E+02  0.14026214148E+03  0.00000000000E+00 0.  1.
         11    1    3    3    0    0 -0.17438469406E+03 -0.49893432795E+01  0.64486227149E+02  0.18599297987E+03  0.00000000000E+00 0. -1.
        -12    1    3    3    0    0 -0.99953966662E+02  0.24957489921E+02 -0.16795327480E+02  0.10438273219E+03  0.00000000000E+00 0.  1.
          2    1    6    6  502    0  0.10600675410E+02 -0.95719226394E+02  0.81974548988E+02  0.12646885507E+03  0.00000000000E+00 0. -1.
         -1    1    6    6    0  502 -0.27888800675E+02 -0.11734758813E+03  0.16195658180E+02  0.12169856609E+03  0.00000000000E+00 0.  1.
<mgrwt>
<rscale>  0 0.42394269E+03</rscale>
<asrwt>0</asrwt>
<pdfrwt beam="1">  1        1 0.80339645E-01 0.42394269E+03</pdfrwt>
<pdfrwt beam="2">  1       -2 0.67802333E-01 0.42394269E+03</pdfrwt>
<totfact> 0.75903031E+01</totfact>
</mgrwt>
</event>
<event>
12    3  0.2269558E-007  0.6885531E+03  0.7818608E-02  0.9737011E-01
          1   -1    0    0  501    0  0.00000000000E+00  0.00000000000E+00  0.16531921970E+04  0.16531921970E+04  0.00000000000E+00 0. -1.
         -2   -1    0    0    0  501 -0.00000000000E+00 -0.00000000000E+00 -0.37294931917E+03  0.37294931917E+03  0.00000000000E+00 0.  1.
        -24    2    1    2    0    0 -0.19612037078E+03  0.56240195049E+03  0.15859682211E+03  0.62172418066E+03  0.81417756547E+02 0.  0.
    5000000    2    1    2    0    0  0.19612037078E+03 -0.56240195049E+03  0.11216460557E+04  0.14044173355E+04  0.59961573049E+03 0.  0.
        -24    2    4    4    0    0 -0.10666788656E+03 -0.43486198418E+03  0.87411393598E+03  0.98545151195E+03  0.80972378119E+02 0.  0.
         24    2    4    4    0    0  0.30278825734E+03 -0.12753996631E+03  0.24753211974E+03  0.41896582357E+03  0.79454636288E+02 0.  0.
         11    1    5    5    0    0 -0.79744215202E+02 -0.34668665076E+03  0.75685076594E+03  0.83628574995E+03  0.00000000000E+00 0. -1.
        -12    1    5    5    0    0 -0.26923671360E+02 -0.88175333423E+02  0.11726317004E+03  0.14916576200E+03  0.00000000000E+00 0.  1.
         13    1    3    3    0    0 -0.87175000094E+02  0.14690223538E+03  0.30838606971E+02  0.17358216233E+03  0.00000000000E+00 0. -1.
        -14    1    3    3    0    0 -0.10894537069E+03  0.41549971511E+03  0.12775821514E+03  0.44814201833E+03  0.00000000000E+00 0.  1.
          4    1    6    6  502    0  0.16103223621E+03 -0.74804089695E+02  0.84697070768E+02  0.19672474865E+03  0.00000000000E+00 0. -1.
         -3    1    6    6    0  502  0.14175602113E+03 -0.52735876613E+02  0.16283504897E+03  0.22224107493E+03  0.00000000000E+00 0.  1.
<mgrwt>
<rscale>  0 0.68855308E+03</rscale>
<asrwt>0</asrwt>
<pdfrwt beam="1">  1        1 0.25433726E+00 0.68855308E+03</pdfrwt>
<pdfrwt beam="2">  1       -2 0.57376819E-01 0.68855308E+03</pdfrwt>
<totfact> 0.13368553E+01</totfact>
</mgrwt>
</event>
<event>
12    3  0.2269558E-007  0.2747590E+03  0.7818608E-02  0.1098586E+00
         -2   -1    0    0    0  501 -0.00000000000E+00  0.00000000000E+00  0.22384157729E+03  0.22384157729E+03  0.00000000000E+00 0.  1.
          1   -1    0    0  501    0  0.00000000000E+00 -0.00000000000E+00 -0.77177937791E+03  0.77177937791E+03  0.00000000000E+00 0. -1.
        -24    2    1    2    0    0  0.13856612317E+03  0.34050485526E+02 -0.27770229044E+03  0.32241202664E+03  0.80442195097E+02 0.  0.
    5000000    2    1    2    0    0 -0.13856612317E+03 -0.34050485526E+02 -0.27023551017E+03  0.67320892856E+03  0.59985250228E+03 0.  0.
        -24    2    4    4    0    0 -0.25754008805E+03 -0.39593410056E+01 -0.39709804571E+03  0.48010578219E+03  0.80449554681E+02 0.  0.
         24    2    4    4    0    0  0.11897396488E+03 -0.30091144520E+02  0.12686253554E+03  0.19310314638E+03  0.78322671812E+02 0.  0.
         11    1    3    3    0    0  0.87101717152E+02  0.61343988741E+01 -0.23277308118E+03  0.24861143839E+03  0.00000000000E+00 0. -1.
        -12    1    3    3    0    0  0.51464406014E+02  0.27916086651E+02 -0.44929209268E+02  0.73800588248E+02  0.00000000000E+00 0.  1.
         11    1    5    5    0    0 -0.85858824905E+02 -0.39517072029E+02 -0.13964908725E+03  0.16862741286E+03  0.00000000000E+00 0. -1.
        -12    1    5    5    0    0 -0.17168126314E+03  0.35557731023E+02 -0.25744895846E+03  0.31147836933E+03  0.00000000000E+00 0.  1.
          2    1    6    6  502    0  0.68592260625E+02  0.10139571157E+02  0.10339425717E+03  0.12449129101E+03  0.00000000000E+00 0. -1.
         -1    1    6    6    0  502  0.50381704258E+02 -0.40230715677E+02  0.23468278365E+02  0.68611855370E+02  0.00000000000E+00 0.  1.
<mgrwt>
<rscale>  0 0.27475899E+03</rscale>
<asrwt>0</asrwt>
<pdfrwt beam="1">  1        1 0.11873529E+00 0.27475899E+03</pdfrwt>
<pdfrwt beam="2">  1       -2 0.34437165E-01 0.27475899E+03</pdfrwt>
<totfact> 0.17107957E+02</totfact>
</mgrwt>
</event>
<event>
12    3  0.2269558E-007  0.2415948E+03  0.7818608E-02  0.1118735E+00
          1   -1    0    0  501    0  0.00000000000E+00  0.00000000000E+00  0.72593594152E+03  0.72593594152E+03  0.00000000000E+00 0. -1.
         -2   -1    0    0    0  501 -0.00000000000E+00 -0.00000000000E+00 -0.21433048693E+03  0.21433048693E+03  0.00000000000E+00 0.  1.
        -24    2    1    2    0    0  0.14074910888E+03  0.35326036806E+02  0.15667764345E+03  0.22826418739E+03  0.80612745645E+02 0.  0.
    5000000    2    1    2    0    0 -0.14074910888E+03 -0.35326036806E+02  0.35492781114E+03  0.71200224105E+03  0.59992932885E+03 0.  0.
        -24    2    4    4    0    0  0.82228369599E+02 -0.38338561340E+01  0.44277219367E+03  0.45741165460E+03  0.80012518120E+02 0.  0.
         24    2    4    4    0    0 -0.22297747848E+03 -0.31492180672E+02 -0.87844382535E+02  0.25459058645E+03  0.79931331863E+02 0.  0.
         11    1    5    5    0    0  0.90390995355E+02 -0.18895807725E+02  0.41170192986E+03  0.42193134826E+03  0.00000000000E+00 0. -1.
        -12    1    5    5    0    0 -0.81626257563E+01  0.15061951590E+02  0.31070263811E+02  0.35480306343E+02  0.00000000000E+00 0.  1.
         13    1    3    3    0    0  0.61380655926E+02  0.30645835010E+02  0.12517753010E+03  0.14274510908E+03  0.00000000000E+00 0. -1.
        -14    1    3    3    0    0  0.79368452957E+02  0.46802017952E+01  0.31500113352E+02  0.85519078309E+02  0.00000000000E+00 0.  1.
          2    1    6    6  502    0 -0.20230577446E+03 -0.24525535239E+02 -0.10269595826E+03  0.22820076271E+03  0.00000000000E+00 0. -1.
         -1    1    6    6    0  502 -0.20671704024E+02 -0.69666454331E+01  0.14851575722E+02  0.26389823744E+02  0.00000000000E+00 0.  1.
<mgrwt>
<rscale>  0 0.24159481E+03</rscale>
<asrwt>0</asrwt>
<pdfrwt beam="1">  1        1 0.11168245E+00 0.24159481E+03</pdfrwt>
<pdfrwt beam="2">  1       -2 0.32973922E-01 0.24159481E+03</pdfrwt>
<totfact> 0.20419693E+02</totfact>
</mgrwt>
</event>
<event>
12    3  0.2269558E-007  0.7806734E+03  0.7818608E-02  0.9588421E-01
          1   -1    0    0  501    0  0.00000000000E+00  0.00000000000E+00  0.15654164733E+04  0.15654164733E+04  0.00000000000E+00 0. -1.
         -2   -1    0    0    0  501 -0.00000000000E+00 -0.00000000000E+00 -0.42881381680E+03  0.42881381680E+03  0.00000000000E+00 0.  1.
        -24    2    1    2    0    0  0.57740164769E+03  0.40280307445E+03  0.41561422986E+03  0.82150350525E+03  0.80559552773E+02 0.  0.
    5000000    2    1    2    0    0 -0.57740164769E+03 -0.40280307445E+03  0.72098842665E+03  0.11727267849E+04  0.59985066558E+03 0.  0.
        -24    2    4    4    0    0 -0.23003085710E+01 -0.25771373039E+03  0.51218819178E+02  0.27466125360E+03  0.79961106435E+02 0.  0.
         24    2    4    4    0    0 -0.57510133912E+03 -0.14508934406E+03  0.66976960748E+03  0.89806553125E+03  0.78344772032E+02 0.  0.
         11    1    5    5    0    0  0.10777304663E+02 -0.83083429427E+02  0.53721830963E+02  0.99524075797E+02  0.00000000000E+00 0. -1.
        -12    1    5    5    0    0 -0.13077613234E+02 -0.17463030096E+03 -0.25030117858E+01  0.17513717780E+03  0.00000000000E+00 0.  1.
         11    1    3    3    0    0  0.22148343251E+03  0.19260027788E+03  0.20113980036E+03  0.35581877017E+03  0.00000000000E+00 0. -1.
        -12    1    3    3    0    0  0.35591821518E+03  0.21020279656E+03  0.21447442950E+03  0.46568473508E+03  0.00000000000E+00 0.  1.
          4    1    6    6  502    0 -0.63149736678E+02 -0.33972465228E+02  0.11079393745E+03  0.13197467261E+03  0.00000000000E+00 0. -1.
         -3    1    6    6    0  502 -0.51195160244E+03 -0.11111687883E+03  0.55897567003E+03  0.76609085864E+03  0.00000000000E+00 0.  1.
<mgrwt>
<rscale>  0 0.78067341E+03</rscale>
<asrwt>0</asrwt>
<pdfrwt beam="1">  1        1 0.24083330E+00 0.78067341E+03</pdfrwt>
<pdfrwt beam="2">  1       -2 0.65971357E-01 0.78067341E+03</pdfrwt>
<totfact> 0.11255792E+01</totfact>
</mgrwt>
</event>
<event>
12    3  0.3384546E-007  0.7762326E+03  0.7818608E-02  0.9595071E-01
          1   -1    0    0  501    0  0.00000000000E+00  0.00000000000E+00  0.10653575250E+04  0.10653575250E+04  0.00000000000E+00 0. -1.
         -2   -1    0    0    0  501 -0.00000000000E+00 -0.00000000000E+00 -0.73164037302E+03  0.73164037302E+03  0.00000000000E+00 0.  1.
        -24    2    1    2    0    0  0.62739323935E+03 -0.43543902054E+03  0.30409624969E+03  0.82529119660E+03  0.73495664608E+02 0.  0.
    5000000    2    1    2    0    0 -0.62739323935E+03  0.43543902054E+03  0.29620902260E+02  0.97170670140E+03  0.60008924194E+03 0.  0.
        -24    2    4    4    0    0 -0.51720030552E+03  0.30602492228E+03 -0.23188329333E+03  0.64876691813E+03  0.77338497870E+02 0.  0.
         24    2    4    4    0    0 -0.11019293383E+03  0.12941409826E+03  0.26150419559E+03  0.32293978326E+03  0.83756598606E+02 0.  0.
         13    1    3    3    0    0  0.18317318181E+03 -0.15289006927E+03  0.66460701649E+02  0.24767884989E+03  0.00000000000E+00 0. -1.
        -14    1    3    3    0    0  0.44422005753E+03 -0.28254895127E+03  0.23763554804E+03  0.57761234671E+03  0.00000000000E+00 0.  1.
         13    1    5    5    0    0 -0.34424913170E+03  0.16180765827E+03 -0.13510709666E+03  0.40366212421E+03  0.00000000000E+00 0. -1.
        -14    1    5    5    0    0 -0.17295117381E+03  0.14421726401E+03 -0.96776196666E+02  0.24510479392E+03  0.00000000000E+00 0.  1.
          4    1    6    6  502    0 -0.11764802106E+03  0.11009768526E+03  0.19323326209E+03  0.25159819303E+03  0.00000000000E+00 0. -1.
         -3    1    6    6    0  502  0.74550872231E+01  0.19316412999E+02  0.68270933494E+02  0.71341590231E+02  0.00000000000E+00 0.  1.
<mgrwt>
<rscale>  0 0.77623265E+03</rscale>
<asrwt>0</asrwt>
<pdfrwt beam="1">  1        1 0.16390116E+00 0.77623265E+03</pdfrwt>
<pdfrwt beam="2">  1       -2 0.11256006E+00 0.77623265E+03</pdfrwt>
<totfact> 0.74995578E+00</totfact>
</mgrwt>
</event>
<event>
12    3  0.2269558E-007  0.6510349E+03  0.7818608E-02  0.9804839E-01
         -2   -1    0    0    0  501 -0.00000000000E+00  0.00000000000E+00  0.64880295094E+03  0.64880295094E+03  0.00000000000E+00 0.  1.
          1   -1    0    0  501    0  0.00000000000E+00 -0.00000000000E+00 -0.68346350013E+03  0.68346350013E+03  0.00000000000E+00 0. -1.
        -24    2    1    2    0    0 -0.46576219935E+03  0.22313072374E+03 -0.12021951097E+03  0.53608466038E+03  0.78818056665E+02 0.  0.
    5000000    2    1    2    0    0  0.46576219935E+03 -0.22313072374E+03  0.85558961784E+02  0.79618179069E+03  0.59988612391E+03 0.  0.
        -24    2    4    4    0    0  0.35461801124E+03 -0.41677166405E+03  0.38869441231E+02  0.55429659167E+03  0.79254805710E+02 0.  0.
         24    2    4    4    0    0  0.11114418812E+03  0.19364094031E+03  0.46689520552E+02  0.24188519902E+03  0.80490333931E+02 0.  0.
         13    1    5    5    0    0  0.28981079741E+03 -0.35180404439E+03  0.61093279872E+02  0.45987908497E+03  0.00000000000E+00 0. -1.
        -14    1    5    5    0    0  0.64807213821E+02 -0.64967619655E+02 -0.22223838641E+02  0.94417506697E+02  0.00000000000E+00 0.  1.
         13    1    3    3    0    0 -0.28929015767E+03  0.12362058697E+03 -0.35879934936E+02  0.31663577590E+03  0.00000000000E+00 0. -1.
        -14    1    3    3    0    0 -0.17647204168E+03  0.99510136761E+02 -0.84339576038E+02  0.21944888448E+03  0.00000000000E+00 0.  1.
          4    1    6    6  502    0  0.29554092619E+01  0.81269708825E+02  0.14322141012E+02  0.82574958308E+02  0.00000000000E+00 0. -1.
         -3    1    6    6    0  502  0.10818877886E+03  0.11237123149E+03  0.32367379540E+02  0.15931024071E+03  0.00000000000E+00 0.  1.
<mgrwt>
<rscale>  0 0.65103490E+03</rscale>
<asrwt>0</asrwt>
<pdfrwt beam="1">  1        1 0.10514823E+00 0.65103490E+03</pdfrwt>
<pdfrwt beam="2">  1       -2 0.99815839E-01 0.65103490E+03</pdfrwt>
<totfact> 0.21137053E+01</totfact>
</mgrwt>
</event>
<event>
12    3  0.2269558E-007  0.4351957E+03  0.7818608E-02  0.1032231E+00
         -2   -1    0    0    0  501 -0.00000000000E+00  0.00000000000E+00  0.79340867803E+03  0.79340867803E+03  0.00000000000E+00 0.  1.
          1   -1    0    0  501    0  0.00000000000E+00 -0.00000000000E+00 -0.44486800912E+03  0.44486800912E+03  0.00000000000E+00 0. -1.
        -24    2    1    2    0    0 -0.25291314078E+03 -0.58719477435E+02 -0.23688705782E+03  0.36067984113E+03  0.81002690234E+02 0.  0.
    5000000    2    1    2    0    0  0.25291314078E+03  0.58719477435E+02  0.58542772673E+03  0.87759684602E+03  0.60003130510E+03 0.  0.
        -24    2    4    4    0    0  0.12284276508E+03  0.30070772247E+03  0.45386766685E+03  0.56360783622E+03  0.78373814198E+02 0.  0.
         24    2    4    4    0    0  0.13007037570E+03 -0.24198824504E+03  0.13156005988E+03  0.31398900980E+03  0.76186846277E+02 0.  0.
         11    1    3    3    0    0 -0.10338466068E+03 -0.11149216708E+02 -0.46346371819E+02  0.11384497915E+03  0.00000000000E+00 0. -1.
        -12    1    3    3    0    0 -0.14952848011E+03 -0.47570260727E+02 -0.19054068601E+03  0.24683486199E+03  0.00000000000E+00 0.  1.
         13    1    5    5    0    0  0.57744209245E+02  0.17195803283E+03  0.31422120133E+03  0.36282078513E+03  0.00000000000E+00 0. -1.
        -14    1    5    5    0    0  0.65098555835E+02  0.12874968964E+03  0.13964646552E+03  0.20078705110E+03  0.00000000000E+00 0.  1.
          4    1    6    6  502    0  0.10174909781E+03 -0.11425880377E+03  0.85629340981E+02  0.17532922512E+03  0.00000000000E+00 0. -1.
         -3    1    6    6    0  502  0.28321277892E+02 -0.12772944127E+03  0.45930718902E+02  0.13865978468E+03  0.00000000000E+00 0.  1.
<mgrwt>
<rscale>  0 0.43519570E+03</rscale>
<asrwt>0</asrwt>
<pdfrwt beam="1">  1        1 0.68441232E-01 0.43519570E+03</pdfrwt>
<pdfrwt beam="2">  1       -2 0.12206287E+00 0.43519570E+03</pdfrwt>
<totfact> 0.24332023E+01</totfact>
</mgrwt>
</event>
<event>
12    3  0.2269558E-007  0.9437378E+03  0.7818608E-02  0.9372500E-01
         -2   -1    0    0    0  501 -0.00000000000E+00  0.00000000000E+00  0.38929187151E+03  0.38929187151E+03  0.00000000000E+00 0.  1.
          1   -1    0    0  501    0  0.00000000000E+00 -0.00000000000E+00 -0.24148804386E+04  0.24148804386E+04  0.00000000000E+00 0. -1.
        -24    2    1    2    0    0  0.82672099436E+03  0.27728479917E+03 -0.81875363329E+03  0.11989242402E+04  0.81898470300E+02 0.  0.
    5000000    2    1    2    0    0 -0.82672099436E+03 -0.27728479917E+03 -0.12068349338E+04  0.16052480699E+04  0.60001362154E+03 0.  0.
        -24    2    4    4    0    0 -0.34152592996E+02 -0.19980212011E+03 -0.10112018785E+03  0.24030311295E+03  0.80206027772E+02 0.  0.
         24    2    4    4    0    0 -0.79256840136E+03 -0.77482679059E+02 -0.11057147459E+04  0.13649449569E+04  0.79381355729E+02 0.  0.
         11    1    5    5    0    0 -0.57197213946E+02 -0.15661551272E+03 -0.92262206798E+02  0.19055774692E+03  0.00000000000E+00 0. -1.
        -12    1    5    5    0    0  0.23044620950E+02 -0.43186607391E+02 -0.88579810506E+01  0.49745366025E+02  0.00000000000E+00 0.  1.
         13    1    3    3    0    0  0.18249599909E+03  0.35230009515E+02 -0.20613956390E+03  0.27755983690E+03  0.00000000000E+00 0. -1.
        -14    1    3    3    0    0  0.64422499527E+03  0.24205478966E+03 -0.61261406939E+03  0.92136440333E+03  0.00000000000E+00 0.  1.
          2    1    6    6  502    0 -0.30359261408E+03 -0.52639248674E+02 -0.37471524599E+03  0.48512975728E+03  0.00000000000E+00 0. -1.
         -1    1    6    6    0  502 -0.48897578728E+03 -0.24843430385E+02 -0.73099949996E+03  0.87981519964E+03  0.00000000000E+00 0.  1.
<mgrwt>
<rscale>  0 0.94373781E+03</rscale>
<asrwt>0</asrwt>
<pdfrwt beam="1">  1        1 0.37152007E+00 0.94373781E+03</pdfrwt>
<pdfrwt beam="2">  1       -2 0.59891056E-01 0.94373781E+03</pdfrwt>
<totfact> 0.36214621E+00</totfact>
</mgrwt>
</event>
<event>
12    3  0.2269558E-007  0.7403261E+03  0.7818608E-02  0.9650651E-01
          1   -1    0    0  501    0  0.00000000000E+00  0.00000000000E+00  0.74629077839E+03  0.74629077839E+03  0.00000000000E+00 0. -1.
         -2   -1    0    0    0  501 -0.00000000000E+00 -0.00000000000E+00 -0.74538340011E+03  0.74538340011E+03  0.00000000000E+00 0.  1.
        -24    2    1    2    0    0 -0.47469477023E+03  0.40165555673E+03 -0.26691388407E+02  0.62751040943E+03  0.79966071542E+02 0.  0.
    5000000    2    1    2    0    0  0.47469477023E+03 -0.40165555673E+03  0.27598766689E+02  0.86416376908E+03  0.59946227298E+03 0.  0.
        -24    2    4    4    0    0  0.43447391854E+03 -0.53967248146E+03  0.52308174815E+02  0.69891522313E+03  0.75712421881E+02 0.  0.
         24    2    4    4    0    0  0.40220851687E+02  0.13801692473E+03 -0.24709408125E+02  0.16524854595E+03  0.77653967481E+02 0.  0.
         11    1    5    5    0    0  0.34185026218E+03 -0.44315167843E+03  0.69737198189E+02  0.56401089410E+03  0.00000000000E+00 0. -1.
        -12    1    5    5    0    0  0.92623656359E+02 -0.96520803032E+02 -0.17429023375E+02  0.13490432903E+03  0.00000000000E+00 0.  1.
         11    1    3    3    0    0 -0.30423745192E+03  0.29098991432E+03 -0.45331066549E+02  0.42342704564E+03  0.00000000000E+00 0. -1.
        -12    1    3    3    0    0 -0.17045731831E+03  0.11066564241E+03  0.18639678142E+02  0.20408336379E+03  0.00000000000E+00 0.  1.
          2    1    6    6  502    0  0.47563709947E+02  0.33452488617E+02 -0.14502914387E+02  0.59930877052E+02  0.00000000000E+00 0. -1.
         -1    1    6    6    0  502 -0.73428582595E+01  0.10456443612E+03 -0.10206493738E+02  0.10531766890E+03  0.00000000000E+00 0.  1.
<mgrwt>
<rscale>  0 0.74032605E+03</rscale>
<asrwt>0</asrwt>
<pdfrwt beam="1">  1        1 0.11481397E+00 0.74032605E+03</pdfrwt>
<pdfrwt beam="2">  1       -2 0.11467437E+00 0.74032605E+03</pdfrwt>
<totfact> 0.13118998E+01</totfact>
</mgrwt>
</event>
<event>
12    3  0.2269558E-007  0.7886022E+03  0.7818608E-02  0.9576663E-01
          1   -1    0    0  501    0  0.00000000000E+00  0.00000000000E+00  0.44243805135E+04  0.44243805135E+04  0.00000000000E+00 0. -1.
         -2   -1    0    0    0  501 -0.00000000000E+00 -0.00000000000E+00 -0.20767096256E+03  0.20767096256E+03  0.00000000000E+00 0.  1.
        -24    2    1    2    0    0 -0.67338310913E+03 -0.18028976561E+03  0.31332342339E+04  0.32108738373E+04  0.81270062953E+02 0.  0.
    5000000    2    1    2    0    0  0.67338310913E+03  0.18028976561E+03  0.10834753170E+04  0.14211776387E+04  0.59989824725E+03 0.  0.
        -24    2    4    4    0    0  0.43254739760E+03  0.36292055641E+03  0.49644466640E+03  0.75612533344E+03  0.80371833563E+02 0.  0.
         24    2    4    4    0    0  0.24083571153E+03 -0.18263079080E+03  0.58703065056E+03  0.66505230527E+03  0.79584787203E+02 0.  0.
         13    1    3    3    0    0 -0.35225696001E+03 -0.12818105881E+03  0.17863856177E+04  0.18252914630E+04  0.00000000000E+00 0. -1.
        -14    1    3    3    0    0 -0.32112614912E+03 -0.52108706798E+02  0.13468486162E+04  0.13855823743E+04  0.00000000000E+00 0.  1.
         13    1    5    5    0    0  0.27772802426E+03  0.25103536004E+03  0.37433894023E+03  0.52941595142E+03  0.00000000000E+00 0. -1.
        -14    1    5    5    0    0  0.15481937334E+03  0.11188519637E+03  0.12210572617E+03  0.22670938201E+03  0.00000000000E+00 0.  1.
          4    1    6    6  502    0  0.24526891579E+03 -0.17045998446E+03  0.55076000292E+03  0.62653812986E+03  0.00000000000E+00 0. -1.
         -3    1    6    6    0  502 -0.44332042665E+01 -0.12170806345E+02  0.36270647642E+02  0.38514175410E+02  0.00000000000E+00 0.  1.
<mgrwt>
<rscale>  0 0.78860219E+03</rscale>
<asrwt>0</asrwt>
<pdfrwt beam="1">  1        1 0.68067386E+00 0.78860219E+03</pdfrwt>
<pdfrwt beam="2">  1       -2 0.31949382E-01 0.78860219E+03</pdfrwt>
<totfact> 0.34306374E-01</totfact>
</mgrwt>
</event>
<event>
12    3  0.2269558E-007  0.2805995E+03  0.7818608E-02  0.1095362E+00
          1   -1    0    0  501    0  0.00000000000E+00  0.00000000000E+00  0.12810045419E+04  0.12810045419E+04  0.00000000000E+00 0. -1.
         -2   -1    0    0    0  501 -0.00000000000E+00 -0.00000000000E+00 -0.12553483770E+03  0.12553483770E+03  0.00000000000E+00 0.  1.
        -24    2    1    2    0    0 -0.11280085337E+03  0.31069738146E+02  0.62503551051E+02  0.15446730347E+03  0.79146021997E+02 0.  0.
    5000000    2    1    2    0    0  0.11280085337E+03 -0.31069738146E+02  0.10929661532E+04  0.12520720762E+04  0.59951656421E+03 0.  0.
        -24    2    4    4    0    0  0.18224234940E+03  0.15314019812E+03  0.16679013769E+03  0.30183312877E+03  0.81363956362E+02 0.  0.
         24    2    4    4    0    0 -0.69441496028E+02 -0.18420993627E+03  0.92617601550E+03  0.95023894741E+03  0.79978894086E+02 0.  0.
         11    1    5    5    0    0  0.16191816660E+03  0.11649903135E+03  0.16665946065E+03  0.25993247739E+03  0.00000000000E+00 0. -1.
        -12    1    5    5    0    0  0.20324182800E+02  0.36641166773E+02  0.13067704169E+00  0.41900651372E+02  0.00000000000E+00 0.  1.
         11    1    3    3    0    0 -0.85335939568E+02  0.19151185865E+02  0.81057574637E+02  0.11924479405E+03  0.00000000000E+00 0. -1.
        -12    1    3    3    0    0 -0.27464913802E+02  0.11918552281E+02 -0.18554023586E+02  0.35222509421E+02  0.00000000000E+00 0.  1.
          2    1    6    6  502    0 -0.13005712042E+02 -0.10130720663E+03  0.61140030963E+03  0.61987308159E+03  0.00000000000E+00 0. -1.
         -1    1    6    6    0  502 -0.56435783986E+02 -0.82902729638E+02  0.31477570587E+03  0.33036586582E+03  0.00000000000E+00 0.  1.
<mgrwt>
<rscale>  0 0.28059953E+03</rscale>
<asrwt>0</asrwt>
<pdfrwt beam="1">  1        1 0.19707761E+00 0.28059953E+03</pdfrwt>
<pdfrwt beam="2">  1       -2 0.19313053E-01 0.28059953E+03</pdfrwt>
<totfact> 0.19838868E+02</totfact>
</mgrwt>
</event>
<event>
12    3  0.2269558E-007  0.5156030E+03  0.7818608E-02  0.1009785E+00
          1   -1    0    0  501    0  0.00000000000E+00  0.00000000000E+00  0.31617741886E+03  0.31617741886E+03  0.00000000000E+00 0. -1.
         -2   -1    0    0    0  501 -0.00000000000E+00 -0.00000000000E+00 -0.89278833453E+03  0.89278833453E+03  0.00000000000E+00 0.  1.
        -24    2    1    2    0    0 -0.28437863347E+02 -0.35428950896E+03 -0.22422155153E+03  0.42769258036E+03  0.79472453713E+02 0.  0.
    5000000    2    1    2    0    0  0.28437863347E+02  0.35428950896E+03 -0.35238936415E+03  0.78127317303E+03  0.59989977388E+03 0.  0.
        -24    2    4    4    0    0 -0.26233891722E+03  0.84720949080E+02 -0.10013298643E+03  0.30462961232E+03  0.82299690326E+02 0.  0.
         24    2    4    4    0    0  0.29077678057E+03  0.26956855988E+03 -0.25225637771E+03  0.47664356071E+03  0.79608160848E+02 0.  0.
         11    1    5    5    0    0 -0.18199520515E+03  0.74880270030E+02 -0.33161854869E+02  0.19957208762E+03  0.00000000000E+00 0. -1.
        -12    1    5    5    0    0 -0.80343712070E+02  0.98406790500E+01 -0.66971131564E+02  0.10505752470E+03  0.00000000000E+00 0.  1.
         11    1    3    3    0    0 -0.10628303685E+02 -0.25777982826E+03 -0.20044743748E+03  0.32671482349E+03  0.00000000000E+00 0. -1.
        -12    1    3    3    0    0 -0.17809559662E+02 -0.96509680703E+02 -0.23774114045E+02  0.10097775687E+03  0.00000000000E+00 0.  1.
          4    1    6    6  502    0  0.12472659396E+03  0.98601670502E+02 -0.58239527123E+02  0.16932470341E+03  0.00000000000E+00 0. -1.
         -3    1    6    6    0  502  0.16605018662E+03  0.17096688938E+03 -0.19401685059E+03  0.30731885730E+03  0.00000000000E+00 0.  1.
<mgrwt>
<rscale>  0 0.51560297E+03</rscale>
<asrwt>0</asrwt>
<pdfrwt beam="1">  1        1 0.48642680E-01 0.51560297E+03</pdfrwt>
<pdfrwt beam="2">  1       -2 0.13735205E+00 0.51560297E+03</pdfrwt>
<totfact> 0.27977239E+01</totfact>
</mgrwt>
</event>
<event>
12    3  0.2269558E-007  0.8384135E+03  0.7818608E-02  0.9506021E-01
         -4   -1    0    0    0  501 -0.00000000000E+00  0.00000000000E+00  0.56996149634E+03  0.56996149634E+03  0.00000000000E+00 0.  1.
          3   -1    0    0  501    0  0.00000000000E+00 -0.00000000000E+00 -0.16527383394E+04  0.16527383394E+04  0.00000000000E+00 0. -1.
        -24    2    1    2    0    0  0.60519096562E+02 -0.74124281147E+03 -0.10200105057E+04  0.12648973631E+04  0.80252357493E+02 0.  0.
    5000000    2    1    2    0    0 -0.60519096562E+02  0.74124281147E+03 -0.62766337382E+02  0.95780247265E+03  0.60028534622E+03 0.  0.
        -24    2    4    4    0    0 -0.29664405196E+03  0.29752813347E+03 -0.12272468363E+03  0.44511299897E+03  0.80892212876E+02 0.  0.
         24    2    4    4    0    0  0.23612495540E+03  0.44371467800E+03  0.59958346246E+02  0.51268947368E+03  0.81349757825E+02 0.  0.
         13    1    5    5    0    0 -0.19251066402E+03  0.15443856077E+03 -0.10155913343E+03  0.26688177607E+03  0.00000000000E+00 0. -1.
        -14    1    5    5    0    0 -0.10413338794E+03  0.14308957270E+03 -0.21165550200E+02  0.17823122290E+03  0.00000000000E+00 0.  1.
         13    1    3    3    0    0  0.60761421973E+02 -0.35099103335E+03 -0.52766985897E+03  0.63664914667E+03  0.00000000000E+00 0. -1.
        -14    1    3    3    0    0 -0.24232541133E+00 -0.39025177812E+03 -0.49234064673E+03  0.62824821645E+03  0.00000000000E+00 0.  1.
          2    1    6    6  502    0  0.74074039703E+02  0.83607606098E+02 -0.80318153666E+01  0.11198975495E+03  0.00000000000E+00 0. -1.
         -1    1    6    6    0  502  0.16205091570E+03  0.36010707191E+03  0.67990161613E+02  0.40069971873E+03  0.00000000000E+00 0.  1.
<mgrwt>
<rscale>  0 0.83841347E+03</rscale>
<asrwt>0</asrwt>
<pdfrwt beam="1">  1        3 0.25426743E+00 0.83841347E+03</pdfrwt>
<pdfrwt beam="2">  1       -4 0.87686385E-01 0.83841347E+03</pdfrwt>
<totfact> 0.17727844E-01</totfact>
</mgrwt>
</event>
<event>
12    3  0.2269558E-007  0.6691809E+03  0.7818608E-02  0.9771439E-01
          1   -1    0    0  501    0  0.00000000000E+00  0.00000000000E+00  0.21574993807E+04  0.21574993807E+04  0.00000000000E+00 0. -1.
         -2   -1    0    0    0  501 -0.00000000000E+00 -0.00000000000E+00 -0.40482797275E+03  0.40482797275E+03  0.00000000000E+00 0.  1.
        -24    2    1    2    0    0 -0.49785521717E+03  0.21064226824E+03  0.16617368189E+04  0.17492778422E+04  0.79835652535E+02 0.  0.
    5000000    2    1    2    0    0  0.49785521717E+03 -0.21064226824E+03  0.90934589056E+02  0.81304951127E+03  0.60045851302E+03 0.  0.
        -24    2    4    4    0    0  0.14754562569E+03 -0.37508929896E+03  0.77017262355E+02  0.41803385556E+03  0.79743036319E+02 0.  0.
         24    2    4    4    0    0  0.35030959148E+03  0.16444703071E+03  0.13917326702E+02  0.39501565571E+03  0.78000259523E+02 0.  0.
         11    1    5    5    0    0  0.13305545629E+03 -0.25426589169E+03  0.34080986361E+02  0.28899206175E+03  0.00000000000E+00 0. -1.
        -12    1    5    5    0    0  0.14490169405E+02 -0.12082340727E+03  0.42936275994E+02  0.12904179381E+03  0.00000000000E+00 0.  1.
         11    1    3    3    0    0 -0.26027463582E+03  0.12970462086E+03  0.77727260135E+03  0.82989087929E+03  0.00000000000E+00 0. -1.
        -12    1    3    3    0    0 -0.23758058135E+03  0.80937647388E+02  0.88446421759E+03  0.91938696292E+03  0.00000000000E+00 0.  1.
          2    1    6    6  502    0  0.14411645049E+03  0.53246871776E+02 -0.30337699656E+02  0.15660509786E+03  0.00000000000E+00 0. -1.
         -1    1    6    6    0  502  0.20619314099E+03  0.11120015894E+03  0.44255026358E+02  0.23841055785E+03  0.00000000000E+00 0.  1.
<mgrwt>
<rscale>  0 0.66918089E+03</rscale>
<asrwt>0</asrwt>
<pdfrwt beam="1">  1        1 0.33192297E+00 0.66918089E+03</pdfrwt>
<pdfrwt beam="2">  1       -2 0.62281228E-01 0.66918089E+03</pdfrwt>
<totfact> 0.51934214E+00</totfact>
</mgrwt>
</event>
<event>
12    3  0.2269558E-007  0.4611117E+03  0.7818608E-02  0.1024459E+00
         -2   -1    0    0    0  501 -0.00000000000E+00  0.00000000000E+00  0.12737851171E+03  0.12737851171E+03  0.00000000000E+00 0.  1.
          1   -1    0    0  501    0  0.00000000000E+00 -0.00000000000E+00 -0.19079495839E+04  0.19079495839E+04  0.00000000000E+00 0. -1.
        -24    2    1    2    0    0  0.18331059604E+03 -0.20016115120E+03 -0.83013370137E+03  0.87902898701E+03  0.99512495662E+02 0.  0.
    5000000    2    1    2    0    0 -0.18331059604E+03  0.20016115120E+03 -0.95043737081E+03  0.11562991086E+04  0.60002430918E+03 0.  0.
        -24    2    4    4    0    0  0.20694198822E+03  0.11966804285E+03 -0.36728434401E+03  0.44544419510E+03  0.79858090567E+02 0.  0.
         24    2    4    4    0    0 -0.39025258426E+03  0.80493108354E+02 -0.58315302679E+03  0.71085491348E+03  0.80442745745E+02 0.  0.
         11    1    3    3    0    0  0.10629129609E+03 -0.10213970651E+03 -0.59390056093E+03  0.61192175607E+03  0.00000000000E+00 0. -1.
        -12    1    3    3    0    0  0.77019299956E+02 -0.98021444694E+02 -0.23623314043E+03  0.26710723095E+03  0.00000000000E+00 0.  1.
         13    1    5    5    0    0  0.12465022052E+02 -0.42070909777E+01 -0.17640416462E+01  0.13273591533E+02  0.00000000000E+00 0. -1.
        -14    1    5    5    0    0  0.19447696616E+03  0.12387513383E+03 -0.36552030237E+03  0.43217060357E+03  0.00000000000E+00 0.  1.
          2    1    6    6  502    0 -0.97181983185E+02 -0.14670078246E+02 -0.13470524054E+03  0.16674846590E+03  0.00000000000E+00 0. -1.
         -1    1    6    6    0  502 -0.29307060108E+03  0.95163186601E+02 -0.44844778626E+03  0.54410644758E+03  0.00000000000E+00 0.  1.
<mgrwt>
<rscale>  0 0.46111167E+03</rscale>
<asrwt>0</asrwt>
<pdfrwt beam="1">  1        1 0.29353066E+00 0.46111167E+03</pdfrwt>
<pdfrwt beam="2">  1       -2 0.19596697E-01 0.46111167E+03</pdfrwt>
<totfact> 0.71536547E+01</totfact>
</mgrwt>
</event>
<event>
12    3  0.2269558E-007  0.5670350E+03  0.7818608E-02  0.9976261E-01
          1   -1    0    0  501    0  0.00000000000E+00  0.00000000000E+00  0.29792077038E+03  0.29792077038E+03  0.00000000000E+00 0. -1.
         -2   -1    0    0    0  501 -0.00000000000E+00 -0.00000000000E+00 -0.14515822771E+04  0.14515822771E+04  0.00000000000E+00 0.  1.
        -24    2    1    2    0    0 -0.25857197804E+03 -0.39674883089E+03 -0.18392934440E+03  0.51474918860E+03  0.82871109503E+02 0.  0.
    5000000    2    1    2    0    0  0.25857197804E+03  0.39674883089E+03 -0.96973216233E+03  0.12347538589E+04  0.59997293501E+03 0.  0.
        -24    2    4    4    0    0  0.19004410091E+03 -0.54364624078E+02 -0.61297761001E+03  0.65022225366E+03  0.89303729680E+02 0.  0.
         24    2    4    4    0    0  0.68527877130E+02  0.45111345497E+03 -0.35675455232E+03  0.58453160523E+03  0.78765269725E+02 0.  0.
         11    1    5    5    0    0  0.33933572581E+02 -0.59728154119E+01 -0.24721523728E+03  0.24960475840E+03  0.00000000000E+00 0. -1.
        -12    1    5    5    0    0  0.15611052833E+03 -0.48391808666E+02 -0.36576237273E+03  0.40061749526E+03  0.00000000000E+00 0.  1.
         11    1    3    3    0    0 -0.13195140354E+03 -0.14991373185E+03 -0.10839387938E+03  0.22723233260E+03  0.00000000000E+00 0. -1.
        -12    1    3    3    0    0 -0.12662057451E+03 -0.24683509904E+03 -0.75535465020E+02  0.28751685600E+03  0.00000000000E+00 0.  1.
          4    1    6    6  502    0  0.13780933170E+02  0.25673316144E+03 -0.23746343551E+03  0.34998673333E+03  0.00000000000E+00 0. -1.
         -3    1    6    6    0  502  0.54746943960E+02  0.19438029353E+03 -0.11929111681E+03  0.23454487190E+03  0.00000000000E+00 0.  1.
<mgrwt>
<rscale>  0 0.56703502E+03</rscale>
<asrwt>0</asrwt>
<pdfrwt beam="1">  1        1 0.45833966E-01 0.56703502E+03</pdfrwt>
<pdfrwt beam="2">  1       -2 0.22332034E+00 0.56703502E+03</pdfrwt>
<totfact> 0.76407836E+00</totfact>
</mgrwt>
</event>
<event>
12    3  0.2269558E-007  0.7834373E+03  0.7818608E-02  0.9584305E-01
         -2   -1    0    0    0  501 -0.00000000000E+00  0.00000000000E+00  0.93166707497E+03  0.93166707497E+03  0.00000000000E+00 0.  1.
          1   -1    0    0  501    0  0.00000000000E+00 -0.00000000000E+00 -0.73617913102E+03  0.73617913102E+03  0.00000000000E+00 0. -1.
        -24    2    1    2    0    0 -0.47791617953E+03 -0.48220814461E+03  0.31951226017E+03  0.75328543706E+03  0.66500345049E+02 0.  0.
    5000000    2    1    2    0    0  0.47791617953E+03  0.48220814461E+03 -0.12402431622E+03  0.91456076893E+03  0.60009232595E+03 0.  0.
        -24    2    4    4    0    0  0.42191422938E+03  0.60859138660E+03 -0.74236603428E+02  0.74887542293E+03  0.83115780624E+02 0.  0.
         24    2    4    4    0    0  0.56001950156E+02 -0.12638324199E+03 -0.49787712790E+02  0.16568534600E+03  0.76575944388E+02 0.  0.
         13    1    3    3    0    0 -0.41551305151E+03 -0.44610968208E+03  0.27732317335E+03  0.66975599057E+03  0.00000000000E+00 0. -1.
        -14    1    3    3    0    0 -0.62403128023E+02 -0.36098462529E+02  0.42189086820E+02  0.83529446489E+02  0.00000000000E+00 0.  1.
         13    1    5    5    0    0  0.27241771389E+03  0.45515114927E+03 -0.65437587319E+02  0.53446801341E+03  0.00000000000E+00 0. -1.
        -14    1    5    5    0    0  0.14949651548E+03  0.15344023733E+03 -0.87990161088E+01  0.21440740952E+03  0.00000000000E+00 0.  1.
          2    1    6    6  502    0  0.10141217417E+02 -0.52768295406E+02  0.16845735658E+02  0.56312663768E+02  0.00000000000E+00 0. -1.
         -1    1    6    6    0  502  0.45860732739E+02 -0.73614946581E+02 -0.66633448447E+02  0.10937268224E+03  0.00000000000E+00 0.  1.
<mgrwt>
<rscale>  0 0.78343726E+03</rscale>
<asrwt>0</asrwt>
<pdfrwt beam="1">  1        1 0.11325833E+00 0.78343726E+03</pdfrwt>
<pdfrwt beam="2">  1       -2 0.14333340E+00 0.78343726E+03</pdfrwt>
<totfact> 0.75943690E+00</totfact>
</mgrwt>
</event>
<event>
12    3  0.2269558E-007  0.6018977E+03  0.7818608E-02  0.9901477E-01
         -2   -1    0    0    0  501 -0.00000000000E+00  0.00000000000E+00  0.10076663202E+04  0.10076663202E+04  0.00000000000E+00 0.  1.
          1   -1    0    0  501    0  0.00000000000E+00 -0.00000000000E+00 -0.42991957162E+03  0.42991957162E+03  0.00000000000E+00 0. -1.
        -24    2    1    2    0    0 -0.48379446697E+03  0.10035926726E+02  0.43154466291E+03  0.65306397085E+03  0.78127766135E+02 0.  0.
    5000000    2    1    2    0    0  0.48379446697E+03 -0.10035926726E+02  0.14620208570E+03  0.78452192101E+03  0.59995148852E+03 0.  0.
        -24    2    4    4    0    0  0.31981970840E+03  0.25278360423E+03  0.19541114481E+03  0.46115883103E+03  0.91092016525E+02 0.  0.
         24    2    4    4    0    0  0.16397475857E+03 -0.26281953095E+03 -0.49209059107E+02  0.32336308997E+03  0.78615069558E+02 0.  0.
         11    1    3    3    0    0 -0.28949855041E+03  0.84865644309E+01  0.20625334283E+03  0.35555853793E+03  0.00000000000E+00 0. -1.
        -12    1    3    3    0    0 -0.19429591656E+03  0.15493622953E+01  0.22529132007E+03  0.29750543292E+03  0.00000000000E+00 0.  1.
         11    1    5    5    0    0  0.11195514082E+03  0.63292499526E+02  0.21304214846E+02  0.13036013049E+03  0.00000000000E+00 0. -1.
        -12    1    5    5    0    0  0.20786456759E+03  0.18949110470E+03  0.17410692996E+03  0.33079870054E+03  0.00000000000E+00 0.  1.
          2    1    6    6  502    0  0.69224975526E+02 -0.10035720037E+03 -0.58156492062E+02  0.13507717228E+03  0.00000000000E+00 0. -1.
         -1    1    6    6    0  502  0.94749783041E+02 -0.16246233058E+03  0.89474329550E+01  0.18828591769E+03  0.00000000000E+00 0.  1.
<mgrwt>
<rscale>  0 0.60189773E+03</rscale>
<asrwt>0</asrwt>
<pdfrwt beam="1">  1        1 0.66141473E-01 0.60189773E+03</pdfrwt>
<pdfrwt beam="2">  1       -2 0.15502559E+00 0.60189773E+03</pdfrwt>
<totfact> 0.13524927E+01</totfact>
</mgrwt>
</event>
<event>
12    3  0.2269558E-007  0.3696962E+03  0.7818608E-02  0.1054809E+00
          1   -1    0    0  501    0  0.00000000000E+00  0.00000000000E+00  0.79663099566E+03  0.79663099566E+03  0.00000000000E+00 0. -1.
         -2   -1    0    0    0  501 -0.00000000000E+00 -0.00000000000E+00 -0.91502506203E+03  0.91502506203E+03  0.00000000000E+00 0.  1.
        -24    2    1    2    0    0  0.53358945186E+02 -0.34878405326E+03  0.60675046891E+03  0.70641401286E+03  0.79856954628E+02 0.  0.
    5000000    2    1    2    0    0 -0.53358945186E+02  0.34878405326E+03 -0.72514453528E+03  0.10052420448E+04  0.60014954705E+03 0.  0.
        -24    2    4    4    0    0  0.63087244335E+01  0.20687668343E+03 -0.78976873693E+03  0.82049591665E+03  0.81493123960E+02 0.  0.
         24    2    4    4    0    0 -0.59667669620E+02  0.14190736982E+03  0.64624201654E+02  0.18474612818E+03  0.79100644947E+02 0.  0.
         11    1    3    3    0    0 -0.19318163328E+02 -0.67033554264E+02  0.97309404735E+02  0.11973223911E+03  0.00000000000E+00 0. -1.
        -12    1    3    3    0    0  0.72677108514E+02 -0.28175049899E+03  0.50944106417E+03  0.58668177375E+03  0.00000000000E+00 0.  1.
         13    1    5    5    0    0 -0.90811648666E+01  0.22830107709E+02 -0.22404209788E+03  0.22538532116E+03  0.00000000000E+00 0. -1.
        -14    1    5    5    0    0  0.15389889300E+02  0.18404657572E+03 -0.56572663905E+03  0.59511059549E+03  0.00000000000E+00 0.  1.
          2    1    6    6  502    0 -0.75429258704E+02  0.10516927971E+03  0.32444688696E+02  0.13342716473E+03  0.00000000000E+00 0. -1.
         -1    1    6    6    0  502  0.15761589084E+02  0.36738090112E+02  0.32179512958E+02  0.51318963451E+02  0.00000000000E+00 0.  1.
<mgrwt>
<rscale>  0 0.36969616E+03</rscale>
<asrwt>0</asrwt>
<pdfrwt beam="1">  1        1 0.12255862E+00 0.36969616E+03</pdfrwt>
<pdfrwt beam="2">  1       -2 0.14077309E+00 0.36969616E+03</pdfrwt>
<totfact> 0.75280652E+00</totfact>
</mgrwt>
</event>
<event>
12    3  0.2269558E-007  0.6393122E+03  0.7818608E-02  0.9827043E-01
          1   -1    0    0  501    0  0.00000000000E+00  0.00000000000E+00  0.65966763493E+03  0.65966763493E+03  0.00000000000E+00 0. -1.
         -2   -1    0    0    0  501 -0.00000000000E+00 -0.00000000000E+00 -0.93278045507E+03  0.93278045507E+03  0.00000000000E+00 0.  1.
        -24    2    1    2    0    0 -0.16689939796E+03  0.60120327556E+03 -0.35644343958E+03  0.72292112481E+03  0.79134313023E+02 0.  0.
    5000000    2    1    2    0    0  0.16689939796E+03 -0.60120327556E+03  0.83330619433E+02  0.86952696518E+03  0.59986028661E+03 0.  0.
        -24    2    4    4    0    0 -0.24698242480E+02 -0.16749651282E+03  0.29080902287E+03  0.34597743374E+03  0.80407784959E+02 0.  0.
         24    2    4    4    0    0  0.19159764044E+03 -0.43370676274E+03 -0.20747840344E+03  0.52354953145E+03  0.79029185206E+02 0.  0.
         11    1    3    3    0    0 -0.16728948170E+02  0.96941488501E+02 -0.26509155346E+02  0.10188348844E+03  0.00000000000E+00 0. -1.
        -12    1    3    3    0    0 -0.15017044979E+03  0.50426178706E+03 -0.32993428423E+03  0.62103763637E+03  0.00000000000E+00 0.  1.
         13    1    5    5    0    0 -0.34614413365E+02 -0.15021905464E+03  0.19736377122E+03  0.25043238644E+03  0.00000000000E+00 0. -1.
        -14    1    5    5    0    0  0.99161708853E+01 -0.17277458185E+02  0.93445251648E+02  0.95545047291E+02  0.00000000000E+00 0.  1.
          2    1    6    6  502    0  0.67730536170E+02 -0.24584148333E+03 -0.12385920363E+03  0.28348996945E+03  0.00000000000E+00 0. -1.
         -1    1    6    6    0  502  0.12386710427E+03 -0.18786527942E+03 -0.83619199804E+02  0.24005956199E+03  0.00000000000E+00 0.  1.
<mgrwt>
<rscale>  0 0.63931221E+03</rscale>
<asrwt>0</asrwt>
<pdfrwt beam="1">  1        1 0.10148733E+00 0.63931221E+03</pdfrwt>
<pdfrwt beam="2">  1       -2 0.14350469E+00 0.63931221E+03</pdfrwt>
<totfact> 0.90884236E+00</totfact>
</mgrwt>
</event>
<event>
12    3  0.2269558E-007  0.1524239E+04  0.7818608E-02  0.8868492E-01
          1   -1    0    0  501    0  0.00000000000E+00  0.00000000000E+00  0.21674006964E+04  0.21674006964E+04  0.00000000000E+00 0. -1.
         -2   -1    0    0    0  501 -0.00000000000E+00 -0.00000000000E+00 -0.12578342231E+04  0.12578342231E+04  0.00000000000E+00 0.  1.
        -24    2    1    2    0    0  0.28950856467E+03 -0.14799039347E+04 -0.10102921637E+03  0.15133816515E+04  0.78652753479E+02 0.  0.
    5000000    2    1    2    0    0 -0.28950856467E+03  0.14799039347E+04  0.10105956897E+04  0.19118532680E+04  0.59995700288E+03 0.  0.
        -24    2    4    4    0    0 -0.31897975430E+03  0.10278403604E+04  0.96638212734E+03  0.14487053749E+04  0.81541136275E+02 0.  0.
         24    2    4    4    0    0  0.29471189631E+02  0.45206357424E+03  0.44213562381E+02  0.46314789312E+03  0.85563459671E+02 0.  0.
         11    1    3    3    0    0  0.21745915538E+03 -0.12352363351E+04 -0.66426724379E+02  0.12559895690E+04  0.00000000000E+00 0. -1.
        -12    1    3    3    0    0  0.72049409284E+02 -0.24466759959E+03 -0.34602491995E+02  0.25739208247E+03  0.00000000000E+00 0.  1.
         11    1    5    5    0    0 -0.30952842061E+03  0.93084105628E+03  0.86171130385E+03  0.13056872851E+04  0.00000000000E+00 0. -1.
        -12    1    5    5    0    0 -0.94513336899E+01  0.96999304162E+02  0.10467082349E+03  0.14301808979E+03  0.00000000000E+00 0.  1.
          2    1    6    6  502    0 -0.15866688369E+02  0.33292906835E+03  0.38874664501E+02  0.33556632115E+03  0.00000000000E+00 0. -1.
         -1    1    6    6    0  502  0.45337878000E+02  0.11913450589E+03  0.53388978799E+01  0.12758157197E+03  0.00000000000E+00 0.  1.
<mgrwt>
<rscale>  0 0.15242389E+04</rscale>
<asrwt>0</asrwt>
<pdfrwt beam="1">  1        1 0.33344626E+00 0.15242389E+04</pdfrwt>
<pdfrwt beam="2">  1       -2 0.19351296E+00 0.15242389E+04</pdfrwt>
<totfact> 0.27740424E-01</totfact>
</mgrwt>
</event>
<event>
12    3  0.2269558E-007  0.7322706E+03  0.7818608E-02  0.9663583E-01
         -2   -1    0    0    0  501 -0.00000000000E+00  0.00000000000E+00  0.52775306409E+03  0.52775306409E+03  0.00000000000E+00 0.  1.
          1   -1    0    0  501    0  0.00000000000E+00 -0.00000000000E+00 -0.13436277667E+04  0.13436277667E+04  0.00000000000E+00 0. -1.
        -24    2    1    2    0    0  0.69554093527E+03 -0.15128242686E+01 -0.61385653461E+03  0.93130163166E+03  0.81996358302E+02 0.  0.
    5000000    2    1    2    0    0 -0.69554093527E+03  0.15128242686E+01 -0.20201816801E+03  0.94007919914E+03  0.59929798863E+03 0.  0.
        -24    2    4    4    0    0 -0.16521323156E+03  0.12877903997E+03  0.16387058334E+03  0.27837518932E+03  0.82217546337E+02 0.  0.
         24    2    4    4    0    0 -0.53032770371E+03 -0.12726621570E+03 -0.36588875135E+03  0.66170400982E+03  0.80829791963E+02 0.  0.
         11    1    5    5    0    0 -0.86644597609E+02  0.29532752923E+02  0.35756781323E+02  0.98275211526E+02  0.00000000000E+00 0. -1.
        -12    1    5    5    0    0 -0.78568633954E+02  0.99246287047E+02  0.12811380201E+03  0.18009997779E+03  0.00000000000E+00 0.  1.
         11    1    3    3    0    0  0.63042294950E+03 -0.10932436509E+02 -0.52342456151E+03  0.81946682972E+03  0.00000000000E+00 0. -1.
        -12    1    3    3    0    0  0.65117985773E+02  0.94196122408E+01 -0.90431973101E+02  0.11183480194E+03  0.00000000000E+00 0.  1.
          2    1    6    6  502    0 -0.17279278299E+03 -0.71729048609E+01 -0.94774849627E+02  0.19720818579E+03  0.00000000000E+00 0. -1.
         -1    1    6    6    0  502 -0.35753492072E+03 -0.12009331084E+03 -0.27111390172E+03  0.46449582403E+03  0.00000000000E+00 0.  1.
<mgrwt>
<rscale>  0 0.73227060E+03</rscale>
<asrwt>0</asrwt>
<pdfrwt beam="1">  1        1 0.20671196E+00 0.73227060E+03</pdfrwt>
<pdfrwt beam="2">  1       -2 0.81192780E-01 0.73227060E+03</pdfrwt>
<totfact> 0.10190942E+01</totfact>
</mgrwt>
</event>
<event>
12    3  0.2269558E-007  0.9833359E+03  0.7818608E-02  0.9327013E-01
         -2   -1    0    0    0  501 -0.00000000000E+00  0.00000000000E+00  0.11009123472E+04  0.11009123472E+04  0.00000000000E+00 0.  1.
          1   -1    0    0  501    0  0.00000000000E+00 -0.00000000000E+00 -0.94188100702E+03  0.94188100702E+03  0.00000000000E+00 0. -1.
        -24    2    1    2    0    0 -0.12635183329E+03 -0.89630950040E+03  0.27818067560E+03  0.95030263034E+03  0.79718847654E+02 0.  0.
    5000000    2    1    2    0    0  0.12635183329E+03  0.89630950040E+03 -0.11914933541E+03  0.10924907239E+04  0.60000325946E+03 0.  0.
        -24    2    4    4    0    0 -0.14964248558E+03  0.69464238338E+03 -0.17861757513E+03  0.73698000203E+03  0.79463016372E+02 0.  0.
         24    2    4    4    0    0  0.27599431887E+03  0.20166711703E+03  0.59468239718E+02  0.35551072186E+03  0.77517170258E+02 0.  0.
         11    1    3    3    0    0  0.71684055313E+00 -0.68289910113E+02  0.23031160361E+01  0.68332496128E+02  0.00000000000E+00 0. -1.
        -12    1    3    3    0    0 -0.12706867384E+03 -0.82801959029E+03  0.27587755956E+03  0.88197013421E+03  0.00000000000E+00 0.  1.
         11    1    5    5    0    0 -0.73496636194E+02  0.33868962317E+03 -0.46207906152E+02  0.34963922401E+03  0.00000000000E+00 0. -1.
        -12    1    5    5    0    0 -0.76145849383E+02  0.35595276020E+03 -0.13240966898E+03  0.38734077801E+03  0.00000000000E+00 0.  1.
          2    1    6    6  502    0  0.17543618686E+03  0.81636497613E+02  0.41460946322E+02  0.19789235324E+03  0.00000000000E+00 0. -1.
         -1    1    6    6    0  502  0.10055813201E+03  0.12003061941E+03  0.18007293396E+02  0.15761836862E+03  0.00000000000E+00 0.  1.
<mgrwt>
<rscale>  0 0.98333594E+03</rscale>
<asrwt>0</asrwt>
<pdfrwt beam="1">  1        1 0.14490477E+00 0.98333594E+03</pdfrwt>
<pdfrwt beam="2">  1       -2 0.16937113E+00 0.98333594E+03</pdfrwt>
<totfact> 0.31683666E+00</totfact>
</mgrwt>
</event>
<event>
12    3  0.2269558E-007  0.8867715E+03  0.7818608E-02  0.9442270E-01
         -2   -1    0    0    0  501 -0.00000000000E+00  0.00000000000E+00  0.19730867074E+04  0.19730867074E+04  0.00000000000E+00 0.  1.
          1   -1    0    0  501    0  0.00000000000E+00 -0.00000000000E+00 -0.48665073999E+03  0.48665073999E+03  0.00000000000E+00 0. -1.
        -24    2    1    2    0    0 -0.80120446449E+03 -0.25308681396E+03  0.10278900373E+04  0.13299986773E+04  0.79730944074E+02 0.  0.
    5000000    2    1    2    0    0  0.80120446449E+03  0.25308681396E+03  0.45854593008E+03  0.11297387701E+04  0.60005315542E+03 0.  0.
        -24    2    4    4    0    0  0.17868126550E+03  0.25192518080E+03 -0.48666675050E+02  0.32277471253E+03  0.80135999587E+02 0.  0.
         24    2    4    4    0    0  0.62252319900E+03  0.11616331563E+01  0.50721260513E+03  0.80696405756E+03  0.79936729385E+02 0.  0.
         11    1    3    3    0    0 -0.45199812019E+03 -0.13194893564E+03  0.51513230057E+03  0.69790694893E+03  0.00000000000E+00 0. -1.
        -12    1    3    3    0    0 -0.34920634430E+03 -0.12113787832E+03  0.51275773672E+03  0.63209172833E+03  0.00000000000E+00 0.  1.
         13    1    5    5    0    0  0.53396258263E+02  0.51577885801E+02  0.19662163307E+02  0.76798693779E+02  0.00000000000E+00 0. -1.
        -14    1    5    5    0    0  0.12528500723E+03  0.20034729500E+03 -0.68328838357E+02  0.24597601875E+03  0.00000000000E+00 0.  1.
          4    1    6    6  502    0  0.21155175454E+03  0.42345131116E+00  0.12495841978E+03  0.24570089710E+03  0.00000000000E+00 0. -1.
         -3    1    6    6    0  502  0.41097144445E+03  0.73818184518E+00  0.38225418535E+03  0.56126316046E+03  0.00000000000E+00 0.  1.
<mgrwt>
<rscale>  0 0.88677152E+03</rscale>
<asrwt>0</asrwt>
<pdfrwt beam="1">  1        1 0.74869345E-01 0.88677152E+03</pdfrwt>
<pdfrwt beam="2">  1       -2 0.30355180E+00 0.88677152E+03</pdfrwt>
<totfact> 0.12492070E+00</totfact>
</mgrwt>
</event>
<event>
12    3  0.2269558E-007  0.9241501E+03  0.7818608E-02  0.9395886E-01
         -2   -1    0    0    0  501 -0.00000000000E+00  0.00000000000E+00  0.78602122516E+03  0.78602122516E+03  0.00000000000E+00 0.  1.
          1   -1    0    0  501    0  0.00000000000E+00 -0.00000000000E+00 -0.11987291231E+04  0.11987291231E+04  0.00000000000E+00 0. -1.
        -24    2    1    2    0    0  0.25592920237E+03  0.83600319468E+03 -0.24128598312E+03  0.91062826709E+03  0.81386835783E+02 0.  0.
    5000000    2    1    2    0    0 -0.25592920237E+03 -0.83600319468E+03 -0.17142191482E+03  0.10741220812E+04  0.59995972716E+03 0.  0.
        -24    2    4    4    0    0 -0.86367728384E+02 -0.76315136255E+03 -0.30748032045E+03  0.83100867582E+03  0.78561346419E+02 0.  0.
         24    2    4    4    0    0 -0.16956147398E+03 -0.72851832129E+02  0.13605840563E+03  0.24311340534E+03  0.80831647329E+02 0.  0.
         11    1    3    3    0    0  0.60758899288E+02  0.29114865900E+03 -0.53685949649E+02  0.30222734269E+03  0.00000000000E+00 0. -1.
        -12    1    3    3    0    0  0.19517030308E+03  0.54485453568E+03 -0.18760003347E+03  0.60840092440E+03  0.00000000000E+00 0.  1.
         11    1    5    5    0    0 -0.62171403619E+01 -0.33863899715E+03 -0.11106216850E+03  0.35644049784E+03  0.00000000000E+00 0. -1.
        -12    1    5    5    0    0 -0.80150588022E+02 -0.42451236540E+03 -0.19641815195E+03  0.47456817798E+03  0.00000000000E+00 0.  1.
          4    1    6    6  502    0  0.38427614922E+01  0.89088605379E+01  0.53191260875E+01  0.11064705794E+02  0.00000000000E+00 0. -1.
         -3    1    6    6    0  502 -0.17340423548E+03 -0.81760692666E+02  0.13073927954E+03  0.23204869955E+03  0.00000000000E+00 0.  1.
<mgrwt>
<rscale>  0 0.92415011E+03</rscale>
<asrwt>0</asrwt>
<pdfrwt beam="1">  1        1 0.18441986E+00 0.92415011E+03</pdfrwt>
<pdfrwt beam="2">  1       -2 0.12092634E+00 0.92415011E+03</pdfrwt>
<totfact> 0.49206892E+00</totfact>
</mgrwt>
</event>
<event>
12    3  0.2269558E-007  0.3068985E+03  0.7818608E-02  0.1081842E+00
          1   -1    0    0  501    0  0.00000000000E+00  0.00000000000E+00  0.54465460628E+03  0.54465460628E+03  0.00000000000E+00 0. -1.
         -2   -1    0    0    0  501 -0.00000000000E+00 -0.00000000000E+00 -0.35721176631E+03  0.35721176631E+03  0.00000000000E+00 0.  1.
        -24    2    1    2    0    0 -0.99012488336E+02  0.16184587949E+03  0.16631297186E+03  0.27216891421E+03  0.10207032721E+03 0.  0.
    5000000    2    1    2    0    0  0.99012488336E+02 -0.16184587949E+03  0.21129868097E+02  0.62969745838E+03  0.60006237693E+03 0.  0.
        -24    2    4    4    0    0  0.15008702918E+03 -0.24371997984E+03 -0.21273941923E+03  0.36412844594E+03  0.73524960041E+02 0.  0.
         24    2    4    4    0    0 -0.51074540839E+02  0.81874100349E+02  0.23386928733E+03  0.26556901244E+03  0.80747010977E+02 0.  0.
         11    1    3    3    0    0 -0.10022597830E+03  0.10723146911E+03  0.16008211285E+03  0.21718682636E+03  0.00000000000E+00 0. -1.
        -12    1    3    3    0    0  0.12134899628E+01  0.54614410386E+02  0.62308590173E+01  0.54982087845E+02  0.00000000000E+00 0.  1.
         13    1    5    5    0    0  0.13888209067E+03 -0.23811952664E+03 -0.21707650668E+03  0.35087227566E+03  0.00000000000E+00 0. -1.
        -14    1    5    5    0    0  0.11204938502E+02 -0.56004532061E+01  0.43370874510E+01  0.13256170281E+02  0.00000000000E+00 0.  1.
          2    1    6    6  502    0 -0.38284754743E+02 -0.29705404162E+01  0.53759940034E+02  0.66065707508E+02  0.00000000000E+00 0. -1.
         -1    1    6    6    0  502 -0.12789786096E+02  0.84844640765E+02  0.18010934729E+03  0.19950330493E+03  0.00000000000E+00 0.  1.
<mgrwt>
<rscale>  0 0.30689850E+03</rscale>
<asrwt>0</asrwt>
<pdfrwt beam="1">  1        1 0.83793017E-01 0.30689850E+03</pdfrwt>
<pdfrwt beam="2">  1       -2 0.54955656E-01 0.30689850E+03</pdfrwt>
<totfact> 0.11280022E+02</totfact>
</mgrwt>
</event>
<event>
12    3  0.2269558E-007  0.9542178E+03  0.7818608E-02  0.9360234E-01
         -2   -1    0    0    0  501 -0.00000000000E+00  0.00000000000E+00  0.86202191978E+03  0.86202191978E+03  0.00000000000E+00 0.  1.
          1   -1    0    0  501    0  0.00000000000E+00 -0.00000000000E+00 -0.11981024443E+04  0.11981024443E+04  0.00000000000E+00 0. -1.
        -24    2    1    2    0    0 -0.88516630563E+03  0.28333191834E+02 -0.42716570340E+03  0.98647578754E+03  0.79635311730E+02 0.  0.
    5000000    2    1    2    0    0  0.88516630563E+03 -0.28333191834E+02  0.91085178905E+02  0.10736485765E+04  0.60008549196E+03 0.  0.
        -24    2    4    4    0    0  0.59977393836E+03  0.22172318572E+03 -0.80629267062E+02  0.64951032974E+03  0.80452728438E+02 0.  0.
         24    2    4    4    0    0  0.28539236726E+03 -0.25005637755E+03  0.17171444597E+03  0.42413824677E+03  0.80189813411E+02 0.  0.
         13    1    3    3    0    0 -0.12053935793E+03  0.17616379915E+02 -0.33235610378E+02  0.12627224338E+03  0.00000000000E+00 0. -1.
        -14    1    3    3    0    0 -0.76462694769E+03  0.10716811919E+02 -0.39393009302E+03  0.86020354416E+03  0.00000000000E+00 0.  1.
         13    1    5    5    0    0  0.15125212350E+03  0.45076668338E+02 -0.53674685592E+02  0.16670357754E+03  0.00000000000E+00 0. -1.
        -14    1    5    5    0    0  0.44852181486E+03  0.17664651738E+03 -0.26954581470E+02  0.48280675220E+03  0.00000000000E+00 0.  1.
          2    1    6    6  502    0  0.82770640090E+02 -0.10049092284E+03  0.24661767630E+02  0.13250512147E+03  0.00000000000E+00 0. -1.
         -1    1    6    6    0  502  0.20262172717E+03 -0.14956545471E+03  0.14705267834E+03  0.29163312530E+03  0.00000000000E+00 0.  1.
<mgrwt>
<rscale>  0 0.95421785E+03</rscale>
<asrwt>0</asrwt>
<pdfrwt beam="1">  1        1 0.18432345E+00 0.95421785E+03</pdfrwt>
<pdfrwt beam="2">  1       -2 0.13261876E+00 0.95421785E+03</pdfrwt>
<totfact> 0.38891154E+00</totfact>
</mgrwt>
</event>
<event>
12    3  0.2269558E-007  0.6259270E+03  0.7818608E-02  0.9853029E-01
         -2   -1    0    0    0  501 -0.00000000000E+00  0.00000000000E+00  0.82521435169E+03  0.82521435169E+03  0.00000000000E+00 0.  1.
          1   -1    0    0  501    0  0.00000000000E+00 -0.00000000000E+00 -0.69705594326E+03  0.69705594326E+03  0.00000000000E+00 0. -1.
        -24    2    1    2    0    0 -0.43952428888E+03 -0.28577585351E+03 -0.30939600709E+03  0.61329393361E+03  0.74525974192E+02 0.  0.
    5000000    2    1    2    0    0  0.43952428888E+03  0.28577585351E+03  0.43755441551E+03  0.90897636134E+03  0.59994559751E+03 0.  0.
        -24    2    4    4    0    0 -0.85558633418E+02 -0.25194583601E+02  0.23106425839E+03  0.25998718931E+03  0.79041763023E+02 0.  0.
         24    2    4    4    0    0  0.52508292230E+03  0.31097043711E+03  0.20649015712E+03  0.64898917203E+03  0.78320319064E+02 0.  0.
         13    1    3    3    0    0 -0.24228906398E+03 -0.14293904168E+03 -0.20628621939E+03  0.34884031372E+03  0.00000000000E+00 0. -1.
        -14    1    3    3    0    0 -0.19723522490E+03 -0.14283681183E+03 -0.10310978770E+03  0.26445361989E+03  0.00000000000E+00 0.  1.
         13    1    5    5    0    0 -0.75327255836E+02  0.10962497879E+02  0.18804331816E+03  0.20286611678E+03  0.00000000000E+00 0. -1.
        -14    1    5    5    0    0 -0.10231377583E+02 -0.36157081480E+02  0.43020940231E+02  0.57121072528E+02  0.00000000000E+00 0.  1.
          4    1    6    6  502    0  0.28868869626E+03  0.20610626299E+03  0.93879063922E+02  0.36692537884E+03  0.00000000000E+00 0. -1.
         -3    1    6    6    0  502  0.23639422604E+03  0.10486417412E+03  0.11261109320E+03  0.28206379320E+03  0.00000000000E+00 0.  1.
<mgrwt>
<rscale>  0 0.62592701E+03</rscale>
<asrwt>0</asrwt>
<pdfrwt beam="1">  1        1 0.10723938E+00 0.62592701E+03</pdfrwt>
<pdfrwt beam="2">  1       -2 0.12695605E+00 0.62592701E+03</pdfrwt>
<totfact> 0.11465369E+01</totfact>
</mgrwt>
</event>
<event>
12    3  0.2483495E-007  0.7860439E+03  0.7818608E-02  0.9580441E-01
          1   -1    0    0  501    0  0.00000000000E+00  0.00000000000E+00  0.14422722356E+04  0.14422722356E+04  0.00000000000E+00 0. -1.
         -2   -1    0    0    0  501 -0.00000000000E+00 -0.00000000000E+00 -0.55946936221E+03  0.55946936221E+03  0.00000000000E+00 0.  1.
        -24    2    1    2    0    0  0.68087176572E+03  0.35376359245E+02  0.85058820971E+03  0.10929945007E+04  0.79365155753E+02 0.  0.
    5000000    2    1    2    0    0 -0.68087176572E+03 -0.35376359245E+02  0.32214663675E+02  0.90874709709E+03  0.59995470977E+03 0.  0.
        -24    2    4    4    0    0  0.25457430458E+02  0.13541178084E+03  0.73963358330E+02  0.17555598033E+03  0.79780277639E+02 0.  0.
         24    2    4    4    0    0 -0.70632919618E+03 -0.17078814008E+03 -0.41748694656E+02  0.73319111676E+03  0.88072345438E+02 0.  0.
         11    1    5    5    0    0  0.45196979995E+02  0.50535157945E+02  0.12554866649E+02  0.68950662547E+02  0.00000000000E+00 0. -1.
        -12    1    5    5    0    0 -0.19739549537E+02  0.84876622891E+02  0.61408491682E+02  0.10660531778E+03  0.00000000000E+00 0.  1.
         13    1    3    3    0    0  0.29323105517E+03 -0.22088304738E+02  0.38442521855E+03  0.48399906361E+03  0.00000000000E+00 0. -1.
        -14    1    3    3    0    0  0.38764071055E+03  0.57464663984E+02  0.46616299116E+03  0.60899543710E+03  0.00000000000E+00 0.  1.
          4    1    6    6  502    0 -0.61799578104E+03 -0.17645678856E+03 -0.47800959598E+02  0.64446932848E+03  0.00000000000E+00 0. -1.
         -3    1    6    6    0  502 -0.88333415132E+02  0.56686484802E+01  0.60522649422E+01  0.88721788279E+02  0.00000000000E+00 0.  1.
<mgrwt>
<rscale>  0 0.78604389E+03</rscale>
<asrwt>0</asrwt>
<pdfrwt beam="1">  1        1 0.22188803E+00 0.78604389E+03</pdfrwt>
<pdfrwt beam="2">  1       -2 0.86072210E-01 0.78604389E+03</pdfrwt>
<totfact> 0.75684023E+00</totfact>
</mgrwt>
</event>
<event>
12    3  0.2269558E-007  0.9814328E+03  0.7818608E-02  0.9329147E-01
          1   -1    0    0  501    0  0.00000000000E+00  0.00000000000E+00  0.17518895348E+04  0.17518895348E+04  0.00000000000E+00 0. -1.
         -2   -1    0    0    0  501 -0.00000000000E+00 -0.00000000000E+00 -0.59726262325E+03  0.59726262325E+03  0.00000000000E+00 0.  1.
        -24    2    1    2    0    0  0.81227241473E+03 -0.42834498856E+03  0.33897604056E+03  0.98221564480E+03  0.81098161858E+02 0.  0.
    5000000    2    1    2    0    0 -0.81227241473E+03  0.42834498856E+03  0.81565087102E+03  0.13669365133E+04  0.59996931838E+03 0.  0.
        -24    2    4    4    0    0 -0.32349776640E+03 -0.71016303267E+02  0.47661156601E+03  0.58624471783E+03  0.82644807061E+02 0.  0.
         24    2    4    4    0    0 -0.48877464832E+03  0.49936129183E+03  0.33903930501E+03  0.78069179545E+03  0.79181263715E+02 0.  0.
         11    1    3    3    0    0  0.69176821396E+03 -0.38961726543E+03  0.27366231142E+03  0.83978326731E+03  0.00000000000E+00 0. -1.
        -12    1    3    3    0    0  0.12050420077E+03 -0.38727723132E+02  0.65313729142E+02  0.14243237748E+03  0.00000000000E+00 0.  1.
         13    1    5    5    0    0 -0.16777421615E+02  0.14646309196E+02  0.40746173213E+02  0.46435405464E+02  0.00000000000E+00 0. -1.
        -14    1    5    5    0    0 -0.30672034479E+03 -0.85662612464E+02  0.43586539279E+03  0.53980931236E+03  0.00000000000E+00 0.  1.
          4    1    6    6  502    0 -0.19865007814E+03  0.15944516050E+03  0.14869523635E+03  0.29494895502E+03  0.00000000000E+00 0. -1.
         -3    1    6    6    0  502 -0.29012457019E+03  0.33991613132E+03  0.19034406866E+03  0.48574284043E+03  0.00000000000E+00 0.  1.
<mgrwt>
<rscale>  0 0.98143285E+03</rscale>
<asrwt>0</asrwt>
<pdfrwt beam="1">  1        1 0.26952147E+00 0.98143285E+03</pdfrwt>
<pdfrwt beam="2">  1       -2 0.91886558E-01 0.98143285E+03</pdfrwt>
<totfact> 0.39064867E+00</totfact>
</mgrwt>
</event>
<event>
12    3  0.2269558E-007  0.5950999E+03  0.7818608E-02  0.9915625E-01
         -4   -1    0    0    0  501 -0.00000000000E+00  0.00000000000E+00  0.10784507417E+04  0.10784507417E+04  0.00000000000E+00 0.  1.
          1   -1    0    0  501    0  0.00000000000E+00 -0.00000000000E+00 -0.70937935327E+03  0.70937935327E+03  0.00000000000E+00 0. -1.
        -24    2    1    2    0    0  0.18682799224E+02 -0.44338023952E+03  0.80561477125E+03  0.92323825896E+03  0.80116411318E+02 0.  0.
    5000000    2    1    2    0    0 -0.18682799224E+02  0.44338023952E+03 -0.43654338279E+03  0.86459183604E+03  0.60001152832E+03 0.  0.
        -24    2    4    4    0    0  0.16142781123E+03  0.50631579493E+03 -0.30534517302E+03  0.61809060245E+03  0.79910548179E+02 0.  0.
         24    2    4    4    0    0 -0.18011061045E+03 -0.62935555414E+02 -0.13119820977E+03  0.24650123360E+03  0.84552775157E+02 0.  0.
         11    1    3    3    0    0 -0.31729419879E+02 -0.17810224863E+03  0.32695750352E+03  0.37366880544E+03  0.00000000000E+00 0. -1.
        -12    1    3    3    0    0  0.50412219103E+02 -0.26527799088E+03  0.47865726774E+03  0.54956945352E+03  0.00000000000E+00 0.  1.
         13    1    5    5    0    0  0.10818862667E+03  0.37850665415E+03 -0.26250289268E+03  0.47315941800E+03  0.00000000000E+00 0. -1.
        -14    1    5    5    0    0  0.53239184560E+02  0.12780914079E+03 -0.42842280336E+02  0.14493118445E+03  0.00000000000E+00 0.  1.
          2    1    6    6  502    0 -0.10407048036E+03  0.63675030031E+01 -0.80963441230E+02  0.13200866938E+03  0.00000000000E+00 0. -1.
         -1    1    6    6    0  502 -0.76040130096E+02 -0.69303058417E+02 -0.50234768536E+02  0.11449256422E+03  0.00000000000E+00 0.  1.
<mgrwt>
<rscale>  0 0.59509993E+03</rscale>
<asrwt>0</asrwt>
<pdfrwt beam="1">  1        1 0.10913528E+00 0.59509993E+03</pdfrwt>
<pdfrwt beam="2">  1       -4 0.16591550E+00 0.59509993E+03</pdfrwt>
<totfact> 0.29598972E+00</totfact>
</mgrwt>
</event>
<event>
12    3  0.2269558E-007  0.6832890E+03  0.7818608E-02  0.9746245E-01
          1   -1    0    0  501    0  0.00000000000E+00  0.00000000000E+00  0.14132951883E+04  0.14132951883E+04  0.00000000000E+00 0. -1.
         -2   -1    0    0    0  501 -0.00000000000E+00 -0.00000000000E+00 -0.33912482685E+03  0.33912482685E+03  0.00000000000E+00 0.  1.
        -24    2    1    2    0    0 -0.55598915877E+03  0.55635616287E+02  0.45842529018E+03  0.72703290480E+03  0.78764405110E+02 0.  0.
    5000000    2    1    2    0    0  0.55598915877E+03 -0.55635616287E+02  0.61574507123E+03  0.10253871103E+04  0.60004788708E+03 0.  0.
        -24    2    4    4    0    0  0.10020422997E+03  0.23869270981E+03  0.19655888018E+03  0.33504790433E+03  0.81281039588E+02 0.  0.
         24    2    4    4    0    0  0.45578492880E+03 -0.29432832610E+03  0.41918619105E+03  0.69033920599E+03  0.80511438254E+02 0.  0.
         13    1    5    5    0    0  0.48132185675E+01  0.73030035174E+02  0.90647596709E+02  0.11650553592E+03  0.00000000000E+00 0. -1.
        -14    1    5    5    0    0  0.95391011398E+02  0.16566267464E+03  0.10591128347E+03  0.21854236841E+03  0.00000000000E+00 0.  1.
         13    1    3    3    0    0 -0.46518100082E+03  0.34989240399E+02  0.34462820342E+03  0.57998811114E+03  0.00000000000E+00 0. -1.
        -14    1    3    3    0    0 -0.90808157947E+02  0.20646375888E+02  0.11379708676E+03  0.14704479366E+03  0.00000000000E+00 0.  1.
          4    1    6    6  502    0  0.34823249033E+03 -0.22124058071E+03  0.35965020760E+03  0.54732214801E+03  0.00000000000E+00 0. -1.
         -3    1    6    6    0  502  0.10755243847E+03 -0.73087745392E+02  0.59535983447E+02  0.14301705798E+03  0.00000000000E+00 0.  1.
<mgrwt>
<rscale>  0 0.68328898E+03</rscale>
<asrwt>0</asrwt>
<pdfrwt beam="1">  1        1 0.21743003E+00 0.68328898E+03</pdfrwt>
<pdfrwt beam="2">  1       -2 0.52173051E-01 0.68328898E+03</pdfrwt>
<totfact> 0.23728686E+01</totfact>
</mgrwt>
</event>
<event>
12    3  0.2269558E-007  0.1029090E+04  0.7818608E-02  0.9277203E-01
          1   -1    0    0  501    0  0.00000000000E+00  0.00000000000E+00  0.10663832451E+04  0.10663832451E+04  0.00000000000E+00 0. -1.
         -2   -1    0    0    0  501 -0.00000000000E+00 -0.00000000000E+00 -0.12449391723E+04  0.12449391723E+04  0.00000000000E+00 0.  1.
        -24    2    1    2    0    0  0.59372017815E+03 -0.83082221200E+03  0.24537676650E+03  0.10532937658E+04  0.80304431620E+02 0.  0.
    5000000    2    1    2    0    0 -0.59372017815E+03  0.83082221200E+03 -0.42393269371E+03  0.12580286515E+04  0.60012328834E+03 0.  0.
        -24    2    4    4    0    0 -0.44054108766E+03  0.64876702197E+03 -0.27236234809E+02  0.78854501242E+03  0.78014905017E+02 0.  0.
         24    2    4    4    0    0 -0.15317909048E+03  0.18205519003E+03 -0.39669645890E+03  0.46948363904E+03  0.80242637346E+02 0.  0.
         11    1    5    5    0    0 -0.31128617930E+03  0.50176752128E+03 -0.43778906303E+02  0.59210330473E+03  0.00000000000E+00 0. -1.
        -12    1    5    5    0    0 -0.12925490836E+03  0.14699950069E+03  0.16542671494E+02  0.19644170769E+03  0.00000000000E+00 0.  1.
         11    1    3    3    0    0  0.47076783461E+03 -0.67543890117E+03  0.22850450436E+03  0.85443219264E+03  0.00000000000E+00 0. -1.
        -12    1    3    3    0    0  0.12295234354E+03 -0.15538331083E+03  0.16872262146E+02  0.19886157320E+03  0.00000000000E+00 0.  1.
          4    1    6    6  502    0  0.79784816587E+01  0.21840852047E+02 -0.46991084819E+02  0.52429390996E+02  0.00000000000E+00 0. -1.
         -3    1    6    6    0  502 -0.16115757214E+03  0.16021433798E+03 -0.34970537408E+03  0.41705424805E+03  0.00000000000E+00 0.  1.
<mgrwt>
<rscale>  0 0.10290896E+04</rscale>
<asrwt>0</asrwt>
<pdfrwt beam="1">  1        1 0.16405896E+00 0.10290896E+04</pdfrwt>
<pdfrwt beam="2">  1       -2 0.19152910E+00 0.10290896E+04</pdfrwt>
<totfact> 0.17722626E+00</totfact>
</mgrwt>
</event>
<event>
12    3  0.2269558E-007  0.6363091E+03  0.7818608E-02  0.9832814E-01
          1   -1    0    0  501    0  0.00000000000E+00  0.00000000000E+00  0.95741636291E+03  0.95741636291E+03  0.00000000000E+00 0. -1.
         -2   -1    0    0    0  501 -0.00000000000E+00 -0.00000000000E+00 -0.51171603886E+03  0.51171603886E+03  0.00000000000E+00 0.  1.
        -24    2    1    2    0    0  0.54111378352E+03  0.11068671319E+02  0.36377355305E+03  0.65694975432E+03  0.79530746311E+02 0.  0.
    5000000    2    1    2    0    0 -0.54111378352E+03 -0.11068671319E+02  0.81926770998E+02  0.81218264744E+03  0.60000167899E+03 0.  0.
        -24    2    4    4    0    0 -0.57106265185E+03  0.11098782280E+03  0.20163505238E+03  0.62083532519E+03  0.79680345761E+02 0.  0.
         24    2    4    4    0    0  0.29948868333E+02 -0.12205649412E+03 -0.11970828138E+03  0.19134732225E+03  0.80554345819E+02 0.  0.
         13    1    5    5    0    0 -0.43555365914E+03  0.49887131135E+02  0.14485281983E+03  0.46171209130E+03  0.00000000000E+00 0. -1.
        -14    1    5    5    0    0 -0.13550899271E+03  0.61100691668E+02  0.56782232549E+02  0.15912323388E+03  0.00000000000E+00 0.  1.
         13    1    3    3    0    0  0.24500435077E+03 -0.25824360606E+02  0.19447073610E+03  0.31386764200E+03  0.00000000000E+00 0. -1.
        -14    1    3    3    0    0  0.29610943275E+03  0.36893031925E+02  0.16930281695E+03  0.34308211232E+03  0.00000000000E+00 0.  1.
          2    1    6    6  502    0  0.47056978227E+02 -0.58969924338E+02 -0.31973152491E+02  0.81939573202E+02  0.00000000000E+00 0. -1.
         -1    1    6    6    0  502 -0.17108109893E+02 -0.63086569784E+02 -0.87735128888E+02  0.10940774905E+03  0.00000000000E+00 0.  1.
<mgrwt>
<rscale>  0 0.63630910E+03</rscale>
<asrwt>0</asrwt>
<pdfrwt beam="1">  1        1 0.14729483E+00 0.63630910E+03</pdfrwt>
<pdfrwt beam="2">  1       -2 0.78725544E-01 0.63630910E+03</pdfrwt>
<totfact> 0.21276839E+01</totfact>
</mgrwt>
</event>
<event>
12    3  0.2269558E-007  0.6767220E+03  0.7818608E-02  0.9757890E-01
         -2   -1    0    0    0  501 -0.00000000000E+00  0.00000000000E+00  0.34948888749E+03  0.34948888749E+03  0.00000000000E+00 0.  1.
          1   -1    0    0  501    0  0.00000000000E+00 -0.00000000000E+00 -0.15214151850E+04  0.15214151850E+04  0.00000000000E+00 0. -1.
        -24    2    1    2    0    0  0.59891787086E+03 -0.63270356435E+02 -0.51785183377E+03  0.79824545327E+03  0.79495458314E+02 0.  0.
    5000000    2    1    2    0    0 -0.59891787086E+03  0.63270356435E+02 -0.65407446373E+03  0.10726586192E+04  0.60006445924E+03 0.  0.
        -24    2    4    4    0    0 -0.19885119742E+03 -0.18803478241E+03 -0.48855100193E+03  0.56557501542E+03  0.79335606580E+02 0.  0.
         24    2    4    4    0    0 -0.40006667344E+03  0.25130513884E+03 -0.16552346180E+03  0.50708360380E+03  0.80796960521E+02 0.  0.
         13    1    3    3    0    0  0.28542688345E+03 -0.38039118578E+02 -0.19654880700E+03  0.34863578972E+03  0.00000000000E+00 0. -1.
        -14    1    3    3    0    0  0.31349098740E+03 -0.25231237857E+02 -0.32130302677E+03  0.44960966355E+03  0.00000000000E+00 0.  1.
         13    1    5    5    0    0 -0.14725752078E+03 -0.14899262029E+03 -0.29741139615E+03  0.36378168850E+03  0.00000000000E+00 0. -1.
        -14    1    5    5    0    0 -0.51593676638E+02 -0.39042162112E+02 -0.19113960578E+03  0.20179332692E+03  0.00000000000E+00 0.  1.
          2    1    6    6  502    0 -0.59066852130E+02  0.12161504808E+02 -0.42613615626E+01  0.60456219053E+02  0.00000000000E+00 0. -1.
         -1    1    6    6    0  502 -0.34099982131E+03  0.23914363403E+03 -0.16126210023E+03  0.44662738474E+03  0.00000000000E+00 0.  1.
<mgrwt>
<rscale>  0 0.67672196E+03</rscale>
<asrwt>0</asrwt>
<pdfrwt beam="1">  1        1 0.23406388E+00 0.67672196E+03</pdfrwt>
<pdfrwt beam="2">  1       -2 0.53767521E-01 0.67672196E+03</pdfrwt>
<totfact> 0.18819913E+01</totfact>
</mgrwt>
</event>
<event>
12    3  0.2269558E-007  0.6149283E+03  0.7818608E-02  0.9874910E-01
          1   -1    0    0  501    0  0.00000000000E+00  0.00000000000E+00  0.40381611339E+03  0.40381611339E+03  0.00000000000E+00 0. -1.
         -2   -1    0    0    0  501 -0.00000000000E+00 -0.00000000000E+00 -0.12067853470E+04  0.12067853470E+04  0.00000000000E+00 0.  1.
        -24    2    1    2    0    0  0.50754059434E+03 -0.76052010529E+02 -0.60296659558E+03  0.79621005736E+03  0.83668254729E+02 0.  0.
    5000000    2    1    2    0    0 -0.50754059434E+03  0.76052010529E+02 -0.20000263800E+03  0.81439140300E+03  0.59987576953E+03 0.  0.
        -24    2    4    4    0    0  0.51064700671E+02 -0.10936488043E+03 -0.16521964320E+03  0.21934318914E+03  0.79029256589E+02 0.  0.
         24    2    4    4    0    0 -0.55860529501E+03  0.18541689096E+03 -0.34782994804E+02  0.59504821386E+03  0.80331942735E+02 0.  0.
         11    1    5    5    0    0  0.89315105883E+01 -0.29245691268E+02 -0.10801645911E+03  0.11226147059E+03  0.00000000000E+00 0. -1.
        -12    1    5    5    0    0  0.42133190083E+02 -0.80119189165E+02 -0.57203184089E+02  0.10708171856E+03  0.00000000000E+00 0.  1.
         13    1    3    3    0    0  0.19003843687E+03 -0.91805974341E+01 -0.16991667629E+03  0.25508933286E+03  0.00000000000E+00 0. -1.
        -14    1    3    3    0    0  0.31750215747E+03 -0.66871413095E+02 -0.43304991930E+03  0.54112072450E+03  0.00000000000E+00 0.  1.
          4    1    6    6  502    0 -0.10427624848E+03  0.68940539232E+02 -0.81426463913E+01  0.12527025440E+03  0.00000000000E+00 0. -1.
         -3    1    6    6    0  502 -0.45432904653E+03  0.11647635173E+03 -0.26640348413E+02  0.46977795946E+03  0.00000000000E+00 0.  1.
<mgrwt>
<rscale>  0 0.61492835E+03</rscale>
<asrwt>0</asrwt>
<pdfrwt beam="1">  1        1 0.62125555E-01 0.61492835E+03</pdfrwt>
<pdfrwt beam="2">  1       -2 0.18565929E+00 0.61492835E+03</pdfrwt>
<totfact> 0.89148813E+00</totfact>
</mgrwt>
</event>
<event>
12    3  0.2269558E-007  0.5418068E+03  0.7818608E-02  0.1003408E+00
          1   -1    0    0  501    0  0.00000000000E+00  0.00000000000E+00  0.14590770972E+04  0.14590770972E+04  0.00000000000E+00 0. -1.
         -2   -1    0    0    0  501 -0.00000000000E+00 -0.00000000000E+00 -0.23937172142E+03  0.23937172142E+03  0.00000000000E+00 0.  1.
        -24    2    1    2    0    0 -0.19655567227E+02 -0.43159405887E+03  0.38907872350E+03  0.58656880545E+03  0.77594700056E+02 0.  0.
    5000000    2    1    2    0    0  0.19655567227E+02  0.43159405887E+03  0.83062665230E+03  0.11118800132E+04  0.59973056888E+03 0.  0.
        -24    2    4    4    0    0  0.20653679343E+03  0.41162186827E+02  0.53771067696E+03  0.58287567989E+03  0.79117086796E+02 0.  0.
         24    2    4    4    0    0 -0.18688122621E+03  0.39043187204E+03  0.29291597534E+03  0.52900433330E+03  0.81756813949E+02 0.  0.
         11    1    5    5    0    0 -0.18188878133E+01 -0.30367184708E+01  0.56788436309E+02  0.56898651217E+02  0.00000000000E+00 0. -1.
        -12    1    5    5    0    0  0.20835568125E+03  0.44198905298E+02  0.48092224065E+03  0.52597702867E+03  0.00000000000E+00 0.  1.
         13    1    3    3    0    0 -0.29912825556E+01 -0.18405253592E+03  0.11581996405E+03  0.21748229312E+03  0.00000000000E+00 0. -1.
        -14    1    3    3    0    0 -0.16664284671E+02 -0.24754152295E+03  0.27325875945E+03  0.36908651233E+03  0.00000000000E+00 0.  1.
          2    1    6    6  502    0 -0.18205639142E+03  0.35319805252E+03  0.28882606755E+03  0.49123710289E+03  0.00000000000E+00 0. -1.
         -1    1    6    6    0  502 -0.48248347877E+01  0.37233819521E+02  0.40899077848E+01  0.37767230406E+02  0.00000000000E+00 0.  1.
<mgrwt>
<rscale>  0 0.54180683E+03</rscale>
<asrwt>0</asrwt>
<pdfrwt beam="1">  1        1 0.22447339E+00 0.54180683E+03</pdfrwt>
<pdfrwt beam="2">  1       -2 0.36826420E-01 0.54180683E+03</pdfrwt>
<totfact> 0.44825130E+01</totfact>
</mgrwt>
</event>
<event>
12    3  0.2269558E-007  0.3270168E+03  0.7818608E-02  0.1072465E+00
          1   -1    0    0  501    0  0.00000000000E+00  0.00000000000E+00  0.82469117030E+03  0.82469117030E+03  0.00000000000E+00 0. -1.
         -2   -1    0    0    0  501 -0.00000000000E+00 -0.00000000000E+00 -0.22026906366E+03  0.22026906366E+03  0.00000000000E+00 0.  1.
        -24    2    1    2    0    0 -0.47435859060E+02 -0.19802034351E+03  0.16356877006E+03  0.27309549650E+03  0.79775876660E+02 0.  0.
    5000000    2    1    2    0    0  0.47435859060E+02  0.19802034351E+03  0.44085333659E+03  0.77186473746E+03  0.59996774196E+03 0.  0.
        -24    2    4    4    0    0  0.42040457621E+02 -0.10587660017E+03  0.43675195391E+03  0.45822028361E+03  0.78970276217E+02 0.  0.
         24    2    4    4    0    0  0.53954014394E+01  0.30389694368E+03  0.41013826739E+01  0.31364445385E+03  0.77288804866E+02 0.  0.
         11    1    5    5    0    0  0.63322053795E+02 -0.62507989548E+02  0.25159810253E+03  0.26686801317E+03  0.00000000000E+00 0. -1.
        -12    1    5    5    0    0 -0.21281596174E+02 -0.43368610620E+02  0.18515385138E+03  0.19135227044E+03  0.00000000000E+00 0.  1.
         13    1    3    3    0    0  0.21657369403E+01 -0.12051201010E+03  0.12400200364E+03  0.17292869022E+03  0.00000000000E+00 0. -1.
        -14    1    3    3    0    0 -0.49601596000E+02 -0.77508333418E+02  0.39566766424E+02  0.10016680628E+03  0.00000000000E+00 0.  1.
          2    1    6    6  502    0  0.81360190338E+01  0.11891410861E+03 -0.35669136694E+02  0.12441481963E+03  0.00000000000E+00 0. -1.
         -1    1    6    6    0  502 -0.27406175944E+01  0.18498283508E+03  0.39770519368E+02  0.18922963422E+03  0.00000000000E+00 0.  1.
<mgrwt>
<rscale>  0 0.32701683E+03</rscale>
<asrwt>0</asrwt>
<pdfrwt beam="1">  1        1 0.12687556E+00 0.32701683E+03</pdfrwt>
<pdfrwt beam="2">  1       -2 0.33887549E-01 0.32701683E+03</pdfrwt>
<totfact> 0.15800181E+02</totfact>
</mgrwt>
</event>
<event>
12    3  0.2269558E-007  0.8592961E+03  0.7818608E-02  0.9477944E-01
          1   -1    0    0  501    0  0.00000000000E+00  0.00000000000E+00  0.16868554143E+04  0.16868554143E+04  0.00000000000E+00 0. -1.
         -2   -1    0    0    0  501 -0.00000000000E+00 -0.00000000000E+00 -0.49222557285E+03  0.49222557285E+03  0.00000000000E+00 0.  1.
        -24    2    1    2    0    0 -0.26999857749E+03  0.75891684656E+03  0.63796693034E+03  0.10307328114E+04  0.80958707738E+02 0.  0.
    5000000    2    1    2    0    0  0.26999857749E+03 -0.75891684656E+03  0.55666291112E+03  0.11483481758E+04  0.59997993668E+03 0.  0.
        -24    2    4    4    0    0 -0.58469805215E+02 -0.44622557822E+03  0.51170604967E+03  0.68617242142E+03  0.80333840112E+02 0.  0.
         24    2    4    4    0    0  0.32846838270E+03 -0.31269126834E+03  0.44956861448E+02  0.46217575439E+03  0.76928543596E+02 0.  0.
         13    1    5    5    0    0 -0.44596899724E+02 -0.22407904168E+03  0.31496557967E+03  0.38910617672E+03  0.00000000000E+00 0. -1.
        -14    1    5    5    0    0 -0.13872905491E+02 -0.22214653654E+03  0.19674047000E+03  0.29706624470E+03  0.00000000000E+00 0.  1.
         13    1    3    3    0    0 -0.81126831286E+02  0.14727977306E+03  0.15696322205E+03  0.23002249321E+03  0.00000000000E+00 0. -1.
        -14    1    3    3    0    0 -0.18887174620E+03  0.61163707350E+03  0.48100370829E+03  0.80071031815E+03  0.00000000000E+00 0.  1.
          4    1    6    6  502    0  0.20654480978E+03 -0.14687424495E+03  0.11901480460E+02  0.25372120036E+03  0.00000000000E+00 0. -1.
         -3    1    6    6    0  502  0.12192357292E+03 -0.16581702340E+03  0.33055380988E+02  0.20845455402E+03  0.00000000000E+00 0.  1.
<mgrwt>
<rscale>  0 0.85929612E+03</rscale>
<asrwt>0</asrwt>
<pdfrwt beam="1">  1        1 0.25951621E+00 0.85929612E+03</pdfrwt>
<pdfrwt beam="2">  1       -2 0.75727012E-01 0.85929612E+03</pdfrwt>
<totfact> 0.68144371E+00</totfact>
</mgrwt>
</event>
<event>
12    3  0.2269558E-007  0.5570844E+03  0.7818608E-02  0.9998674E-01
          1   -1    0    0  501    0  0.00000000000E+00  0.00000000000E+00  0.37683876855E+04  0.37683876855E+04  0.00000000000E+00 0. -1.
         -2   -1    0    0    0  501 -0.00000000000E+00 -0.00000000000E+00 -0.19954238864E+03  0.19954238864E+03  0.00000000000E+00 0.  1.
        -24    2    1    2    0    0  0.40933995695E+03 -0.96539845488E+02  0.12377488210E+03  0.44579453030E+03  0.80829448120E+02 0.  0.
    5000000    2    1    2    0    0 -0.40933995695E+03  0.96539845488E+02  0.34450704148E+04  0.35221355439E+04  0.60004123557E+03 0.  0.
        -24    2    4    4    0    0 -0.69148990844E+02 -0.20644675097E+03  0.69191653724E+03  0.73040845448E+03  0.85709812465E+02 0.  0.
         24    2    4    4    0    0 -0.34019096611E+03  0.30298659646E+03  0.27531538776E+04  0.27917270894E+04  0.79706317619E+02 0.  0.
         11    1    3    3    0    0  0.84924383636E+02 -0.33000451059E+00  0.52953243053E+02  0.10008149574E+03  0.00000000000E+00 0. -1.
        -12    1    3    3    0    0  0.32441557331E+03 -0.96209840977E+02  0.70821639043E+02  0.34571303456E+03  0.00000000000E+00 0.  1.
         13    1    5    5    0    0  0.15594378665E+02 -0.75204011006E+02  0.19800998370E+03  0.21238357178E+03  0.00000000000E+00 0. -1.
        -14    1    5    5    0    0 -0.84743369509E+02 -0.13124273997E+03  0.49390655354E+03  0.51802488270E+03  0.00000000000E+00 0.  1.
          4    1    6    6  502    0 -0.21729638343E+03  0.22204327143E+03  0.20429460524E+04  0.20664340070E+04  0.00000000000E+00 0. -1.
         -3    1    6    6    0  502 -0.12289458268E+03  0.80943325030E+02  0.71020782520E+03  0.72529308235E+03  0.00000000000E+00 0.  1.
<mgrwt>
<rscale>  0 0.55708436E+03</rscale>
<asrwt>0</asrwt>
<pdfrwt beam="1">  1        1 0.57975190E+00 0.55708436E+03</pdfrwt>
<pdfrwt beam="2">  1       -2 0.30698832E-01 0.55708436E+03</pdfrwt>
<totfact> 0.14985111E+00</totfact>
</mgrwt>
</event>
<event>
12    3  0.2269558E-007  0.7704829E+03  0.7818608E-02  0.9603753E-01
          1   -1    0    0  501    0  0.00000000000E+00  0.00000000000E+00  0.27954733101E+04  0.27954733101E+04  0.00000000000E+00 0. -1.
         -4   -1    0    0    0  501 -0.00000000000E+00 -0.00000000000E+00 -0.37678660311E+03  0.37678660311E+03  0.00000000000E+00 0.  1.
        -24    2    1    2    0    0  0.67926188501E+03  0.62480366407E+02  0.11361565297E+03  0.69464427935E+03  0.65739285149E+02 0.  0.
    5000000    2    1    2    0    0 -0.67926188501E+03 -0.62480366407E+02  0.23050710540E+04  0.24776156339E+04  0.59993846394E+03 0.  0.
        -24    2    4    4    0    0 -0.66315473957E+03 -0.21057529713E+03  0.20876317031E+04  0.22020468956E+04  0.81781651670E+02 0.  0.
         24    2    4    4    0    0 -0.16107145441E+02  0.14809493072E+03  0.21743935096E+03  0.27556873825E+03  0.80415853609E+02 0.  0.
         11    1    3    3    0    0  0.82476386800E+02  0.19212543508E+02  0.32995446602E+02  0.90885508769E+02  0.00000000000E+00 0. -1.
        -12    1    3    3    0    0  0.59678549821E+03  0.43267822899E+02  0.80620206370E+02  0.60375877058E+03  0.00000000000E+00 0.  1.
         13    1    5    5    0    0 -0.42784641905E+03 -0.15932359822E+03  0.14637806591E+04  0.15333265749E+04  0.00000000000E+00 0. -1.
        -14    1    5    5    0    0 -0.23530832052E+03 -0.51251698907E+02  0.62385104398E+03  0.66872032078E+03  0.00000000000E+00 0.  1.
          2    1    6    6  502    0 -0.34388660799E+02  0.49455958535E+02  0.41867927485E+02  0.73357993279E+02  0.00000000000E+00 0. -1.
         -3    1    6    6    0  502  0.18281515358E+02  0.98638972189E+02  0.17557142348E+03  0.20221074497E+03  0.00000000000E+00 0.  1.
<mgrwt>
<rscale>  0 0.77048288E+03</rscale>
<asrwt>0</asrwt>
<pdfrwt beam="1">  1        1 0.43007280E+00 0.77048288E+03</pdfrwt>
<pdfrwt beam="2">  1       -4 0.57967172E-01 0.77048288E+03</pdfrwt>
<totfact> 0.12067522E+00</totfact>
</mgrwt>
</event>
<event>
12    3  0.2269558E-007  0.9983930E+03  0.7818608E-02  0.9310309E-01
          1   -1    0    0  501    0  0.00000000000E+00  0.00000000000E+00  0.17273996646E+04  0.17273996646E+04  0.00000000000E+00 0. -1.
         -2   -1    0    0    0  501 -0.00000000000E+00 -0.00000000000E+00 -0.65328367318E+03  0.65328367318E+03  0.00000000000E+00 0.  1.
        -24    2    1    2    0    0 -0.78755201567E+03 -0.52086908207E+03  0.76946631171E+03  0.12210107687E+04  0.85124112305E+02 0.  0.
    5000000    2    1    2    0    0  0.78755201567E+03  0.52086908207E+03  0.30464967974E+03  0.11596725691E+04  0.60040508162E+03 0.  0.
        -24    2    4    4    0    0  0.22070433634E+02 -0.67499024604E+02  0.14113306279E+03  0.17722010360E+03  0.80282011338E+02 0.  0.
         24    2    4    4    0    0  0.76548158204E+03  0.58836810668E+03  0.16351661695E+03  0.98245246547E+03  0.79599506882E+02 0.  0.
         11    1    5    5    0    0  0.10310221737E+02  0.36572375090E+01  0.85336197307E+02  0.86034543233E+02  0.00000000000E+00 0. -1.
        -12    1    5    5    0    0  0.11760211896E+02 -0.71156262113E+02  0.55796865480E+02  0.91185560365E+02  0.00000000000E+00 0.  1.
         13    1    3    3    0    0 -0.62867272677E+03 -0.39277450171E+03  0.63989049451E+03  0.97926556743E+03  0.00000000000E+00 0. -1.
        -14    1    3    3    0    0 -0.15887928890E+03 -0.12809458036E+03  0.12957581720E+03  0.24174520132E+03  0.00000000000E+00 0.  1.
          2    1    6    6  502    0  0.33549608955E+03  0.21156840216E+03  0.80754397397E+02  0.40477164870E+03  0.00000000000E+00 0. -1.
         -3    1    6    6    0  502  0.42998549249E+03  0.37679970452E+03  0.82762219554E+02  0.57768081676E+03  0.00000000000E+00 0.  1.
<mgrwt>
<rscale>  0 0.99839300E+03</rscale>
<asrwt>0</asrwt>
<pdfrwt beam="1">  1        1 0.26575379E+00 0.99839300E+03</pdfrwt>
<pdfrwt beam="2">  1       -2 0.10050518E+00 0.99839300E+03</pdfrwt>
<totfact> 0.32796360E+00</totfact>
</mgrwt>
</event>
<event>
12    3  0.2269558E-007  0.6350721E+03  0.7818608E-02  0.9835201E-01
         -2   -1    0    0    0  501 -0.00000000000E+00  0.00000000000E+00  0.14486153672E+04  0.14486153672E+04  0.00000000000E+00 0.  1.
          1   -1    0    0  501    0  0.00000000000E+00 -0.00000000000E+00 -0.48379229788E+03  0.48379229788E+03  0.00000000000E+00 0. -1.
        -24    2    1    2    0    0  0.61547586248E+03 -0.46830363897E+02 -0.22069621595E+02  0.62280465574E+03  0.79968435884E+02 0.  0.
    5000000    2    1    2    0    0 -0.61547586248E+03  0.46830363897E+02  0.98689269092E+03  0.13096030093E+04  0.60008269297E+03 0.  0.
        -24    2    4    4    0    0 -0.22752240393E+03 -0.49663536677E+02  0.84181431340E+03  0.87692195996E+03  0.78152891493E+02 0.  0.
         24    2    4    4    0    0 -0.38795345856E+03  0.96493900574E+02  0.14507837752E+03  0.43268104938E+03  0.79663015371E+02 0.  0.
         11    1    3    3    0    0  0.47664019725E+02 -0.93200426693E+01 -0.23039268977E+02  0.53754347608E+02  0.00000000000E+00 0. -1.
        -12    1    3    3    0    0  0.56781184276E+03 -0.37510321228E+02  0.96964738166E+00  0.56905030814E+03  0.00000000000E+00 0.  1.
         13    1    5    5    0    0 -0.22927883530E+03 -0.37149041698E+02  0.78090762147E+03  0.81471807940E+03  0.00000000000E+00 0. -1.
        -14    1    5    5    0    0  0.17564313771E+01 -0.12514494979E+02  0.60906691925E+02  0.62203880562E+02  0.00000000000E+00 0.  1.
          2    1    6    6  502    0 -0.32259665022E+03  0.47797513365E+02  0.11736949991E+03  0.34659601920E+03  0.00000000000E+00 0. -1.
         -1    1    6    6    0  502 -0.65356808339E+02  0.48696387209E+02  0.27708877605E+02  0.86085030183E+02  0.00000000000E+00 0.  1.
<mgrwt>
<rscale>  0 0.63507213E+03</rscale>
<asrwt>0</asrwt>
<pdfrwt beam="1">  1        1 0.74429585E-01 0.63507213E+03</pdfrwt>
<pdfrwt beam="2">  1       -2 0.22286390E+00 0.63507213E+03</pdfrwt>
<totfact> 0.40233750E+00</totfact>
</mgrwt>
</event>
<event>
12    3  0.2269558E-007  0.3958408E+03  0.7818608E-02  0.1045229E+00
          1   -1    0    0  501    0  0.00000000000E+00  0.00000000000E+00  0.24554575365E+03  0.24554575365E+03  0.00000000000E+00 0. -1.
         -2   -1    0    0    0  501 -0.00000000000E+00 -0.00000000000E+00 -0.14358508259E+04  0.14358508259E+04  0.00000000000E+00 0.  1.
        -24    2    1    2    0    0  0.14162376954E+03 -0.26663064275E+03  0.28697032706E+01  0.31238032596E+03  0.80150116038E+02 0.  0.
    5000000    2    1    2    0    0 -0.14162376954E+03  0.26663064275E+03 -0.11931747756E+04  0.13690162536E+04  0.59949167291E+03 0.  0.
        -24    2    4    4    0    0  0.10223580973E+03 -0.14756675634E+01 -0.86153265587E+03  0.87111840577E+03  0.78450120186E+02 0.  0.
         24    2    4    4    0    0 -0.24385957926E+03  0.26810631032E+03 -0.33164211969E+03  0.49789784785E+03  0.81038776595E+02 0.  0.
         13    1    3    3    0    0  0.62163382415E+02 -0.14535173384E+03 -0.36280034699E+02  0.16219634263E+03  0.00000000000E+00 0. -1.
        -14    1    3    3    0    0  0.79460387120E+02 -0.12127890891E+03  0.39149737969E+02  0.15018398334E+03  0.00000000000E+00 0.  1.
         13    1    5    5    0    0  0.38196491801E+02  0.27697766765E+02 -0.53566809534E+03  0.53774198890E+03  0.00000000000E+00 0. -1.
        -14    1    5    5    0    0  0.64039317925E+02 -0.29173434328E+02 -0.32586456053E+03  0.33337641686E+03  0.00000000000E+00 0.  1.
          2    1    6    6  502    0 -0.14748345655E+03  0.10305573537E+03 -0.17114873440E+03  0.24832185533E+03  0.00000000000E+00 0. -1.
         -1    1    6    6    0  502 -0.96376122708E+02  0.16505057495E+03 -0.16049338529E+03  0.24957599252E+03  0.00000000000E+00 0.  1.
<mgrwt>
<rscale>  0 0.39584083E+03</rscale>
<asrwt>0</asrwt>
<pdfrwt beam="1">  1        1 0.37776270E-01 0.39584083E+03</pdfrwt>
<pdfrwt beam="2">  1       -2 0.22090013E+00 0.39584083E+03</pdfrwt>
<totfact> 0.10415623E+01</totfact>
</mgrwt>
</event>
<event>
12    3  0.2269558E-007  0.4012317E+03  0.7818608E-02  0.1043354E+00
         -2   -1    0    0    0  501 -0.00000000000E+00  0.00000000000E+00  0.26131226110E+03  0.26131226110E+03  0.00000000000E+00 0.  1.
          1   -1    0    0  501    0  0.00000000000E+00 -0.00000000000E+00 -0.11390903150E+04  0.11390903150E+04  0.00000000000E+00 0. -1.
        -24    2    1    2    0    0 -0.24244255018E+03  0.56608327326E+01 -0.67499246092E+03  0.72199963152E+03  0.82814313122E+02 0.  0.
    5000000    2    1    2    0    0  0.24244255018E+03 -0.56608327326E+01 -0.20278559295E+03  0.67840294455E+03  0.60024838467E+03 0.  0.
        -24    2    4    4    0    0  0.38495117799E+03 -0.55721443209E+02 -0.28510579470E+03  0.48872384525E+03  0.79204760442E+02 0.  0.
         24    2    4    4    0    0 -0.14250862781E+03  0.50060610476E+02  0.82320201749E+02  0.18967909930E+03  0.79917278317E+02 0.  0.
         11    1    3    3    0    0 -0.11849316845E+03 -0.39291354951E+01 -0.21520595939E+03  0.24570240949E+03  0.00000000000E+00 0. -1.
        -12    1    3    3    0    0 -0.12394938172E+03  0.95899682277E+01 -0.45978650153E+03  0.47629722203E+03  0.00000000000E+00 0.  1.
         11    1    5    5    0    0  0.53277110405E+02 -0.33000489223E+02 -0.28946868777E+02  0.69031905624E+02  0.00000000000E+00 0. -1.
        -12    1    5    5    0    0  0.33167406758E+03 -0.22720953986E+02 -0.25615892592E+03  0.41969193962E+03  0.00000000000E+00 0.  1.
          2    1    6    6  502    0 -0.62864196553E+02  0.56549234487E+02  0.16495034951E+02  0.86149923432E+02  0.00000000000E+00 0. -1.
         -1    1    6    6    0  502 -0.79644431257E+02 -0.64886240112E+01  0.65825166798E+02  0.10352917587E+03  0.00000000000E+00 0.  1.
<mgrwt>
<rscale>  0 0.40123174E+03</rscale>
<asrwt>0</asrwt>
<pdfrwt beam="1">  1        1 0.17524466E+00 0.40123174E+03</pdfrwt>
<pdfrwt beam="2">  1       -2 0.40201887E-01 0.40123174E+03</pdfrwt>
<totfact> 0.64778550E+01</totfact>
</mgrwt>
</event>
<event>
12    3  0.2269558E-007  0.3106005E+03  0.7818608E-02  0.1080058E+00
         -2   -1    0    0    0  501 -0.00000000000E+00  0.00000000000E+00  0.13950741758E+03  0.13950741758E+03  0.00000000000E+00 0.  1.
          1   -1    0    0  501    0  0.00000000000E+00 -0.00000000000E+00 -0.20296550115E+04  0.20296550115E+04  0.00000000000E+00 0. -1.
        -24    2    1    2    0    0  0.39649445991E+02 -0.68700268017E+02 -0.13601427529E+04  0.13647266765E+04  0.78732381630E+02 0.  0.
    5000000    2    1    2    0    0 -0.39649445991E+02  0.68700268017E+02 -0.53000484104E+03  0.80443575259E+03  0.59993328223E+03 0.  0.
        -24    2    4    4    0    0  0.48710626080E+02 -0.21959695109E+03 -0.69495440789E+02  0.24839204527E+03  0.79205087212E+02 0.  0.
         24    2    4    4    0    0 -0.88360072071E+02  0.28829721911E+03 -0.46050940025E+03  0.55604370732E+03  0.78695030694E+02 0.  0.
         11    1    5    5    0    0 -0.13178728094E+02 -0.34377519169E+02  0.90325770978E+01  0.37908839964E+02  0.00000000000E+00 0. -1.
        -12    1    5    5    0    0  0.61889354175E+02 -0.18521943192E+03 -0.78528017886E+02  0.21048320530E+03  0.00000000000E+00 0.  1.
         11    1    3    3    0    0  0.19241192438E+02 -0.25853494925E+02 -0.10879685808E+04  0.10884457999E+04  0.00000000000E+00 0. -1.
        -12    1    3    3    0    0  0.20408253553E+02 -0.42846773092E+02 -0.27217417208E+03  0.27628087651E+03  0.00000000000E+00 0.  1.
          4    1    6    6  502    0 -0.85950348685E+02  0.16458786422E+03 -0.24321615566E+03  0.30599138200E+03  0.00000000000E+00 0. -1.
         -3    1    6    6    0  502 -0.24097233865E+01  0.12370935489E+03 -0.21729324459E+03  0.25005232532E+03  0.00000000000E+00 0.  1.
<mgrwt>
<rscale>  0 0.31060051E+03</rscale>
<asrwt>0</asrwt>
<pdfrwt beam="1">  1        1 0.31225460E+00 0.31060051E+03</pdfrwt>
<pdfrwt beam="2">  1       -2 0.21462680E-01 0.31060051E+03</pdfrwt>
<totfact> 0.52527588E+01</totfact>
</mgrwt>
</event>
<event>
12    3  0.2269558E-007  0.4149769E+03  0.7818608E-02  0.1038714E+00
         -2   -1    0    0    0  501 -0.00000000000E+00  0.00000000000E+00  0.24946280127E+03  0.24946280127E+03  0.00000000000E+00 0.  1.
          1   -1    0    0  501    0  0.00000000000E+00 -0.00000000000E+00 -0.89627721567E+03  0.89627721567E+03  0.00000000000E+00 0. -1.
        -24    2    1    2    0    0  0.22147005936E+03  0.16208921057E+03 -0.18204736454E+03  0.33867577209E+03  0.78981873168E+02 0.  0.
    5000000    2    1    2    0    0 -0.22147005936E+03 -0.16208921057E+03 -0.46476704987E+03  0.80706424485E+03  0.60001865412E+03 0.  0.
        -24    2    4    4    0    0 -0.25588486350E+03 -0.30203325334E+03 -0.49682902487E+03  0.63974325743E+03  0.75704728863E+02 0.  0.
         24    2    4    4    0    0  0.34414804139E+02  0.13994404277E+03  0.32061975004E+02  0.16732098742E+03  0.78737721201E+02 0.  0.
         11    1    3    3    0    0  0.83893354897E+02  0.49652844586E+02 -0.22888500635E+02  0.10013682356E+03  0.00000000000E+00 0. -1.
        -12    1    3    3    0    0  0.13757670446E+03  0.11243636598E+03 -0.15915886390E+03  0.23853894853E+03  0.00000000000E+00 0.  1.
         13    1    5    5    0    0 -0.16550646284E+03 -0.17634885713E+03 -0.35654128599E+03  0.43082826889E+03  0.00000000000E+00 0. -1.
        -14    1    5    5    0    0 -0.90378400659E+02 -0.12568439621E+03 -0.14028773888E+03  0.20891498854E+03  0.00000000000E+00 0.  1.
          2    1    6    6  502    0 -0.15608805965E+02  0.72517721001E+02  0.37635480703E+02  0.83179829830E+02  0.00000000000E+00 0. -1.
         -1    1    6    6    0  502  0.50023610104E+02  0.67426321773E+02 -0.55735056993E+01  0.84141157595E+02  0.00000000000E+00 0.  1.
<mgrwt>
<rscale>  0 0.41497689E+03</rscale>
<asrwt>0</asrwt>
<pdfrwt beam="1">  1        1 0.13788880E+00 0.41497689E+03</pdfrwt>
<pdfrwt beam="2">  1       -2 0.38378892E-01 0.41497689E+03</pdfrwt>
<totfact> 0.10797359E+02</totfact>
</mgrwt>
</event>
<event>
12    3  0.2269558E-007  0.1065982E+04  0.7818608E-02  0.9238997E-01
          1   -1    0    0  501    0  0.00000000000E+00  0.00000000000E+00  0.30554198837E+04  0.30554198837E+04  0.00000000000E+00 0. -1.
         -2   -1    0    0    0  501 -0.00000000000E+00 -0.00000000000E+00 -0.59733736104E+03  0.59733736104E+03  0.00000000000E+00 0.  1.
        -24    2    1    2    0    0  0.95056214178E+03 -0.27606903723E+03  0.22730744925E+04  0.24805091750E+04  0.79218809446E+02 0.  0.
    5000000    2    1    2    0    0 -0.95056214178E+03  0.27606903723E+03  0.18500803016E+03  0.11722480698E+04  0.60012920878E+03 0.  0.
        -24    2    4    4    0    0 -0.52793297665E+02 -0.13217503967E+03 -0.10308109294E+02  0.16371453109E+03  0.80242240631E+02 0.  0.
         24    2    4    4    0    0 -0.89776884412E+03  0.40824407690E+03  0.19531613946E+03  0.10085335387E+04  0.79620227236E+02 0.  0.
         11    1    5    5    0    0 -0.48432597823E+01 -0.75457078127E+02 -0.37780542949E+02  0.84525719342E+02  0.00000000000E+00 0. -1.
        -12    1    5    5    0    0 -0.47950037883E+02 -0.56717961546E+02  0.27472433655E+02  0.79188811746E+02  0.00000000000E+00 0.  1.
         13    1    3    3    0    0  0.58237731542E+03 -0.13017470711E+03  0.13917291063E+04  0.15142716722E+04  0.00000000000E+00 0. -1.
        -14    1    3    3    0    0  0.36818482637E+03 -0.14589433012E+03  0.88134538619E+03  0.96623750274E+03  0.00000000000E+00 0.  1.
          4    1    6    6  502    0 -0.42749600052E+02  0.23220991831E+01  0.11983436794E+02  0.44458106197E+02  0.00000000000E+00 0. -1.
         -1    1    6    6    0  502 -0.85501924407E+03  0.40592197772E+03  0.18333270266E+03  0.96407543252E+03  0.00000000000E+00 0.  1.
<mgrwt>
<rscale>  0 0.10659822E+04</rscale>
<asrwt>0</asrwt>
<pdfrwt beam="1">  1        1 0.47006459E+00 0.10659822E+04</pdfrwt>
<pdfrwt beam="2">  1       -2 0.91898057E-01 0.10659822E+04</pdfrwt>
<totfact> 0.48775489E-01</totfact>
</mgrwt>
</event>
<event>
12    3  0.2269558E-007  0.1291415E+04  0.7818608E-02  0.9036401E-01
          1   -1    0    0  501    0  0.00000000000E+00  0.00000000000E+00  0.11782890918E+04  0.11782890918E+04  0.00000000000E+00 0. -1.
         -2   -1    0    0    0  501 -0.00000000000E+00 -0.00000000000E+00 -0.18621452645E+04  0.18621452645E+04  0.00000000000E+00 0.  1.
        -24    2    1    2    0    0  0.10155580894E+04  0.69706228022E+03  0.39556635538E+03  0.12962047803E+04  0.80125124832E+02 0.  0.
    5000000    2    1    2    0    0 -0.10155580894E+04 -0.69706228022E+03 -0.10794225281E+04  0.17442295760E+04  0.59994146730E+03 0.  0.
        -24    2    4    4    0    0 -0.54319928769E+03 -0.46827639498E+02 -0.33017598199E+03  0.64240445647E+03  0.80056309195E+02 0.  0.
         24    2    4    4    0    0 -0.47235880168E+03 -0.65023464072E+03 -0.74924654611E+03  0.11018251195E+04  0.81977323852E+02 0.  0.
         13    1    3    3    0    0  0.66226318179E+03  0.47498955024E+03  0.22571442103E+03  0.84566813506E+03  0.00000000000E+00 0. -1.
        -14    1    3    3    0    0  0.35329490757E+03  0.22207272998E+03  0.16985193435E+03  0.45053664526E+03  0.00000000000E+00 0.  1.
         13    1    5    5    0    0 -0.46644762208E+03 -0.30144303844E+02 -0.31138857083E+03  0.56164482125E+03  0.00000000000E+00 0. -1.
        -14    1    5    5    0    0 -0.76751665611E+02 -0.16683335654E+02 -0.18787411168E+02  0.80759635221E+02  0.00000000000E+00 0.  1.
          2    1    6    6  502    0 -0.43628472543E+03 -0.61599205948E+03 -0.72448395621E+03  0.10462636292E+04  0.00000000000E+00 0. -1.
         -1    1    6    6    0  502 -0.36074076254E+02 -0.34242581246E+02 -0.24762589895E+02  0.55561490317E+02  0.00000000000E+00 0.  1.
<mgrwt>
<rscale>  0 0.12914150E+04</rscale>
<asrwt>0</asrwt>
<pdfrwt beam="1">  1        1 0.18127524E+00 0.12914150E+04</pdfrwt>
<pdfrwt beam="2">  1       -2 0.28648389E+00 0.12914150E+04</pdfrwt>
<totfact> 0.36165173E-01</totfact>
</mgrwt>
</event>
<event>
12    3  0.2269558E-007  0.6076772E+03  0.7818608E-02  0.9889605E-01
         -4   -1    0    0    0  501 -0.00000000000E+00  0.00000000000E+00  0.44442546562E+03  0.44442546562E+03  0.00000000000E+00 0.  1.
          3   -1    0    0  501    0  0.00000000000E+00 -0.00000000000E+00 -0.95742127748E+03  0.95742127748E+03  0.00000000000E+00 0. -1.
        -24    2    1    2    0    0 -0.56444300055E+02 -0.49357904715E+03 -0.31852917061E+03  0.59896635406E+03  0.10243840088E+03 0.  0.
    5000000    2    1    2    0    0  0.56444300055E+02  0.49357904715E+03 -0.19446664124E+03  0.80288038904E+03  0.59999450811E+03 0.  0.
        -24    2    4    4    0    0 -0.14469281559E+03 -0.16717878533E+02  0.80167037189E+02  0.18418215482E+03  0.79251586456E+02 0.  0.
         24    2    4    4    0    0  0.20113711565E+03  0.51029692568E+03 -0.27463367843E+03  0.61869823422E+03  0.80652067846E+02 0.  0.
         11    1    5    5    0    0 -0.85761455431E+02  0.25218962017E+02  0.64344553970E+02  0.11014193075E+03  0.00000000000E+00 0. -1.
        -12    1    5    5    0    0 -0.58931360162E+02 -0.41936840549E+02  0.15822483220E+02  0.74040224074E+02  0.00000000000E+00 0.  1.
         13    1    3    3    0    0 -0.11751258089E+02 -0.31594886273E+03 -0.25122308222E+03  0.40382522577E+03  0.00000000000E+00 0. -1.
        -14    1    3    3    0    0 -0.44693041966E+02 -0.17763018442E+03 -0.67306088390E+02  0.19514112829E+03  0.00000000000E+00 0.  1.
          2    1    6    6  502    0  0.16249214420E+03  0.47476075183E+03 -0.24503930350E+03  0.55843148968E+03  0.00000000000E+00 0. -1.
         -1    1    6    6    0  502  0.38644971448E+02  0.35536173855E+02 -0.29594374931E+02  0.60266744545E+02  0.00000000000E+00 0.  1.
<mgrwt>
<rscale>  0 0.60767720E+03</rscale>
<asrwt>0</asrwt>
<pdfrwt beam="1">  1        3 0.14729558E+00 0.60767720E+03</pdfrwt>
<pdfrwt beam="2">  1       -4 0.68373149E-01 0.60767720E+03</pdfrwt>
<totfact> 0.15155602E+00</totfact>
</mgrwt>
</event>
<event>
12    3  0.2269558E-007  0.5895156E+03  0.7818608E-02  0.9927400E-01
         -2   -1    0    0    0  501 -0.00000000000E+00  0.00000000000E+00  0.21794220554E+03  0.21794220554E+03  0.00000000000E+00 0.  1.
          1   -1    0    0  501    0  0.00000000000E+00 -0.00000000000E+00 -0.18055439225E+04  0.18055439225E+04  0.00000000000E+00 0. -1.
        -24    2    1    2    0    0 -0.25568536814E+03 -0.36875422677E+03 -0.88918538624E+03  0.99916015516E+03  0.79471235778E+02 0.  0.
    5000000    2    1    2    0    0  0.25568536814E+03  0.36875422677E+03 -0.69841633071E+03  0.10243259729E+04  0.60008636082E+03 0.  0.
        -24    2    4    4    0    0 -0.87006298022E+02 -0.10349580162E+03 -0.12078349307E+03  0.19933280384E+03  0.82845866764E+02 0.  0.
         24    2    4    4    0    0  0.34269166616E+03  0.47225002839E+03 -0.57763283764E+03  0.82499316903E+03  0.80600039993E+02 0.  0.
         13    1    5    5    0    0 -0.53065123552E+02 -0.88062457575E+02 -0.39930081383E+02  0.11029648757E+03  0.00000000000E+00 0. -1.
        -14    1    5    5    0    0 -0.33941174470E+02 -0.15433344046E+02 -0.80853411688E+02  0.89036316267E+02  0.00000000000E+00 0.  1.
         13    1    3    3    0    0 -0.95243117049E+02 -0.20276294723E+03 -0.40772698198E+03  0.46521538662E+03  0.00000000000E+00 0. -1.
        -14    1    3    3    0    0 -0.16044225109E+03 -0.16599127955E+03 -0.48145840427E+03  0.53394476855E+03  0.00000000000E+00 0.  1.
          4    1    6    6  502    0  0.25099090145E+03  0.36466852500E+03 -0.38936926201E+03  0.58956593180E+03  0.00000000000E+00 0. -1.
         -3    1    6    6    0  502  0.91700764713E+02  0.10758150339E+03 -0.18826357563E+03  0.23542723723E+03  0.00000000000E+00 0.  1.
<mgrwt>
<rscale>  0 0.58951562E+03</rscale>
<asrwt>0</asrwt>
<pdfrwt beam="1">  1        1 0.27777599E+00 0.58951562E+03</pdfrwt>
<pdfrwt beam="2">  1       -2 0.33529570E-01 0.58951562E+03</pdfrwt>
<totfact> 0.31112081E+01</totfact>
</mgrwt>
</event>
<event>
12    3  0.2269558E-007  0.1573962E+04  0.7818608E-02  0.8836706E-01
         -2   -1    0    0    0  501 -0.00000000000E+00  0.00000000000E+00  0.16530574161E+04  0.16530574161E+04  0.00000000000E+00 0.  1.
          1   -1    0    0  501    0  0.00000000000E+00 -0.00000000000E+00 -0.15081665874E+04  0.15081665874E+04  0.00000000000E+00 0. -1.
        -24    2    1    2    0    0  0.10603436414E+04 -0.10887988439E+04  0.21187328816E+02  0.15225947103E+04  0.89633634663E+02 0.  0.
    5000000    2    1    2    0    0 -0.10603436414E+04  0.10887988439E+04  0.12370349991E+03  0.16386292932E+04  0.59999320343E+03 0.  0.
        -24    2    4    4    0    0 -0.94827992227E+03  0.59769135223E+03  0.90718755200E+02  0.11274367544E+04  0.80087321220E+02 0.  0.
         24    2    4    4    0    0 -0.11206371917E+03  0.49110749170E+03  0.32984744706E+02  0.51119253884E+03  0.80529329002E+02 0.  0.
         13    1    3    3    0    0  0.51263859963E+03 -0.47566907813E+03 -0.17519500501E+02  0.69954723830E+03  0.00000000000E+00 0. -1.
        -14    1    3    3    0    0  0.54770504181E+03 -0.61312976580E+03  0.38706829317E+02  0.82304747200E+03  0.00000000000E+00 0.  1.
         13    1    5    5    0    0 -0.54863251055E+03  0.38220607067E+03  0.78508296766E+02  0.67323299440E+03  0.00000000000E+00 0. -1.
        -14    1    5    5    0    0 -0.39964741172E+03  0.21548528156E+03  0.12210458434E+02  0.45420375995E+03  0.00000000000E+00 0.  1.
          4    1    6    6  502    0 -0.93640818456E+02  0.42134930169E+03  0.56490393977E+02  0.43531023596E+03  0.00000000000E+00 0. -1.
         -3    1    6    6    0  502 -0.18422900713E+02  0.69758190006E+02 -0.23505649271E+02  0.75882302886E+02  0.00000000000E+00 0.  1.
<mgrwt>
<rscale>  0 0.15739616E+04</rscale>
<asrwt>0</asrwt>
<pdfrwt beam="1">  1        1 0.23202563E+00 0.15739616E+04</pdfrwt>
<pdfrwt beam="2">  1       -2 0.25431653E+00 0.15739616E+04</pdfrwt>
<totfact> 0.32010306E-01</totfact>
</mgrwt>
</event>
<event>
12    3  0.2269558E-007  0.9709824E+03  0.7818608E-02  0.9340956E-01
         -2   -1    0    0    0  501 -0.00000000000E+00  0.00000000000E+00  0.15850741774E+04  0.15850741774E+04  0.00000000000E+00 0.  1.
          1   -1    0    0  501    0  0.00000000000E+00 -0.00000000000E+00 -0.68835368868E+03  0.68835368868E+03  0.00000000000E+00 0. -1.
        -24    2    1    2    0    0  0.92954981728E+03  0.21955296173E+03  0.35530587388E+03  0.10223002143E+04  0.81173261478E+02 0.  0.
    5000000    2    1    2    0    0 -0.92954981728E+03 -0.21955296173E+03  0.54141461479E+03  0.12511276517E+04  0.59993687165E+03 0.  0.
        -24    2    4    4    0    0 -0.94074087384E+02 -0.24794169643E+01 -0.10029199685E+03  0.17253020357E+03  0.10417343753E+03 0.  0.
         24    2    4    4    0    0 -0.83547572990E+03 -0.21707354477E+03  0.64170661164E+03  0.10785974481E+04  0.80277398077E+02 0.  0.
         13    1    5    5    0    0  0.95996791705E+00  0.21490540983E+02  0.11059812643E+02  0.24188516818E+02  0.00000000000E+00 0. -1.
        -14    1    5    5    0    0 -0.95034055301E+02 -0.23969957947E+02 -0.11135180949E+03  0.14834168675E+03  0.00000000000E+00 0.  1.
         13    1    3    3    0    0  0.32892203009E+03  0.44256346627E+02  0.10106586878E+03  0.34693318655E+03  0.00000000000E+00 0. -1.
        -14    1    3    3    0    0  0.60062778719E+03  0.17529661510E+03  0.25424000510E+03  0.67536702777E+03  0.00000000000E+00 0.  1.
          2    1    6    6  502    0 -0.18583277525E+03 -0.25529424643E+02  0.17077310060E+03  0.25367109368E+03  0.00000000000E+00 0. -1.
         -1    1    6    6    0  502 -0.64964295464E+03 -0.19154412012E+03  0.47093351105E+03  0.82492635447E+03  0.00000000000E+00 0.  1.
<mgrwt>
<rscale>  0 0.97098237E+03</rscale>
<asrwt>0</asrwt>
<pdfrwt beam="1">  1        1 0.10590057E+00 0.97098237E+03</pdfrwt>
<pdfrwt beam="2">  1       -2 0.24385756E+00 0.97098237E+03</pdfrwt>
<totfact> 0.17248736E+00</totfact>
</mgrwt>
</event>
<event>
12    3  0.2269558E-007  0.2049784E+04  0.7818608E-02  0.8583692E-01
         -2   -1    0    0    0  501 -0.00000000000E+00  0.00000000000E+00  0.14121849311E+04  0.14121849311E+04  0.00000000000E+00 0.  1.
          1   -1    0    0  501    0  0.00000000000E+00 -0.00000000000E+00 -0.30466245968E+04  0.30466245968E+04  0.00000000000E+00 0. -1.
        -24    2    1    2    0    0 -0.18431911096E+04  0.84423338220E+03 -0.91323071189E+03  0.22249211767E+04  0.78742867789E+02 0.  0.
    5000000    2    1    2    0    0  0.18431911096E+04 -0.84423338220E+03 -0.72120895382E+03  0.22338883513E+04  0.60002611697E+03 0.  0.
        -24    2    4    4    0    0  0.40623265767E+02 -0.11441931776E+03 -0.14204413922E+03  0.20324183363E+03  0.79929190239E+02 0.  0.
         24    2    4    4    0    0  0.18025678438E+04 -0.72981406443E+03 -0.57916481461E+03  0.20306465177E+04  0.78828910626E+02 0.  0.
         11    1    3    3    0    0 -0.14090095875E+04  0.61763165532E+03 -0.71706897546E+03  0.16973405065E+04  0.00000000000E+00 0. -1.
        -12    1    3    3    0    0 -0.43418152205E+03  0.22660172688E+03 -0.19616173643E+03  0.52758067019E+03  0.00000000000E+00 0.  1.
         13    1    5    5    0    0  0.14528459833E+02 -0.87686797509E+02 -0.45771821462E+02  0.99975548222E+02  0.00000000000E+00 0. -1.
        -14    1    5    5    0    0  0.26094805934E+02 -0.26732520255E+02 -0.96272317755E+02  0.10326628541E+03  0.00000000000E+00 0.  1.
          4    1    6    6  502    0  0.11787156993E+04 -0.49823260702E+03 -0.34760014503E+03  0.13260589321E+04  0.00000000000E+00 0. -1.
         -3    1    6    6    0  502  0.62385214446E+03 -0.23158145741E+03 -0.23156466958E+03  0.70458758558E+03  0.00000000000E+00 0.  1.
<mgrwt>
<rscale>  0 0.20497840E+04</rscale>
<asrwt>0</asrwt>
<pdfrwt beam="1">  1        1 0.46871147E+00 0.20497840E+04</pdfrwt>
<pdfrwt beam="2">  1       -2 0.21725922E+00 0.20497840E+04</pdfrwt>
<totfact> 0.44220359E-02</totfact>
</mgrwt>
</event>
<event>
12    3  0.2269558E-007  0.1269033E+04  0.7818608E-02  0.9054489E-01
          1   -1    0    0  501    0  0.00000000000E+00  0.00000000000E+00  0.18569842413E+04  0.18569842413E+04  0.00000000000E+00 0. -1.
         -2   -1    0    0    0  501 -0.00000000000E+00 -0.00000000000E+00 -0.92872523558E+03  0.92872523558E+03  0.00000000000E+00 0.  1.
        -24    2    1    2    0    0  0.44390411944E+03  0.11192548741E+04  0.11135329594E+03  0.12118238619E+04  0.79593815422E+02 0.  0.
    5000000    2    1    2    0    0 -0.44390411944E+03 -0.11192548741E+04  0.81690570981E+03  0.15738856150E+04  0.59999887487E+03 0.  0.
        -24    2    4    4    0    0 -0.57865505800E+03 -0.85283736240E+03  0.66319010454E+03  0.12283912663E+04  0.83371130596E+02 0.  0.
         24    2    4    4    0    0  0.13475093856E+03 -0.26641751168E+03  0.15371560527E+03  0.34549434869E+03  0.81251164334E+02 0.  0.
         11    1    5    5    0    0 -0.50022257577E+03 -0.73020151954E+03  0.53371483384E+03  0.10335707079E+04  0.00000000000E+00 0. -1.
        -12    1    5    5    0    0 -0.78432482222E+02 -0.12263584287E+03  0.12947527070E+03  0.19482055833E+03  0.00000000000E+00 0.  1.
         13    1    3    3    0    0  0.34513977452E+03  0.89963694792E+03  0.58870349759E+02  0.96536719444E+03  0.00000000000E+00 0. -1.
        -14    1    3    3    0    0  0.98764344919E+02  0.21961792616E+03  0.52482946176E+02  0.24645666751E+03  0.00000000000E+00 0.  1.
          2    1    6    6  502    0  0.10153410923E+03 -0.14419490320E+03  0.12345680998E+03  0.21527407967E+03  0.00000000000E+00 0. -1.
         -1    1    6    6    0  502  0.33216829327E+02 -0.12222260847E+03  0.30258795290E+02  0.13022026902E+03  0.00000000000E+00 0.  1.
<mgrwt>
<rscale>  0 0.12690331E+04</rscale>
<asrwt>0</asrwt>
<pdfrwt beam="1">  1        1 0.28568988E+00 0.12690331E+04</pdfrwt>
<pdfrwt beam="2">  1       -2 0.14288081E+00 0.12690331E+04</pdfrwt>
<totfact> 0.10797439E+00</totfact>
</mgrwt>
</event>
<event>
12    3  0.2269558E-007  0.1208916E+04  0.7818608E-02  0.9105088E-01
          1   -1    0    0  501    0  0.00000000000E+00  0.00000000000E+00  0.30302732387E+04  0.30302732387E+04  0.00000000000E+00 0. -1.
         -2   -1    0    0    0  501 -0.00000000000E+00 -0.00000000000E+00 -0.68036065777E+03  0.68036065777E+03  0.00000000000E+00 0.  1.
        -24    2    1    2    0    0 -0.86854476915E+03  0.73928183802E+03  0.21098107554E+04  0.23996595078E+04  0.78464501857E+02 0.  0.
    5000000    2    1    2    0    0  0.86854476915E+03 -0.73928183802E+03  0.24010182559E+03  0.13109743887E+04  0.60008108541E+03 0.  0.
        -24    2    4    4    0    0  0.37716866458E+03  0.85453448658E+01  0.28503445570E+02  0.38818651961E+03  0.86874064826E+02 0.  0.
         24    2    4    4    0    0  0.49137610457E+03 -0.74782718288E+03  0.21159838002E+03  0.92278786906E+03  0.77894834622E+02 0.  0.
         11    1    5    5    0    0  0.32470816882E+02  0.25610924818E+01 -0.22635364611E+02  0.39664503965E+02  0.00000000000E+00 0. -1.
        -12    1    5    5    0    0  0.34469784770E+03  0.59842523840E+01  0.51138810181E+02  0.34852201565E+03  0.00000000000E+00 0.  1.
         13    1    3    3    0    0 -0.64848024120E+03  0.59514871194E+03  0.16186086938E+04  0.18424501937E+04  0.00000000000E+00 0. -1.
        -14    1    3    3    0    0 -0.22006452794E+03  0.14413312607E+03  0.49120206155E+03  0.55720931414E+03  0.00000000000E+00 0.  1.
          2    1    6    6  502    0  0.11595285475E+03 -0.12896411230E+03  0.24352526283E+02  0.17512810261E+03  0.00000000000E+00 0. -1.
         -1    1    6    6    0  502  0.37542324982E+03 -0.61886307058E+03  0.18724585374E+03  0.74765976645E+03  0.00000000000E+00 0.  1.
<mgrwt>
<rscale>  0 0.12089160E+04</rscale>
<asrwt>0</asrwt>
<pdfrwt beam="1">  1        1 0.46619588E+00 0.12089160E+04</pdfrwt>
<pdfrwt beam="2">  1       -2 0.10467087E+00 0.12089160E+04</pdfrwt>
<totfact> 0.36594308E-01</totfact>
</mgrwt>
</event>
<event>
12    3  0.2269558E-007  0.4670996E+03  0.7818608E-02  0.1022742E+00
         -2   -1    0    0    0  501 -0.00000000000E+00  0.00000000000E+00  0.18868514773E+03  0.18868514773E+03  0.00000000000E+00 0.  1.
          1   -1    0    0  501    0  0.00000000000E+00 -0.00000000000E+00 -0.15723950623E+04  0.15723950623E+04  0.00000000000E+00 0. -1.
        -24    2    1    2    0    0 -0.22258908426E+02  0.36601522078E+03 -0.34440325214E+03  0.50612298076E+03  0.55536210914E+02 0.  0.
    5000000    2    1    2    0    0  0.22258908426E+02 -0.36601522078E+03 -0.10393066624E+04  0.12549572293E+04  0.60024720565E+03 0.  0.
        -24    2    4    4    0    0 -0.19515421371E+03 -0.17021609882E+03 -0.13805830925E+03  0.30413974301E+03  0.79888666894E+02 0.  0.
         24    2    4    4    0    0  0.21741312214E+03 -0.19579912196E+03 -0.90124835320E+03  0.95081748627E+03  0.78737133727E+02 0.  0.
         11    1    3    3    0    0 -0.39970625006E+02  0.20795436264E+03 -0.20125674531E+03  0.29214199516E+03  0.00000000000E+00 0. -1.
        -12    1    3    3    0    0  0.17711716580E+02  0.15806085815E+03 -0.14314650682E+03  0.21398098560E+03  0.00000000000E+00 0.  1.
         13    1    5    5    0    0 -0.44484554636E+02 -0.89314675705E+02 -0.56594365951E+02  0.11471228860E+03  0.00000000000E+00 0. -1.
        -14    1    5    5    0    0 -0.15066965908E+03 -0.80901423118E+02 -0.81463943297E+02  0.18942745442E+03  0.00000000000E+00 0.  1.
          2    1    6    6  502    0  0.10584049772E+03 -0.93857884509E+02 -0.31330671473E+03  0.34376243387E+03  0.00000000000E+00 0. -1.
         -1    1    6    6    0  502  0.11157262442E+03 -0.10194123745E+03 -0.58794163846E+03  0.60705505240E+03  0.00000000000E+00 0.  1.
<mgrwt>
<rscale>  0 0.46709956E+03</rscale>
<asrwt>0</asrwt>
<pdfrwt beam="1">  1        1 0.24190693E+00 0.46709956E+03</pdfrwt>
<pdfrwt beam="2">  1       -2 0.29028485E-01 0.46709956E+03</pdfrwt>
<totfact> 0.59323713E+01</totfact>
</mgrwt>
</event>
<event>
12    3  0.2269558E-007  0.5921116E+03  0.7818608E-02  0.9921908E-01
          1   -1    0    0  501    0  0.00000000000E+00  0.00000000000E+00  0.48292904740E+03  0.48292904740E+03  0.00000000000E+00 0. -1.
         -2   -1    0    0    0  501 -0.00000000000E+00 -0.00000000000E+00 -0.11773329653E+04  0.11773329653E+04  0.00000000000E+00 0.  1.
        -24    2    1    2    0    0 -0.46250975574E+03  0.35366577945E+03 -0.24788504236E+02  0.58903986239E+03  0.85783050967E+02 0.  0.
    5000000    2    1    2    0    0  0.46250975574E+03 -0.35366577945E+03 -0.66961541366E+03  0.10712221503E+04  0.60011443523E+03 0.  0.
        -24    2    4    4    0    0  0.24538963386E+03 -0.15161390279E+03 -0.70045635553E+03  0.76197104177E+03  0.82206536103E+02 0.  0.
         24    2    4    4    0    0  0.21712012189E+03 -0.20205187666E+03  0.30840941873E+02  0.30925110852E+03  0.81969361567E+02 0.  0.
         11    1    5    5    0    0  0.12181893770E+03 -0.34276403424E+02 -0.35252800284E+03  0.37455402574E+03  0.00000000000E+00 0. -1.
        -12    1    5    5    0    0  0.12357069616E+03 -0.11733749936E+03 -0.34792835269E+03  0.38741701603E+03  0.00000000000E+00 0.  1.
         13    1    3    3    0    0 -0.37087247789E+02  0.16680226366E+02  0.18340497561E+02  0.44610175420E+02  0.00000000000E+00 0. -1.
        -14    1    3    3    0    0 -0.42542250795E+03  0.33698555308E+03 -0.43129001797E+02  0.54442968697E+03  0.00000000000E+00 0.  1.
          4    1    6    6  502    0  0.77012556618E+02 -0.31608150676E+02 -0.13125343529E+02  0.84275047960E+02  0.00000000000E+00 0. -1.
         -3    1    6    6    0  502  0.14010756527E+03 -0.17044372599E+03  0.43966285402E+02  0.22497606056E+03  0.00000000000E+00 0.  1.
<mgrwt>
<rscale>  0 0.59211164E+03</rscale>
<asrwt>0</asrwt>
<pdfrwt beam="1">  1        1 0.74296777E-01 0.59211164E+03</pdfrwt>
<pdfrwt beam="2">  1       -2 0.18112815E+00 0.59211164E+03</pdfrwt>
<totfact> 0.75535086E+00</totfact>
</mgrwt>
</event>
<event>
12    3  0.2269558E-007  0.4677161E+03  0.7818608E-02  0.1022567E+00
          1   -1    0    0  501    0  0.00000000000E+00  0.00000000000E+00  0.99581460597E+03  0.99581460597E+03  0.00000000000E+00 0. -1.
         -2   -1    0    0    0  501 -0.00000000000E+00 -0.00000000000E+00 -0.27999894832E+03  0.27999894832E+03  0.00000000000E+00 0.  1.
        -24    2    1    2    0    0  0.21609240549E+03  0.22996736416E+03  0.43214338550E+03  0.54097596552E+03  0.79537245003E+02 0.  0.
    5000000    2    1    2    0    0 -0.21609240549E+03 -0.22996736416E+03  0.28367227215E+03  0.73483758877E+03  0.59994617058E+03 0.  0.
        -24    2    4    4    0    0  0.14756377045E+03  0.42663444551E+02  0.20374552984E+03  0.26692761902E+03  0.78376508060E+02 0.  0.
         24    2    4    4    0    0 -0.36365617594E+03 -0.27263080871E+03  0.79926742314E+02  0.46790996976E+03  0.77318067130E+02 0.  0.
         11    1    3    3    0    0  0.13257522516E+03  0.10459431585E+03  0.27924016433E+03  0.32632994133E+03  0.00000000000E+00 0. -1.
        -12    1    3    3    0    0  0.83517180331E+02  0.12537304831E+03  0.15290322117E+03  0.21464602419E+03  0.00000000000E+00 0.  1.
         11    1    5    5    0    0  0.18411462474E+02  0.23897672798E+02  0.86058286714E+02  0.91192704905E+02  0.00000000000E+00 0. -1.
        -12    1    5    5    0    0  0.12915230797E+03  0.18765771752E+02  0.11768724313E+03  0.17573491411E+03  0.00000000000E+00 0.  1.
          4    1    6    6  502    0 -0.20967562537E+03 -0.14105957205E+03  0.80993582729E+02  0.26537074289E+03  0.00000000000E+00 0. -1.
         -3    1    6    6    0  502 -0.15398055057E+03 -0.13157123666E+03 -0.10668404145E+01  0.20253922686E+03  0.00000000000E+00 0.  1.
<mgrwt>
<rscale>  0 0.46771606E+03</rscale>
<asrwt>0</asrwt>
<pdfrwt beam="1">  1        1 0.15320224E+00 0.46771606E+03</pdfrwt>
<pdfrwt beam="2">  1       -2 0.43076762E-01 0.46771606E+03</pdfrwt>
<totfact> 0.71660359E+01</totfact>
</mgrwt>
</event>
<event>
12    3  0.2269558E-007  0.3724136E+03  0.7818608E-02  0.1053774E+00
          1   -1    0    0  501    0  0.00000000000E+00  0.00000000000E+00  0.10139198548E+04  0.10139198548E+04  0.00000000000E+00 0. -1.
         -2   -1    0    0    0  501 -0.00000000000E+00 -0.00000000000E+00 -0.15069047139E+03  0.15069047139E+03  0.00000000000E+00 0.  1.
        -24    2    1    2    0    0  0.11134806571E+03 -0.52140197044E+02  0.69026661003E+02  0.16168343610E+03  0.79119287753E+02 0.  0.
    5000000    2    1    2    0    0 -0.11134806571E+03  0.52140197044E+02  0.79420272236E+03  0.10029268901E+04  0.59998949216E+03 0.  0.
        -24    2    4    4    0    0  0.72037401721E+02 -0.23720036935E+03  0.31904977014E+03  0.41160425689E+03  0.78561479083E+02 0.  0.
         24    2    4    4    0    0 -0.18338546743E+03  0.28934056640E+03  0.47515295222E+03  0.59132263317E+03  0.80894594765E+02 0.  0.
         11    1    3    3    0    0  0.34032763227E+02 -0.57815708162E+02  0.43959940379E+02  0.80208237989E+02  0.00000000000E+00 0. -1.
        -12    1    3    3    0    0  0.77315302480E+02  0.56755111179E+01  0.25066720624E+02  0.81475198108E+02  0.00000000000E+00 0.  1.
         11    1    5    5    0    0  0.19255271464E+02 -0.39355752909E+02  0.11262553769E+03  0.12084764171E+03  0.00000000000E+00 0. -1.
        -12    1    5    5    0    0  0.52782130257E+02 -0.19784461644E+03  0.20642423245E+03  0.29075661518E+03  0.00000000000E+00 0.  1.
          2    1    6    6  502    0 -0.18819524721E+03  0.25481262188E+03  0.41982483757E+03  0.52592757827E+03  0.00000000000E+00 0. -1.
         -1    1    6    6    0  502  0.48097797840E+01  0.34527944514E+02  0.55328114650E+02  0.65395054895E+02  0.00000000000E+00 0.  1.
<mgrwt>
<rscale>  0 0.37241360E+03</rscale>
<asrwt>0</asrwt>
<pdfrwt beam="1">  1        1 0.15598767E+00 0.37241360E+03</pdfrwt>
<pdfrwt beam="2">  1       -2 0.23183150E-01 0.37241360E+03</pdfrwt>
<totfact> 0.22184877E+02</totfact>
</mgrwt>
</event>
<event>
12    3  0.2269558E-007  0.6780323E+03  0.7818608E-02  0.9755555E-01
          1   -1    0    0  501    0  0.00000000000E+00  0.00000000000E+00  0.35839117546E+03  0.35839117546E+03  0.00000000000E+00 0. -1.
         -2   -1    0    0    0  501 -0.00000000000E+00 -0.00000000000E+00 -0.14388156420E+04  0.14388156420E+04  0.00000000000E+00 0.  1.
        -24    2    1    2    0    0  0.54127181751E+03  0.88967193254E+02 -0.71752686758E+03  0.90697571493E+03  0.82884255828E+02 0.  0.
    5000000    2    1    2    0    0 -0.54127181751E+03 -0.88967193254E+02 -0.36289759893E+03  0.89023110251E+03  0.59993866908E+03 0.  0.
        -24    2    4    4    0    0 -0.42299867697E+03  0.20911063664E+03 -0.25905096519E+03  0.54405665069E+03  0.78962633701E+02 0.  0.
         24    2    4    4    0    0 -0.11827314054E+03 -0.29807782989E+03 -0.10384663373E+03  0.34617445182E+03  0.78827021433E+02 0.  0.
         11    1    5    5    0    0 -0.24497847182E+03  0.10403800339E+03 -0.18644054307E+03  0.32495912652E+03  0.00000000000E+00 0. -1.
        -12    1    5    5    0    0 -0.17802020515E+03  0.10507263325E+03 -0.72610422119E+02  0.21909752417E+03  0.00000000000E+00 0.  1.
         13    1    3    3    0    0  0.24963906477E+03  0.79407214884E+02 -0.31222665125E+03  0.40756674323E+03  0.00000000000E+00 0. -1.
        -14    1    3    3    0    0  0.29163275274E+03  0.95599783699E+01 -0.40530021633E+03  0.49940897170E+03  0.00000000000E+00 0.  1.
          2    1    6    6  502    0 -0.48546539482E+02 -0.21763907570E+03 -0.81402832381E+02  0.23738145438E+03  0.00000000000E+00 0. -1.
         -1    1    6    6    0  502 -0.69726601060E+02 -0.80438754193E+02 -0.22443801354E+02  0.10879299743E+03  0.00000000000E+00 0.  1.
<mgrwt>
<rscale>  0 0.67803230E+03</rscale>
<asrwt>0</asrwt>
<pdfrwt beam="1">  1        1 0.55137105E-01 0.67803230E+03</pdfrwt>
<pdfrwt beam="2">  1       -2 0.22135625E+00 0.67803230E+03</pdfrwt>
<totfact> 0.60908366E+00</totfact>
</mgrwt>
</event>
<event>
12    3  0.2269558E-007  0.1672845E+04  0.7818608E-02  0.8777005E-01
         -2   -1    0    0    0  501 -0.00000000000E+00  0.00000000000E+00  0.10130630665E+04  0.10130630665E+04  0.00000000000E+00 0.  1.
          1   -1    0    0  501    0  0.00000000000E+00 -0.00000000000E+00 -0.33867981840E+04  0.33867981840E+04  0.00000000000E+00 0. -1.
        -24    2    1    2    0    0  0.94720046461E+03  0.13659573877E+04 -0.32723694123E+03  0.16959712732E+04  0.78779685108E+02 0.  0.
    5000000    2    1    2    0    0 -0.94720046461E+03 -0.13659573877E+04 -0.20464981762E+04  0.27038899773E+04  0.59986491718E+03 0.  0.
        -24    2    4    4    0    0 -0.48861500590E+03 -0.89911919885E+03 -0.82920556947E+03  0.13194812435E+04  0.79302697089E+02 0.  0.
         24    2    4    4    0    0 -0.45858545871E+03 -0.46683818884E+03 -0.12172926067E+04  0.13844087338E+04  0.80918071251E+02 0.  0.
         13    1    3    3    0    0  0.34341117160E+03  0.56049702724E+03 -0.13946681903E+03  0.67196662412E+03  0.00000000000E+00 0. -1.
        -14    1    3    3    0    0  0.60378929301E+03  0.80546036045E+03 -0.18777012220E+03  0.10240046491E+04  0.00000000000E+00 0.  1.
         13    1    5    5    0    0 -0.32986426805E+03 -0.53120600055E+03 -0.52286889204E+03  0.81509639223E+03  0.00000000000E+00 0. -1.
        -14    1    5    5    0    0 -0.15875073785E+03 -0.36791319830E+03 -0.30633667742E+03  0.50438485127E+03  0.00000000000E+00 0.  1.
          2    1    6    6  502    0 -0.31208317405E+03 -0.34464788094E+03 -0.79405722659E+03  0.92016571793E+03  0.00000000000E+00 0. -1.
         -1    1    6    6    0  502 -0.14650228466E+03 -0.12219030790E+03 -0.42323538015E+03  0.46424301585E+03  0.00000000000E+00 0.  1.
<mgrwt>
<rscale>  0 0.16728450E+04</rscale>
<asrwt>0</asrwt>
<pdfrwt beam="1">  1        1 0.52104588E+00 0.16728450E+04</pdfrwt>
<pdfrwt beam="2">  1       -2 0.15585585E+00 0.16728450E+04</pdfrwt>
<totfact> 0.67705221E-02</totfact>
</mgrwt>
</event>
<event>
12    3  0.2269558E-007  0.5850791E+03  0.7818608E-02  0.9936855E-01
          1   -1    0    0  501    0  0.00000000000E+00  0.00000000000E+00  0.58286029325E+03  0.58286029325E+03  0.00000000000E+00 0. -1.
         -4   -1    0    0    0  501 -0.00000000000E+00 -0.00000000000E+00 -0.79712996917E+03  0.79712996917E+03  0.00000000000E+00 0.  1.
        -24    2    1    2    0    0 -0.42322635206E+03 -0.27745720294E+03 -0.29495093143E+03  0.59096205759E+03  0.78339370821E+02 0.  0.
    5000000    2    1    2    0    0  0.42322635206E+03  0.27745720294E+03  0.80681255507E+02  0.78902820482E+03  0.59996083078E+03 0.  0.
        -24    2    4    4    0    0  0.26567406140E+03 -0.60443989893E+02  0.24394126678E+03  0.37431499239E+03  0.79800934065E+02 0.  0.
         24    2    4    4    0    0  0.15755229066E+03  0.33790119284E+03 -0.16326001127E+03  0.41471321243E+03  0.79581887806E+02 0.  0.
         11    1    3    3    0    0 -0.33040802652E+03 -0.17589732976E+03 -0.20835670444E+03  0.42839450380E+03  0.00000000000E+00 0. -1.
        -12    1    3    3    0    0 -0.92818325543E+02 -0.10155987318E+03 -0.86594226991E+02  0.16256755379E+03  0.00000000000E+00 0.  1.
         13    1    5    5    0    0  0.56398717140E+02 -0.34617435389E+02  0.26103561966E+02  0.71137740162E+02  0.00000000000E+00 0. -1.
        -14    1    5    5    0    0  0.20927534426E+03 -0.25826554503E+02  0.21783770481E+03  0.30317725223E+03  0.00000000000E+00 0.  1.
          2    1    6    6  502    0  0.12377825040E+03  0.17193644509E+03 -0.89913926448E+02  0.23014714987E+03  0.00000000000E+00 0. -1.
         -1    1    6    6    0  502  0.33774040263E+02  0.16596474774E+03 -0.73346084824E+02  0.18456606256E+03  0.00000000000E+00 0.  1.
<mgrwt>
<rscale>  0 0.58507909E+03</rscale>
<asrwt>0</asrwt>
<pdfrwt beam="1">  1        1 0.89670814E-01 0.58507909E+03</pdfrwt>
<pdfrwt beam="2">  1       -4 0.12263538E+00 0.58507909E+03</pdfrwt>
<totfact> 0.87050032E+00</totfact>
</mgrwt>
</event>
<event>
12    3  0.2269558E-007  0.4365229E+03  0.7818608E-02  0.1031819E+00
         -2   -1    0    0    0  501 -0.00000000000E+00  0.00000000000E+00  0.27092176452E+03  0.27092176452E+03  0.00000000000E+00 0.  1.
          1   -1    0    0  501    0  0.00000000000E+00 -0.00000000000E+00 -0.21390297157E+04  0.21390297157E+04  0.00000000000E+00 0. -1.
        -24    2    1    2    0    0 -0.28137304405E+03 -0.20247448356E+02 -0.17012207146E+04  0.17262512589E+04  0.78808247854E+02 0.  0.
    5000000    2    1    2    0    0  0.28137304405E+03  0.20247448356E+02 -0.16688723656E+03  0.68370022132E+03  0.60001157808E+03 0.  0.
        -24    2    4    4    0    0 -0.50596327323E+02 -0.18544830759E+03 -0.19346856127E+03  0.28405978341E+03  0.79428038024E+02 0.  0.
         24    2    4    4    0    0  0.33196937137E+03  0.20569575594E+03  0.26581324709E+02  0.39964043792E+03  0.80569878084E+02 0.  0.
         13    1    3    3    0    0 -0.13275904754E+03  0.19312507108E+02 -0.95231485963E+03  0.96171800935E+03  0.00000000000E+00 0. -1.
        -14    1    3    3    0    0 -0.14861399651E+03 -0.39559955464E+02 -0.74890585494E+03  0.76453324951E+03  0.00000000000E+00 0.  1.
         13    1    5    5    0    0 -0.27555432605E+02 -0.14699621956E+03 -0.98602206622E+02  0.17913566250E+03  0.00000000000E+00 0. -1.
        -14    1    5    5    0    0 -0.23040894717E+02 -0.38452088031E+02 -0.94866354649E+02  0.10492412091E+03  0.00000000000E+00 0.  1.
          2    1    6    6  502    0  0.10966309768E+03  0.74661271632E+02  0.47091330282E+02  0.14077604151E+03  0.00000000000E+00 0. -1.
         -1    1    6    6    0  502  0.22230627369E+03  0.13103448431E+03 -0.20510005573E+02  0.25886439641E+03  0.00000000000E+00 0.  1.
<mgrwt>
<rscale>  0 0.43652289E+03</rscale>
<asrwt>0</asrwt>
<pdfrwt beam="1">  1        1 0.32908152E+00 0.43652289E+03</pdfrwt>
<pdfrwt beam="2">  1       -2 0.41680268E-01 0.43652289E+03</pdfrwt>
<totfact> 0.12719848E+01</totfact>
</mgrwt>
</event>
<event>
12    3  0.2269558E-007  0.4619008E+03  0.7818608E-02  0.1024231E+00
         -2   -1    0    0    0  501 -0.00000000000E+00  0.00000000000E+00  0.35833918172E+03  0.35833918172E+03  0.00000000000E+00 0.  1.
          1   -1    0    0  501    0  0.00000000000E+00 -0.00000000000E+00 -0.66342819862E+03  0.66342819862E+03  0.00000000000E+00 0. -1.
        -24    2    1    2    0    0 -0.19002249666E+03  0.21873668757E+03 -0.34586094319E+02  0.30280714989E+03  0.80880679886E+02 0.  0.
    5000000    2    1    2    0    0  0.19002249666E+03 -0.21873668757E+03 -0.27050292258E+03  0.71896023045E+03  0.59981471649E+03 0.  0.
        -24    2    4    4    0    0  0.38062316924E+03 -0.17325641002E+03 -0.27922790159E+03  0.50915277677E+03  0.79853293554E+02 0.  0.
         24    2    4    4    0    0 -0.19060067257E+03 -0.45480277549E+02  0.87249790096E+01  0.20980745369E+03  0.74471271855E+02 0.  0.
         11    1    3    3    0    0 -0.18668205115E+03  0.18299207807E+03 -0.45374500872E+02  0.26532081370E+03  0.00000000000E+00 0. -1.
        -12    1    3    3    0    0 -0.33404455147E+01  0.35744609503E+02  0.10788406553E+02  0.37486336187E+02  0.00000000000E+00 0.  1.
         13    1    5    5    0    0  0.24662781462E+03 -0.13385000785E+03 -0.22364742928E+03  0.35883042815E+03  0.00000000000E+00 0. -1.
        -14    1    5    5    0    0  0.13399535462E+03 -0.39406402173E+02 -0.55580472312E+02  0.15032234862E+03  0.00000000000E+00 0.  1.
          2    1    6    6  502    0 -0.84971361162E+02  0.12226434926E+02  0.22256635456E+02  0.88684698514E+02  0.00000000000E+00 0. -1.
         -1    1    6    6    0  502 -0.10562931141E+03 -0.57706712476E+02 -0.13531656446E+02  0.12112275517E+03  0.00000000000E+00 0.  1.
<mgrwt>
<rscale>  0 0.46190079E+03</rscale>
<asrwt>0</asrwt>
<pdfrwt beam="1">  1        1 0.10206588E+00 0.46190079E+03</pdfrwt>
<pdfrwt beam="2">  1       -2 0.55129106E-01 0.46190079E+03</pdfrwt>
<totfact> 0.83363547E+01</totfact>
</mgrwt>
</event>
<event>
12    3  0.2269558E-007  0.1259842E+04  0.7818608E-02  0.9062031E-01
         -2   -1    0    0    0  501 -0.00000000000E+00  0.00000000000E+00  0.12885472483E+04  0.12885472483E+04  0.00000000000E+00 0.  1.
          1   -1    0    0  501    0  0.00000000000E+00 -0.00000000000E+00 -0.13194130797E+04  0.13194130797E+04  0.00000000000E+00 0. -1.
        -24    2    1    2    0    0 -0.45884483778E+02  0.12054826790E+04 -0.27208682311E+03  0.12392569772E+04  0.80204370910E+02 0.  0.
    5000000    2    1    2    0    0  0.45884483778E+02 -0.12054826790E+04  0.24122099174E+03  0.13687033508E+04  0.59988950679E+03 0.  0.
        -24    2    4    4    0    0 -0.22794062894E+03 -0.51193079140E+03 -0.40783513012E+02  0.56745845932E+03  0.79471646606E+02 0.  0.
         24    2    4    4    0    0  0.27382511272E+03 -0.69355188760E+03  0.28200450475E+03  0.80124489145E+03  0.80451365642E+02 0.  0.
         13    1    3    3    0    0 -0.68770512332E+02  0.96276687328E+03 -0.21886104779E+03  0.98972197808E+03  0.00000000000E+00 0. -1.
        -14    1    3    3    0    0  0.22886028554E+02  0.24271580571E+03 -0.53225775315E+02  0.24953499915E+03  0.00000000000E+00 0.  1.
         13    1    5    5    0    0 -0.14494158848E+03 -0.23982060098E+03 -0.11206321357E+01  0.28021998598E+03  0.00000000000E+00 0. -1.
        -14    1    5    5    0    0 -0.82999040461E+02 -0.27211019041E+03 -0.39662880876E+02  0.28723847334E+03  0.00000000000E+00 0.  1.
          4    1    6    6  502    0  0.15996978912E+03 -0.37566910970E+03  0.11302646810E+03  0.42366566525E+03  0.00000000000E+00 0. -1.
         -3    1    6    6    0  502  0.11385532360E+03 -0.31788277789E+03  0.16897803665E+03  0.37757922621E+03  0.00000000000E+00 0.  1.
<mgrwt>
<rscale>  0 0.12598425E+04</rscale>
<asrwt>0</asrwt>
<pdfrwt beam="1">  1        1 0.20298663E+00 0.12598425E+04</pdfrwt>
<pdfrwt beam="2">  1       -2 0.19823804E+00 0.12598425E+04</pdfrwt>
<totfact> 0.10157237E+00</totfact>
</mgrwt>
</event>
<event>
12    3  0.2269558E-007  0.7508482E+03  0.7818608E-02  0.9634021E-01
         -2   -1    0    0    0  501 -0.00000000000E+00  0.00000000000E+00  0.76643042458E+03  0.76643042458E+03  0.00000000000E+00 0.  1.
          1   -1    0    0  501    0  0.00000000000E+00 -0.00000000000E+00 -0.14620896191E+04  0.14620896191E+04  0.00000000000E+00 0. -1.
        -24    2    1    2    0    0  0.75643918400E+02  0.70783893037E+03  0.37565351559E+03  0.80916573293E+03  0.82919634754E+02 0.  0.
    5000000    2    1    2    0    0 -0.75643918400E+02 -0.70783893037E+03 -0.10713127101E+04  0.14193543108E+04  0.60008148020E+03 0.  0.
        -24    2    4    4    0    0  0.13144351747E+03 -0.30911739104E+03 -0.83894560724E+03  0.90720428612E+03  0.79742868771E+02 0.  0.
         24    2    4    4    0    0 -0.20708743587E+03 -0.39872153933E+03 -0.23236710290E+03  0.51215002466E+03  0.80244035456E+02 0.  0.
         11    1    5    5    0    0  0.57064237986E+02 -0.13019176500E+03 -0.25493288061E+03  0.29188524551E+03  0.00000000000E+00 0. -1.
        -12    1    5    5    0    0  0.74379279482E+02 -0.17892562604E+03 -0.58401272663E+03  0.61531904061E+03  0.00000000000E+00 0.  1.
         11    1    3    3    0    0  0.80931766245E+01  0.44599311575E+03  0.24304420823E+03  0.50798213153E+03  0.00000000000E+00 0. -1.
        -12    1    3    3    0    0  0.67550741776E+02  0.26184581462E+03  0.13260930736E+03  0.30118360139E+03  0.00000000000E+00 0.  1.
          2    1    6    6  502    0 -0.15276881579E+03 -0.29386337939E+03 -0.20940133267E+03  0.39184552434E+03  0.00000000000E+00 0. -1.
         -1    1    6    6    0  502 -0.54318620080E+02 -0.10485815995E+03 -0.22965770229E+02  0.12030450032E+03  0.00000000000E+00 0.  1.
<mgrwt>
<rscale>  0 0.75084825E+03</rscale>
<asrwt>0</asrwt>
<pdfrwt beam="1">  1        1 0.22493687E+00 0.75084825E+03</pdfrwt>
<pdfrwt beam="2">  1       -2 0.11791237E+00 0.75084825E+03</pdfrwt>
<totfact> 0.34927219E+00</totfact>
</mgrwt>
</event>
<event>
12    3  0.2269558E-007  0.2031682E+04  0.7818608E-02  0.8591950E-01
          1   -1    0    0  501    0  0.00000000000E+00  0.00000000000E+00  0.17754558111E+04  0.17754558111E+04  0.00000000000E+00 0. -1.
         -2   -1    0    0    0  501 -0.00000000000E+00 -0.00000000000E+00 -0.25533536680E+04  0.25533536680E+04  0.00000000000E+00 0.  1.
        -24    2    1    2    0    0 -0.38377875315E+02  0.19885294957E+04  0.25842506721E+03  0.20072581818E+04  0.81113971029E+02 0.  0.
    5000000    2    1    2    0    0  0.38377875315E+02 -0.19885294957E+04 -0.10363229241E+04  0.23215512973E+04  0.59992733432E+03 0.  0.
        -24    2    4    4    0    0  0.19385684930E+03 -0.24327398345E+03 -0.20106174033E+03  0.37882871305E+03  0.79515164346E+02 0.  0.
         24    2    4    4    0    0 -0.15547897399E+03 -0.17452555122E+04 -0.83526118380E+03  0.19427225843E+04  0.80120408863E+02 0.  0.
         11    1    3    3    0    0  0.51105404025E+01  0.13300584895E+04  0.14990350078E+03  0.13384889848E+04  0.00000000000E+00 0. -1.
        -12    1    3    3    0    0 -0.43488415717E+02  0.65847100624E+03  0.10852156643E+03  0.66876919692E+03  0.00000000000E+00 0.  1.
         11    1    5    5    0    0  0.16183693224E+03 -0.23913893230E+03 -0.17927617676E+03  0.33988022763E+03  0.00000000000E+00 0. -1.
        -12    1    5    5    0    0  0.32019917055E+02 -0.41350511482E+01 -0.21785563566E+02  0.38948485415E+02  0.00000000000E+00 0.  1.
          4    1    6    6  502    0 -0.11293745513E+03 -0.13839045427E+04 -0.69552674368E+03  0.15529662273E+04  0.00000000000E+00 0. -1.
         -3    1    6    6    0  502 -0.42541518856E+02 -0.36135096954E+03 -0.13973444012E+03  0.38975635693E+03  0.00000000000E+00 0.  1.
<mgrwt>
<rscale>  0 0.20316825E+04</rscale>
<asrwt>0</asrwt>
<pdfrwt beam="1">  1        1 0.27314705E+00 0.20316825E+04</pdfrwt>
<pdfrwt beam="2">  1       -2 0.39282364E+00 0.20316825E+04</pdfrwt>
<totfact> 0.27214000E-02</totfact>
</mgrwt>
</event>
<event>
12    3  0.2269558E-007  0.4389424E+03  0.7818608E-02  0.1031072E+00
          1   -1    0    0  501    0  0.00000000000E+00  0.00000000000E+00  0.10401401882E+03  0.10401401882E+03  0.00000000000E+00 0. -1.
         -2   -1    0    0    0  501 -0.00000000000E+00 -0.00000000000E+00 -0.24064316209E+04  0.24064316209E+04  0.00000000000E+00 0.  1.
        -24    2    1    2    0    0  0.31346822722E+03 -0.12808997408E+02 -0.76357716835E+03  0.82923152585E+03  0.78411934968E+02 0.  0.
    5000000    2    1    2    0    0 -0.31346822722E+03  0.12808997408E+02 -0.15388404337E+04  0.16812141138E+04  0.60002051320E+03 0.  0.
        -24    2    4    4    0    0 -0.36025879913E+03  0.16699242892E+03 -0.14087875346E+04  0.14659298321E+04  0.81210106692E+02 0.  0.
         24    2    4    4    0    0  0.46790571913E+02 -0.15418343151E+03 -0.13005289908E+03  0.21528428168E+03  0.58920940304E+02 0.  0.
         13    1    5    5    0    0 -0.69553769274E+02  0.23940369170E+02 -0.38958882681E+03  0.39647234717E+03  0.00000000000E+00 0. -1.
        -14    1    5    5    0    0 -0.29070502986E+03  0.14305205975E+03 -0.10191987078E+04  0.10694574850E+04  0.00000000000E+00 0.  1.
         13    1    3    3    0    0  0.23706455086E+03 -0.33646954337E+02 -0.50673176036E+03  0.56045409782E+03  0.00000000000E+00 0. -1.
        -14    1    3    3    0    0  0.76403676364E+02  0.20837956929E+02 -0.25684540799E+03  0.26877742802E+03  0.00000000000E+00 0.  1.
          4    1    6    6  502    0  0.78622253588E+01 -0.47188369145E+02 -0.74650335668E+02  0.88663574176E+02  0.00000000000E+00 0. -1.
         -3    1    6    6    0  502  0.38928346555E+02 -0.10699506237E+03 -0.55402563415E+02  0.12662070751E+03  0.00000000000E+00 0.  1.
<mgrwt>
<rscale>  0 0.43894241E+03</rscale>
<asrwt>0</asrwt>
<pdfrwt beam="1">  1        1 0.16002155E-01 0.43894241E+03</pdfrwt>
<pdfrwt beam="2">  1       -2 0.37022028E+00 0.43894241E+03</pdfrwt>
<totfact> 0.39770998E+00</totfact>
</mgrwt>
</event>
<event>
12    3  0.2269558E-007  0.4294646E+03  0.7818608E-02  0.1034029E+00
         -4   -1    0    0    0  501 -0.00000000000E+00  0.00000000000E+00  0.28137958068E+03  0.28137958068E+03  0.00000000000E+00 0.  1.
          1   -1    0    0  501    0  0.00000000000E+00 -0.00000000000E+00 -0.79491852698E+03  0.79491852698E+03  0.00000000000E+00 0. -1.
        -24    2    1    2    0    0 -0.74777382601E+02  0.25069281846E+03 -0.24864786910E+03  0.37023069705E+03  0.82501273057E+02 0.  0.
    5000000    2    1    2    0    0  0.74777382601E+02 -0.25069281846E+03 -0.26489107721E+03  0.70606741061E+03  0.59993779624E+03 0.  0.
        -24    2    4    4    0    0  0.16213708701E+03  0.12321812113E+03  0.22470991606E+02  0.21978968585E+03  0.79570221703E+02 0.  0.
         24    2    4    4    0    0 -0.87359704411E+02 -0.37391093959E+03 -0.28736206882E+03  0.48627772476E+03  0.80299180010E+02 0.  0.
         13    1    3    3    0    0 -0.36199009616E+02  0.12831533250E+03 -0.18209094685E+03  0.22568186852E+03  0.00000000000E+00 0. -1.
        -14    1    3    3    0    0 -0.38578372985E+02  0.12237748596E+03 -0.66556922246E+02  0.14454882853E+03  0.00000000000E+00 0.  1.
         13    1    5    5    0    0  0.10537065807E+03  0.44866084573E+02 -0.16059248042E+02  0.11564532232E+03  0.00000000000E+00 0. -1.
        -14    1    5    5    0    0  0.56766428944E+02  0.78352036553E+02  0.38530239648E+02  0.10414436353E+03  0.00000000000E+00 0.  1.
          4    1    6    6  502    0 -0.59132031919E+02 -0.16649490399E+03 -0.17508055456E+03  0.24873751394E+03  0.00000000000E+00 0. -1.
         -3    1    6    6    0  502 -0.28227672492E+02 -0.20741603559E+03 -0.11228151425E+03  0.23754021082E+03  0.00000000000E+00 0.  1.
<mgrwt>
<rscale>  0 0.42946458E+03</rscale>
<asrwt>0</asrwt>
<pdfrwt beam="1">  1        1 0.12229516E+00 0.42946458E+03</pdfrwt>
<pdfrwt beam="2">  1       -4 0.43289167E-01 0.42946458E+03</pdfrwt>
<totfact> 0.57059323E+01</totfact>
</mgrwt>
</event>
<event>
12    3  0.2269558E-007  0.8294525E+03  0.7818608E-02  0.9518338E-01
          1   -1    0    0  501    0  0.00000000000E+00  0.00000000000E+00  0.46595401753E+03  0.46595401753E+03  0.00000000000E+00 0. -1.
         -2   -1    0    0    0  501 -0.00000000000E+00 -0.00000000000E+00 -0.17497286550E+04  0.17497286550E+04  0.00000000000E+00 0.  1.
        -24    2    1    2    0    0  0.45652277629E+03 -0.65545403454E+03 -0.49547896859E+03  0.94317653119E+03  0.77778686068E+02 0.  0.
    5000000    2    1    2    0    0 -0.45652277629E+03  0.65545403454E+03 -0.78829566893E+03  0.12725061414E+04  0.59985730100E+03 0.  0.
        -24    2    4    4    0    0 -0.15756811060E+03  0.43866851194E+02 -0.49402369168E+03  0.52656989317E+03  0.80401706071E+02 0.  0.
         24    2    4    4    0    0 -0.29895466569E+03  0.61158718334E+03 -0.29427197725E+03  0.74593624822E+03  0.80075681998E+02 0.  0.
         11    1    3    3    0    0  0.12558278706E+03 -0.24233297527E+03 -0.18036980838E+03  0.32715374839E+03  0.00000000000E+00 0. -1.
        -12    1    3    3    0    0  0.33093998923E+03 -0.41312105926E+03 -0.31510916021E+03  0.61602278280E+03  0.00000000000E+00 0.  1.
         13    1    5    5    0    0 -0.30726159825E+02  0.38056405068E+02 -0.20724188120E+03  0.21293563390E+03  0.00000000000E+00 0. -1.
        -14    1    5    5    0    0 -0.12684195077E+03  0.58104461259E+01 -0.28678181048E+03  0.31363425927E+03  0.00000000000E+00 0.  1.
          2    1    6    6  502    0 -0.64150163506E+02  0.12919031191E+03 -0.99225940520E+02  0.17507474816E+03  0.00000000000E+00 0. -1.
         -1    1    6    6    0  502 -0.23480450219E+03  0.48239687143E+03 -0.19504603673E+03  0.57086150006E+03  0.00000000000E+00 0.  1.
<mgrwt>
<rscale>  0 0.82945249E+03</rscale>
<asrwt>0</asrwt>
<pdfrwt beam="1">  1        1 0.71685234E-01 0.82945249E+03</pdfrwt>
<pdfrwt beam="2">  1       -2 0.26918902E+00 0.82945249E+03</pdfrwt>
<totfact> 0.21520549E+00</totfact>
</mgrwt>
</event>
<event>
12    3  0.2269558E-007  0.1195456E+04  0.7818608E-02  0.9116843E-01
          1   -1    0    0  501    0  0.00000000000E+00  0.00000000000E+00  0.24193579959E+04  0.24193579959E+04  0.00000000000E+00 0. -1.
         -2   -1    0    0    0  501 -0.00000000000E+00 -0.00000000000E+00 -0.76275151933E+03  0.76275151933E+03  0.00000000000E+00 0.  1.
        -24    2    1    2    0    0  0.99751172308E+03  0.65177408367E+03  0.20692634640E+03  0.12120339567E+04  0.79804169589E+02 0.  0.
    5000000    2    1    2    0    0 -0.99751172308E+03 -0.65177408367E+03  0.14496801302E+04  0.19700755586E+04  0.59982175082E+03 0.  0.
        -24    2    4    4    0    0 -0.27253302303E+03 -0.23938959104E+03  0.10398234749E+03  0.38569553133E+03  0.79794043358E+02 0.  0.
         24    2    4    4    0    0 -0.72497870005E+03 -0.41238449263E+03  0.13456977827E+04  0.15843800272E+04  0.60847868149E+02 0.  0.
         11    1    5    5    0    0 -0.12603271038E+03 -0.10521331731E+03  0.62468486147E+01  0.16429579831E+03  0.00000000000E+00 0. -1.
        -12    1    5    5    0    0 -0.14650031265E+03 -0.13417627373E+03  0.97735498878E+02  0.22139973302E+03  0.00000000000E+00 0.  1.
         13    1    3    3    0    0  0.46146993745E+03  0.33526507593E+03  0.12750327270E+03  0.58447776592E+03  0.00000000000E+00 0. -1.
        -14    1    3    3    0    0  0.53604178563E+03  0.31650900775E+03  0.79423073698E+02  0.62755619076E+03  0.00000000000E+00 0.  1.
          2    1    6    6  502    0 -0.36722739043E+03 -0.18417576584E+03  0.70279817393E+03  0.81406507251E+03  0.00000000000E+00 0. -1.
         -1    1    6    6    0  502 -0.35775130961E+03 -0.22820872679E+03  0.64289960877E+03  0.77031495472E+03  0.00000000000E+00 0.  1.
<mgrwt>
<rscale>  0 0.11954564E+04</rscale>
<asrwt>0</asrwt>
<pdfrwt beam="1">  1        1 0.37220892E+00 0.11954564E+04</pdfrwt>
<pdfrwt beam="2">  1       -2 0.11734639E+00 0.11954564E+04</pdfrwt>
<totfact> 0.74672738E-01</totfact>
</mgrwt>
</event>
<event>
12    3  0.2269558E-007  0.3348159E+03  0.7818608E-02  0.1069026E+00
          1   -1    0    0  501    0  0.00000000000E+00  0.00000000000E+00  0.49546209748E+03  0.49546209748E+03  0.00000000000E+00 0. -1.
         -2   -1    0    0    0  501 -0.00000000000E+00 -0.00000000000E+00 -0.36810298154E+03  0.36810298154E+03  0.00000000000E+00 0.  1.
        -24    2    1    2    0    0  0.14079187438E+03  0.13804667070E+03  0.67450974472E+02  0.22913770987E+03  0.95263954063E+02 0.  0.
    5000000    2    1    2    0    0 -0.14079187438E+03 -0.13804667070E+03  0.59908141467E+02  0.63442736915E+03  0.60002488793E+03 0.  0.
        -24    2    4    4    0    0  0.13471403989E+03 -0.11244144992E+03  0.23014519951E+03  0.29995189078E+03  0.78824943507E+02 0.  0.
         24    2    4    4    0    0 -0.27550591427E+03 -0.25605220782E+02 -0.17023705804E+03  0.33447547838E+03  0.79586767595E+02 0.  0.
         13    1    3    3    0    0  0.91882151466E+02  0.99976753668E+02  0.90311831831E+02  0.16307638701E+03  0.00000000000E+00 0. -1.
        -14    1    3    3    0    0  0.48909722914E+02  0.38069917035E+02 -0.22860857360E+02  0.66061322858E+02  0.00000000000E+00 0.  1.
         13    1    5    5    0    0  0.13085511833E+03 -0.67665790525E+02  0.18053982024E+03  0.23301576748E+03  0.00000000000E+00 0. -1.
        -14    1    5    5    0    0  0.38589215625E+01 -0.44775659396E+02  0.49605379268E+02  0.66936123299E+02  0.00000000000E+00 0.  1.
          2    1    6    6  502    0 -0.19865748278E+03 -0.36532192623E+02 -0.15678525459E+03  0.25569711109E+03  0.00000000000E+00 0. -1.
         -1    1    6    6    0  502 -0.76848431495E+02  0.10926971841E+02 -0.13451803446E+02  0.78778367289E+02  0.00000000000E+00 0.  1.
<mgrwt>
<rscale>  0 0.33481588E+03</rscale>
<asrwt>0</asrwt>
<pdfrwt beam="1">  1        1 0.76224938E-01 0.33481588E+03</pdfrwt>
<pdfrwt beam="2">  1       -2 0.56631228E-01 0.33481588E+03</pdfrwt>
<totfact> 0.12016299E+02</totfact>
</mgrwt>
</event>
<event>
12    3  0.2269558E-007  0.6498828E+03  0.7818608E-02  0.9806999E-01
          1   -1    0    0  501    0  0.00000000000E+00  0.00000000000E+00  0.42050530783E+03  0.42050530783E+03  0.00000000000E+00 0. -1.
         -2   -1    0    0    0  501 -0.00000000000E+00 -0.00000000000E+00 -0.15682074367E+04  0.15682074367E+04  0.00000000000E+00 0.  1.
        -24    2    1    2    0    0  0.49396365425E+03 -0.27259426182E+03  0.71452835789E+01  0.57013672401E+03  0.81835845996E+02 0.  0.
    5000000    2    1    2    0    0 -0.49396365425E+03  0.27259426182E+03 -0.11548474124E+04  0.14185760205E+04  0.60031463137E+03 0.  0.
        -24    2    4    4    0    0 -0.56250612507E+03  0.18238574282E+03 -0.60121110957E+03  0.84703665758E+03  0.79615332022E+02 0.  0.
         24    2    4    4    0    0  0.68542470818E+02  0.90208518996E+02 -0.55363630285E+03  0.57153936291E+03  0.85489416375E+02 0.  0.
         11    1    5    5    0    0 -0.11623582818E+03  0.51916406106E+02 -0.17416507029E+03  0.21573027762E+03  0.00000000000E+00 0. -1.
        -12    1    5    5    0    0 -0.44627029689E+03  0.13046933672E+03 -0.42704603928E+03  0.63130637996E+03  0.00000000000E+00 0.  1.
         13    1    3    3    0    0  0.33022333751E+03 -0.21855039847E+03  0.25019118568E+02  0.39678418013E+03  0.00000000000E+00 0. -1.
        -14    1    3    3    0    0  0.16374031674E+03 -0.54043863346E+02 -0.17873834989E+02  0.17335254388E+03  0.00000000000E+00 0.  1.
          2    1    6    6  502    0  0.30666064129E+02  0.95993259756E+02 -0.44728724111E+03  0.45849862538E+03  0.00000000000E+00 0. -1.
         -1    1    6    6    0  502  0.37876406689E+02 -0.57847407600E+01 -0.10634906174E+03  0.11304073754E+03  0.00000000000E+00 0.  1.
<mgrwt>
<rscale>  0 0.64988276E+03</rscale>
<asrwt>0</asrwt>
<pdfrwt beam="1">  1        1 0.64693123E-01 0.64988276E+03</pdfrwt>
<pdfrwt beam="2">  1       -2 0.24126269E+00 0.64988276E+03</pdfrwt>
<totfact> 0.37371096E+00</totfact>
</mgrwt>
</event>
<event>
12    3  0.2269558E-007  0.4158613E+03  0.7818608E-02  0.1038422E+00
          1   -1    0    0  501    0  0.00000000000E+00  0.00000000000E+00  0.34157181183E+03  0.34157181183E+03  0.00000000000E+00 0. -1.
         -2   -1    0    0    0  501 -0.00000000000E+00 -0.00000000000E+00 -0.59197852190E+03  0.59197852190E+03  0.00000000000E+00 0.  1.
        -24    2    1    2    0    0  0.17694864342E+03  0.10586147356E+03  0.56675046020E+02  0.22839995374E+03  0.80230941858E+02 0.  0.
    5000000    2    1    2    0    0 -0.17694864342E+03 -0.10586147356E+03 -0.30708175609E+03  0.70515037999E+03  0.60035021403E+03 0.  0.
        -24    2    4    4    0    0 -0.43908103387E+02 -0.33791221757E+03 -0.21572461342E+03  0.41125971757E+03  0.80528616843E+02 0.  0.
         24    2    4    4    0    0 -0.13304054003E+03  0.23205074401E+03 -0.91357142664E+02  0.29389066242E+03  0.80487644131E+02 0.  0.
         11    1    3    3    0    0  0.10634551833E+03  0.28752385769E+02  0.56593644699E+02  0.12385035154E+03  0.00000000000E+00 0. -1.
        -12    1    3    3    0    0  0.70603125093E+02  0.77109087795E+02  0.81401321207E-01  0.10454960220E+03  0.00000000000E+00 0.  1.
         11    1    5    5    0    0  0.12486840788E+02 -0.10467092517E+03 -0.98186661806E+02  0.14405743412E+03  0.00000000000E+00 0. -1.
        -12    1    5    5    0    0 -0.56394944175E+02 -0.23324129240E+03 -0.11753795162E+03  0.26720228344E+03  0.00000000000E+00 0.  1.
          4    1    6    6  502    0 -0.65372232820E+02  0.15974179127E+03 -0.24329615636E+02  0.17430691007E+03  0.00000000000E+00 0. -1.
         -3    1    6    6    0  502 -0.67668307213E+02  0.72308952737E+02 -0.67027527028E+02  0.11958375235E+03  0.00000000000E+00 0.  1.
<mgrwt>
<rscale>  0 0.41586132E+03</rscale>
<asrwt>0</asrwt>
<pdfrwt beam="1">  1        1 0.52549510E-01 0.41586132E+03</pdfrwt>
<pdfrwt beam="2">  1       -2 0.91073618E-01 0.41586132E+03</pdfrwt>
<totfact> 0.69053046E+01</totfact>
</mgrwt>
</event>
<event>
12    3  0.2269558E-007  0.1413420E+04  0.7818608E-02  0.8944162E-01
          1   -1    0    0  501    0  0.00000000000E+00  0.00000000000E+00  0.15104598102E+04  0.15104598102E+04  0.00000000000E+00 0. -1.
         -2   -1    0    0    0  501 -0.00000000000E+00 -0.00000000000E+00 -0.16701622122E+04  0.16701622122E+04  0.00000000000E+00 0.  1.
        -24    2    1    2    0    0 -0.54902240597E+03 -0.12811948982E+04  0.55613234165E+03  0.15027599694E+04  0.78220041600E+02 0.  0.
    5000000    2    1    2    0    0  0.54902240597E+03  0.12811948982E+04 -0.71583474368E+03  0.16778620530E+04  0.59992976198E+03 0.  0.
        -24    2    4    4    0    0  0.47604394081E+03  0.71091846528E+03 -0.67985272229E+03  0.10956190018E+04  0.78475315884E+02 0.  0.
         24    2    4    4    0    0  0.72978465163E+02  0.57027643291E+03 -0.35982021394E+02  0.58224305124E+03  0.84682929494E+02 0.  0.
         13    1    5    5    0    0  0.27169732134E+03  0.40583654369E+03 -0.33813933585E+03  0.59402099716E+03  0.00000000000E+00 0. -1.
        -14    1    5    5    0    0  0.20434661947E+03  0.30508192160E+03 -0.34171338643E+03  0.50159800462E+03  0.00000000000E+00 0.  1.
         13    1    3    3    0    0 -0.52835167682E+03 -0.11835842991E+04  0.51098162744E+03  0.13932442396E+04  0.00000000000E+00 0. -1.
        -14    1    3    3    0    0 -0.20670729154E+02 -0.97610599047E+02  0.45150714205E+02  0.10951572984E+03  0.00000000000E+00 0.  1.
          4    1    6    6  502    0  0.44051778724E+02  0.26052575505E+03  0.24367687705E+02  0.26534508184E+03  0.00000000000E+00 0. -1.
         -3    1    6    6    0  502  0.28926686438E+02  0.30975067786E+03 -0.60349709099E+02  0.31689796941E+03  0.00000000000E+00 0.  1.
<mgrwt>
<rscale>  0 0.14134198E+04</rscale>
<asrwt>0</asrwt>
<pdfrwt beam="1">  1        1 0.23237843E+00 0.14134198E+04</pdfrwt>
<pdfrwt beam="2">  1       -2 0.25694803E+00 0.14134198E+04</pdfrwt>
<totfact> 0.31253228E-01</totfact>
</mgrwt>
</event>
<event>
12    3  0.2269558E-007  0.1206968E+04  0.7818608E-02  0.9106779E-01
         -2   -1    0    0    0  501 -0.00000000000E+00  0.00000000000E+00  0.11791644869E+04  0.11791644869E+04  0.00000000000E+00 0.  1.
          1   -1    0    0  501    0  0.00000000000E+00 -0.00000000000E+00 -0.12600813246E+04  0.12600813246E+04  0.00000000000E+00 0. -1.
        -24    2    1    2    0    0 -0.75107299609E+03  0.84918042981E+03 -0.18074231133E+03  0.11526827219E+04  0.10388275345E+03 0.  0.
    5000000    2    1    2    0    0  0.75107299609E+03 -0.84918042981E+03  0.99825473671E+02  0.12865630896E+04  0.60005117323E+03 0.  0.
        -24    2    4    4    0    0  0.67232405882E+03 -0.33682435005E+03  0.80326396182E+02  0.76037576831E+03  0.79048695546E+02 0.  0.
         24    2    4    4    0    0  0.78748937277E+02 -0.51235607976E+03  0.19499077489E+02  0.52618732128E+03  0.88219813358E+02 0.  0.
         11    1    5    5    0    0  0.53436109283E+02 -0.51580784224E+02  0.15225953389E+02  0.75814409798E+02  0.00000000000E+00 0. -1.
        -12    1    5    5    0    0  0.61888794953E+03 -0.28524356582E+03  0.65100442793E+02  0.68456135852E+03  0.00000000000E+00 0.  1.
         13    1    3    3    0    0 -0.18963441942E+03  0.15039724909E+03 -0.39344885577E+02  0.24521126724E+03  0.00000000000E+00 0. -1.
        -14    1    3    3    0    0 -0.56143857668E+03  0.69878318072E+03 -0.14139742576E+03  0.90747145467E+03  0.00000000000E+00 0.  1.
          4    1    6    6  502    0  0.67739602128E+02 -0.31882744037E+03  0.50658554480E+02  0.32985736246E+03  0.00000000000E+00 0. -1.
         -3    1    6    6    0  502  0.11009335149E+02 -0.19352863939E+03 -0.31159476991E+02  0.19632995882E+03  0.00000000000E+00 0.  1.
<mgrwt>
<rscale>  0 0.12069682E+04</rscale>
<asrwt>0</asrwt>
<pdfrwt beam="1">  1        1 0.19385866E+00 0.12069682E+04</pdfrwt>
<pdfrwt beam="2">  1       -2 0.18140992E+00 0.12069682E+04</pdfrwt>
<totfact> 0.14631327E+00</totfact>
</mgrwt>
</event>
<event>
12    3  0.2269558E-007  0.7614471E+03  0.7818608E-02  0.9617561E-01
          1   -1    0    0  501    0  0.00000000000E+00  0.00000000000E+00  0.75097550919E+03  0.75097550919E+03  0.00000000000E+00 0. -1.
         -2   -1    0    0    0  501 -0.00000000000E+00 -0.00000000000E+00 -0.12124286664E+04  0.12124286664E+04  0.00000000000E+00 0.  1.
        -24    2    1    2    0    0 -0.37856689178E+03 -0.64280918275E+03 -0.64392981940E+03  0.98872363897E+03  0.80076744214E+02 0.  0.
    5000000    2    1    2    0    0  0.37856689178E+03  0.64280918275E+03  0.18247666217E+03  0.97468053665E+03  0.60015654567E+03 0.  0.
        -24    2    4    4    0    0  0.27787841140E+03  0.30358714284E+03  0.37624544031E+03  0.56324577612E+03  0.79395265185E+02 0.  0.
         24    2    4    4    0    0  0.10068848037E+03  0.33922203991E+03 -0.19376877814E+03  0.41143476053E+03  0.80761750576E+02 0.  0.
         13    1    3    3    0    0 -0.69208421653E+02 -0.18045845745E+03 -0.18514931350E+03  0.26764777000E+03  0.00000000000E+00 0. -1.
        -14    1    3    3    0    0 -0.30935847012E+03 -0.46235072530E+03 -0.45878050590E+03  0.72107586897E+03  0.00000000000E+00 0.  1.
         13    1    5    5    0    0  0.14276776756E+03  0.20716012647E+03  0.20258799509E+03  0.32301679400E+03  0.00000000000E+00 0. -1.
        -14    1    5    5    0    0  0.13511064384E+03  0.96427016373E+02  0.17365744522E+03  0.24022898211E+03  0.00000000000E+00 0.  1.
          2    1    6    6  502    0  0.60638272671E+02  0.14063013655E+03 -0.43520808367E+02  0.15921022636E+03  0.00000000000E+00 0. -1.
         -3    1    6    6    0  502  0.40050207703E+02  0.19859190336E+03 -0.15024796977E+03  0.25222453417E+03  0.00000000000E+00 0.  1.
<mgrwt>
<rscale>  0 0.76144709E+03</rscale>
<asrwt>0</asrwt>
<pdfrwt beam="1">  1        1 0.11553469E+00 0.76144709E+03</pdfrwt>
<pdfrwt beam="2">  1       -2 0.18652749E+00 0.76144709E+03</pdfrwt>
<totfact> 0.35896000E+00</totfact>
</mgrwt>
</event>
<event>
12    3  0.2269558E-007  0.3441308E+03  0.7818608E-02  0.1065050E+00
         -2   -1    0    0    0  501 -0.00000000000E+00  0.00000000000E+00  0.36947644251E+03  0.36947644251E+03  0.00000000000E+00 0.  1.
          1   -1    0    0  501    0  0.00000000000E+00 -0.00000000000E+00 -0.71713689819E+03  0.71713689819E+03  0.00000000000E+00 0. -1.
        -24    2    1    2    0    0  0.10757495994E+03  0.31330068407E+03 -0.74222767516E+02  0.34873070808E+03  0.79839820210E+02 0.  0.
    5000000    2    1    2    0    0 -0.10757495994E+03 -0.31330068407E+03 -0.27343768816E+03  0.73788263263E+03  0.59997743256E+03 0.  0.
        -24    2    4    4    0    0 -0.81745268609E+02 -0.19097413748E+03 -0.45315957540E+03  0.50468604590E+03  0.78746390550E+02 0.  0.
         24    2    4    4    0    0 -0.25829691334E+02 -0.12232654659E+03  0.17972188724E+03  0.23319658673E+03  0.80310238162E+02 0.  0.
         11    1    5    5    0    0  0.15799494724E+02 -0.29298581075E+02 -0.71761539585E+02  0.79105938147E+02  0.00000000000E+00 0. -1.
        -12    1    5    5    0    0 -0.97544763333E+02 -0.16167555641E+03 -0.38139803581E+03  0.42558010775E+03  0.00000000000E+00 0.  1.
         13    1    3    3    0    0  0.19040849730E+02  0.17779693301E+03 -0.42335879797E+02  0.18375698644E+03  0.00000000000E+00 0. -1.
        -14    1    3    3    0    0  0.88534110213E+02  0.13550375106E+03 -0.31886887719E+02  0.16497372164E+03  0.00000000000E+00 0.  1.
          4    1    6    6  502    0 -0.80645985633E+01 -0.63926103227E+02  0.29146626603E+02  0.70718528450E+02  0.00000000000E+00 0. -1.
         -3    1    6    6    0  502 -0.17765092771E+02 -0.58400443362E+02  0.15057526064E+03  0.16247805828E+03  0.00000000000E+00 0.  1.
<mgrwt>
<rscale>  0 0.34413076E+03</rscale>
<asrwt>0</asrwt>
<pdfrwt beam="1">  1        1 0.11032875E+00 0.34413076E+03</pdfrwt>
<pdfrwt beam="2">  1       -2 0.56842530E-01 0.34413076E+03</pdfrwt>
<totfact> 0.70795306E+01</totfact>
</mgrwt>
</event>
<event>
12    3  0.2269558E-007  0.2547923E+03  0.7818608E-02  0.1110313E+00
         -2   -1    0    0    0  501 -0.00000000000E+00  0.00000000000E+00  0.19832094860E+03  0.19832094860E+03  0.00000000000E+00 0.  1.
          1   -1    0    0  501    0  0.00000000000E+00 -0.00000000000E+00 -0.13222871477E+04  0.13222871477E+04  0.00000000000E+00 0. -1.
        -24    2    1    2    0    0 -0.14642260922E+03 -0.17761995865E+03 -0.72365513824E+03  0.76348795692E+03  0.79048536130E+02 0.  0.
    5000000    2    1    2    0    0  0.14642260922E+03  0.17761995865E+03 -0.40031106090E+03  0.75712013941E+03  0.59999460816E+03 0.  0.
        -24    2    4    4    0    0  0.14838651418E+02  0.79875559770E+02 -0.52428433454E+03  0.53637710327E+03  0.78905277633E+02 0.  0.
         24    2    4    4    0    0  0.13158395780E+03  0.97744398882E+02  0.12397327365E+03  0.22074303614E+03  0.80559356758E+02 0.  0.
         11    1    3    3    0    0 -0.61247484037E+02 -0.86619756202E+02 -0.45682747191E+03  0.46898355574E+03  0.00000000000E+00 0. -1.
        -12    1    3    3    0    0 -0.85175125182E+02 -0.91000202450E+02 -0.26682766633E+03  0.29450440118E+03  0.00000000000E+00 0.  1.
         13    1    5    5    0    0 -0.19376628044E+02  0.20338118574E+02 -0.51778816928E+02  0.58907882868E+02  0.00000000000E+00 0. -1.
        -14    1    5    5    0    0  0.34215279462E+02  0.59537441197E+02 -0.47250551762E+03  0.47746922040E+03  0.00000000000E+00 0.  1.
          2    1    6    6  502    0  0.90959552218E+02  0.18176975303E+02  0.54618577997E+02  0.10764400417E+03  0.00000000000E+00 0. -1.
         -1    1    6    6    0  502  0.40624405584E+02  0.79567423579E+02  0.69354695650E+02  0.11309903197E+03  0.00000000000E+00 0.  1.
<mgrwt>
<rscale>  0 0.25479227E+03</rscale>
<asrwt>0</asrwt>
<pdfrwt beam="1">  1        1 0.20342878E+00 0.25479227E+03</pdfrwt>
<pdfrwt beam="2">  1       -2 0.30510917E-01 0.25479227E+03</pdfrwt>
<totfact> 0.83375707E+01</totfact>
</mgrwt>
</event>
<event>
12    3  0.2269558E-007  0.1229973E+04  0.7818608E-02  0.9087018E-01
         -2   -1    0    0    0  501 -0.00000000000E+00  0.00000000000E+00  0.10563564866E+04  0.10563564866E+04  0.00000000000E+00 0.  1.
          1   -1    0    0  501    0  0.00000000000E+00 -0.00000000000E+00 -0.21380018422E+04  0.21380018422E+04  0.00000000000E+00 0. -1.
        -24    2    1    2    0    0 -0.23762333925E+03 -0.11427759972E+04 -0.14191564590E+04  0.18392458423E+04  0.80114807446E+02 0.  0.
    5000000    2    1    2    0    0  0.23762333925E+03  0.11427759972E+04  0.33751110336E+03  0.13551124865E+04  0.60001189568E+03 0.  0.
        -24    2    4    4    0    0  0.33614142368E+03  0.33502494018E+03  0.21859625555E+03  0.52893560805E+03  0.82193596220E+02 0.  0.
         24    2    4    4    0    0 -0.98518084432E+02  0.80775105700E+03  0.11891484781E+03  0.82617687841E+03  0.79119595122E+02 0.  0.
         11    1    5    5    0    0  0.13346324687E+03  0.15225203095E+03  0.51455717521E+02  0.20890382969E+03  0.00000000000E+00 0. -1.
        -12    1    5    5    0    0  0.20267817681E+03  0.18277290923E+03  0.16714053803E+03  0.32003177836E+03  0.00000000000E+00 0.  1.
         11    1    3    3    0    0 -0.43634694276E+02 -0.19758098035E+03 -0.20057426560E+03  0.28490746982E+03  0.00000000000E+00 0. -1.
        -12    1    3    3    0    0 -0.19398864497E+03 -0.94519501683E+03 -0.12185821934E+04  0.15543383725E+04  0.00000000000E+00 0.  1.
          4    1    6    6  502    0  0.85857693287E+01  0.20148092204E+03  0.20508238589E+02  0.20270388559E+03  0.00000000000E+00 0. -1.
         -3    1    6    6    0  502 -0.10710385376E+03  0.60627013496E+03  0.98406609221E+02  0.62347299282E+03  0.00000000000E+00 0.  1.
<mgrwt>
<rscale>  0 0.12299730E+04</rscale>
<asrwt>0</asrwt>
<pdfrwt beam="1">  1        1 0.32892336E+00 0.12299730E+04</pdfrwt>
<pdfrwt beam="2">  1       -2 0.16251638E+00 0.12299730E+04</pdfrwt>
<totfact> 0.49511512E-01</totfact>
</mgrwt>
</event>
<event>
12    3  0.2269558E-007  0.5451718E+03  0.7818608E-02  0.1002618E+00
         -2   -1    0    0    0  501 -0.00000000000E+00  0.00000000000E+00  0.46201113301E+03  0.46201113301E+03  0.00000000000E+00 0.  1.
          1   -1    0    0  501    0  0.00000000000E+00 -0.00000000000E+00 -0.78418249653E+03  0.78418249653E+03  0.00000000000E+00 0. -1.
        -24    2    1    2    0    0 -0.39071653503E+03 -0.66073373621E+02 -0.33786614864E+03  0.52700389907E+03  0.80959704752E+02 0.  0.
    5000000    2    1    2    0    0  0.39071653503E+03  0.66073373621E+02  0.15694785114E+02  0.71918973047E+03  0.59996869976E+03 0.  0.
        -24    2    4    4    0    0  0.19122891916E+03 -0.24799328085E+03 -0.74461379938E+02  0.33194284174E+03  0.81070254772E+02 0.  0.
         24    2    4    4    0    0  0.19948761586E+03  0.31406665447E+03  0.90156165052E+02  0.38724688873E+03  0.58299626122E+02 0.  0.
         11    1    5    5    0    0  0.18278713671E+03 -0.21575120122E+03 -0.87732747559E+02  0.29606883181E+03  0.00000000000E+00 0. -1.
        -12    1    5    5    0    0  0.84417824488E+01 -0.32242079629E+02  0.13271367621E+02  0.35874009927E+02  0.00000000000E+00 0.  1.
         13    1    3    3    0    0 -0.17997139366E+03  0.41824787748E+01 -0.17923917819E+03  0.25403519178E+03  0.00000000000E+00 0. -1.
        -14    1    3    3    0    0 -0.21074514136E+03 -0.70255852396E+02 -0.15862697045E+03  0.27296870729E+03  0.00000000000E+00 0.  1.
          4    1    6    6  502    0  0.16730169530E+03  0.26523431237E+03  0.53220179936E+02  0.31807465360E+03  0.00000000000E+00 0. -1.
         -3    1    6    6    0  502  0.32185920563E+02  0.48832342093E+02  0.36935985116E+02  0.69172235133E+02  0.00000000000E+00 0.  1.
<mgrwt>
<rscale>  0 0.54517179E+03</rscale>
<asrwt>0</asrwt>
<pdfrwt beam="1">  1        1 0.12064346E+00 0.54517179E+03</pdfrwt>
<pdfrwt beam="2">  1       -2 0.71078636E-01 0.54517179E+03</pdfrwt>
<totfact> 0.37435702E+01</totfact>
</mgrwt>
</event>
<event>
12    3  0.2269558E-007  0.5726958E+03  0.7818608E-02  0.9963731E-01
         -2   -1    0    0    0  501 -0.00000000000E+00  0.00000000000E+00  0.42440160789E+03  0.42440160789E+03  0.00000000000E+00 0.  1.
          1   -1    0    0  501    0  0.00000000000E+00 -0.00000000000E+00 -0.96547373210E+03  0.96547373210E+03  0.00000000000E+00 0. -1.
        -24    2    1    2    0    0 -0.20783205972E+03 -0.37819685150E+03  0.52752791202E+02  0.44187455655E+03  0.79014196299E+02 0.  0.
    5000000    2    1    2    0    0  0.20783205972E+03  0.37819685150E+03 -0.59382491541E+03  0.94800078343E+03  0.59987534680E+03 0.  0.
        -24    2    4    4    0    0 -0.13452837564E+03 -0.43331107512E+02 -0.25040567574E+03  0.29877503285E+03  0.81166797901E+02 0.  0.
         24    2    4    4    0    0  0.34236043537E+03  0.42152795901E+03 -0.34341923966E+03  0.64922575058E+03  0.93063489672E+02 0.  0.
         11    1    3    3    0    0 -0.18391279906E+03 -0.33617671946E+03  0.20479890191E+02  0.38374227062E+03  0.00000000000E+00 0. -1.
        -12    1    3    3    0    0 -0.23919260665E+02 -0.42020132044E+02  0.32272901011E+02  0.58132285930E+02  0.00000000000E+00 0.  1.
         13    1    5    5    0    0 -0.10610655280E+03  0.56714855580E+01 -0.15893099471E+03  0.19118009147E+03  0.00000000000E+00 0. -1.
        -14    1    5    5    0    0 -0.28421822847E+02 -0.49002593070E+02 -0.91474681032E+02  0.10759494138E+03  0.00000000000E+00 0.  1.
          2    1    6    6  502    0  0.36817104227E+02  0.10379623426E+03 -0.70957159699E+02  0.13101173964E+03  0.00000000000E+00 0. -1.
         -1    1    6    6    0  502  0.30554333114E+03  0.31773172475E+03 -0.27246207996E+03  0.51821401094E+03  0.00000000000E+00 0.  1.
<mgrwt>
<rscale>  0 0.57269584E+03</rscale>
<asrwt>0</asrwt>
<pdfrwt beam="1">  1        1 0.14853442E+00 0.57269584E+03</pdfrwt>
<pdfrwt beam="2">  1       -2 0.65292555E-01 0.57269584E+03</pdfrwt>
<totfact> 0.31825285E+01</totfact>
</mgrwt>
</event>
<event>
12    3  0.2269558E-007  0.4704541E+03  0.7818608E-02  0.1021792E+00
          1   -1    0    0  501    0  0.00000000000E+00  0.00000000000E+00  0.43547083691E+03  0.43547083691E+03  0.00000000000E+00 0. -1.
         -2   -1    0    0    0  501 -0.00000000000E+00 -0.00000000000E+00 -0.55106871763E+03  0.55106871763E+03  0.00000000000E+00 0.  1.
        -24    2    1    2    0    0  0.18418134102E+03  0.23196490824E+03 -0.66369325006E+02  0.31564789608E+03  0.86592274258E+02 0.  0.
    5000000    2    1    2    0    0 -0.18418134102E+03 -0.23196490824E+03 -0.49228555715E+02  0.67089165846E+03  0.59995139942E+03 0.  0.
        -24    2    4    4    0    0 -0.75661625713E+02  0.18439214134E+03  0.56876652998E+02  0.22029543162E+03  0.74632299606E+02 0.  0.
         24    2    4    4    0    0 -0.10851971531E+03 -0.41635704958E+03 -0.10610520871E+03  0.45059622684E+03  0.81540928276E+02 0.  0.
         11    1    5    5    0    0 -0.67714094239E+02  0.74364751773E+02  0.12335337668E+02  0.10132855185E+03  0.00000000000E+00 0. -1.
        -12    1    5    5    0    0 -0.79475314733E+01  0.11002738956E+03  0.44541315330E+02  0.11896687977E+03  0.00000000000E+00 0.  1.
         13    1    3    3    0    0  0.17031976200E+03  0.20636840878E+03 -0.30281767688E+02  0.26928372941E+03  0.00000000000E+00 0. -1.
        -14    1    3    3    0    0  0.13861579015E+02  0.25596499463E+02 -0.36087557318E+02  0.46364166667E+02  0.00000000000E+00 0.  1.
          2    1    6    6  502    0 -0.10843697359E+03 -0.33780674237E+03 -0.11141319055E+03  0.37186673885E+03  0.00000000000E+00 0. -1.
         -1    1    6    6    0  502 -0.82741711280E-01 -0.78550307208E+02  0.53079818339E+01  0.78729487994E+02  0.00000000000E+00 0.  1.
<mgrwt>
<rscale>  0 0.47045412E+03</rscale>
<asrwt>0</asrwt>
<pdfrwt beam="1">  1        1 0.66995514E-01 0.47045412E+03</pdfrwt>
<pdfrwt beam="2">  1       -2 0.84779802E-01 0.47045412E+03</pdfrwt>
<totfact> 0.58916103E+01</totfact>
</mgrwt>
</event>
<event>
12    3  0.2269558E-007  0.4031936E+03  0.7818608E-02  0.1042679E+00
          1   -1    0    0  501    0  0.00000000000E+00  0.00000000000E+00  0.10921688563E+04  0.10921688563E+04  0.00000000000E+00 0. -1.
         -2   -1    0    0    0  501 -0.00000000000E+00 -0.00000000000E+00 -0.26153250739E+03  0.26153250739E+03  0.00000000000E+00 0.  1.
        -24    2    1    2    0    0 -0.26581993640E+03 -0.23126048906E+03  0.19429231175E+03  0.41069371477E+03  0.82329657838E+02 0.  0.
    5000000    2    1    2    0    0  0.26581993640E+03  0.23126048906E+03  0.63634403718E+03  0.94300764894E+03  0.60015667947E+03 0.  0.
        -24    2    4    4    0    0  0.72484713109E+01  0.17876103661E+03  0.63698771248E+03  0.66635296067E+03  0.79150955720E+02 0.  0.
         24    2    4    4    0    0  0.25857146509E+03  0.52499452445E+02 -0.64367530566E+00  0.27665468827E+03  0.83198600683E+02 0.  0.
         11    1    5    5    0    0  0.15412506177E+02  0.12974706160E+03  0.55754661915E+03  0.57265179461E+03  0.00000000000E+00 0. -1.
        -12    1    5    5    0    0 -0.81640348657E+01  0.49013975009E+02  0.79441093336E+02  0.93701166065E+02  0.00000000000E+00 0.  1.
         11    1    3    3    0    0 -0.12897094365E+03 -0.16557910277E+03  0.11862393131E+03  0.24108417754E+03  0.00000000000E+00 0. -1.
        -12    1    3    3    0    0 -0.13684899275E+03 -0.65681386287E+02  0.75668380443E+02  0.16960953723E+03  0.00000000000E+00 0.  1.
          2    1    6    6  502    0  0.19055483491E+03  0.31220044447E+02  0.36149217421E+02  0.19644999925E+03  0.00000000000E+00 0. -1.
         -1    1    6    6    0  502  0.68016630178E+02  0.21279407998E+02 -0.36792892727E+02  0.80204689020E+02  0.00000000000E+00 0.  1.
<mgrwt>
<rscale>  0 0.40319362E+03</rscale>
<asrwt>0</asrwt>
<pdfrwt beam="1">  1        1 0.16802598E+00 0.40319362E+03</pdfrwt>
<pdfrwt beam="2">  1       -2 0.40235771E-01 0.40319362E+03</pdfrwt>
<totfact> 0.69946366E+01</totfact>
</mgrwt>
</event>
<event>
12    3  0.2269558E-007  0.1143172E+04  0.7818608E-02  0.9164106E-01
         -2   -1    0    0    0  501 -0.00000000000E+00  0.00000000000E+00  0.38094604527E+03  0.38094604527E+03  0.00000000000E+00 0.  1.
          1   -1    0    0  501    0  0.00000000000E+00 -0.00000000000E+00 -0.37393583088E+04  0.37393583088E+04  0.00000000000E+00 0. -1.
        -24    2    1    2    0    0 -0.11096326539E+04  0.74005591226E+02 -0.14023910059E+04  0.17916008338E+04  0.79822053065E+02 0.  0.
    5000000    2    1    2    0    0  0.11096326539E+04 -0.74005591226E+02 -0.19560212576E+04  0.23287035202E+04  0.60006622189E+03 0.  0.
        -24    2    4    4    0    0  0.11055400555E+04 -0.10588503770E+02 -0.15235109055E+04  0.18841065920E+04  0.80257336601E+02 0.  0.
         24    2    4    4    0    0  0.40925984160E+01 -0.63417087455E+02 -0.43251035209E+03  0.44459692820E+03  0.81010786694E+02 0.  0.
         13    1    5    5    0    0  0.49351990555E+03 -0.35862564130E+02 -0.63852601645E+03  0.80781402214E+03  0.00000000000E+00 0. -1.
        -14    1    5    5    0    0  0.61202014997E+03  0.25274060360E+02 -0.88498488908E+03  0.10762925699E+04  0.00000000000E+00 0.  1.
         13    1    3    3    0    0 -0.59660571434E+03 -0.92270278854E-01 -0.74846844545E+03  0.95715380203E+03  0.00000000000E+00 0. -1.
        -14    1    3    3    0    0 -0.51302693960E+03  0.74097861505E+02 -0.65392256046E+03  0.83444703182E+03  0.00000000000E+00 0.  1.
          4    1    6    6  502    0  0.39581299318E+01 -0.12604826003E+02 -0.50764775072E+01  0.14153411426E+02  0.00000000000E+00 0. -1.
         -3    1    6    6    0  502  0.13446848426E+00 -0.50812261453E+02 -0.42743387458E+03  0.43044351678E+03  0.00000000000E+00 0.  1.
<mgrwt>
<rscale>  0 0.11431716E+04</rscale>
<asrwt>0</asrwt>
<pdfrwt beam="1">  1        1 0.57528591E+00 0.11431716E+04</pdfrwt>
<pdfrwt beam="2">  1       -2 0.58607082E-01 0.11431716E+04</pdfrwt>
<totfact> 0.39020320E-01</totfact>
</mgrwt>
</event>
<event>
12    3  0.2269558E-007  0.4517143E+03  0.7818608E-02  0.1027212E+00
          1   -1    0    0  501    0  0.00000000000E+00  0.00000000000E+00  0.15328570983E+04  0.15328570983E+04  0.00000000000E+00 0. -1.
         -2   -1    0    0    0  501 -0.00000000000E+00 -0.00000000000E+00 -0.16673519592E+03  0.16673519592E+03  0.00000000000E+00 0.  1.
        -24    2    1    2    0    0 -0.30573448627E+03 -0.47139679076E+02  0.59233868194E+03  0.67303107175E+03  0.80062375520E+02 0.  0.
    5000000    2    1    2    0    0  0.30573448627E+03  0.47139679076E+02  0.77378322042E+03  0.10265612225E+04  0.59949290722E+03 0.  0.
        -24    2    4    4    0    0 -0.75985114205E+02 -0.13254385424E+03  0.46713306327E+03  0.49803185677E+03  0.80503544509E+02 0.  0.
         24    2    4    4    0    0  0.38171960048E+03  0.17968353332E+03  0.30665015715E+03  0.52852936569E+03  0.85515764509E+02 0.  0.
         11    1    5    5    0    0 -0.73955482026E+02 -0.70066353095E+02  0.20996111838E+03  0.23337176005E+03  0.00000000000E+00 0. -1.
        -12    1    5    5    0    0 -0.20296321785E+01 -0.62477501144E+02  0.25717194489E+03  0.26466009672E+03  0.00000000000E+00 0.  1.
         13    1    3    3    0    0 -0.12711945360E+03 -0.26584301443E+02  0.33332566774E+03  0.35773185676E+03  0.00000000000E+00 0. -1.
        -14    1    3    3    0    0 -0.17861503267E+03 -0.20555377634E+02  0.25901301420E+03  0.31529921499E+03  0.00000000000E+00 0.  1.
          2    1    6    6  502    0  0.19636618569E+03  0.48404005963E+02  0.12566351168E+03  0.23810490303E+03  0.00000000000E+00 0. -1.
         -1    1    6    6    0  502  0.18535341479E+03  0.13127952735E+03  0.18098664547E+03  0.29042446266E+03  0.00000000000E+00 0.  1.
<mgrwt>
<rscale>  0 0.45171427E+03</rscale>
<asrwt>0</asrwt>
<pdfrwt beam="1">  1        1 0.23582416E+00 0.45171427E+03</pdfrwt>
<pdfrwt beam="2">  1       -2 0.25651570E-01 0.45171427E+03</pdfrwt>
<totfact> 0.79111142E+01</totfact>
</mgrwt>
</event>
<event>
12    3  0.2269558E-007  0.9707698E+03  0.7818608E-02  0.9341198E-01
          1   -1    0    0  501    0  0.00000000000E+00  0.00000000000E+00  0.19675196127E+04  0.19675196127E+04  0.00000000000E+00 0. -1.
         -2   -1    0    0    0  501 -0.00000000000E+00 -0.00000000000E+00 -0.68526132996E+03  0.68526132996E+03  0.00000000000E+00 0.  1.
        -24    2    1    2    0    0  0.86793838121E+03 -0.21931525390E+03 -0.95166492694E+02  0.90372553144E+03  0.79037716705E+02 0.  0.
    5000000    2    1    2    0    0 -0.86793838121E+03  0.21931525390E+03  0.13774247754E+04  0.17490554112E+04  0.60039953809E+03 0.  0.
        -24    2    4    4    0    0 -0.75862151494E+03 -0.32922476535E+02  0.11657426899E+04  0.13933907186E+04  0.77402732817E+02 0.  0.
         24    2    4    4    0    0 -0.10931686627E+03  0.25223773044E+03  0.21168208548E+03  0.35566469264E+03  0.78192188660E+02 0.  0.
         11    1    3    3    0    0  0.58852848561E+03 -0.11401533992E+03 -0.79527029339E+02  0.60472293201E+03  0.00000000000E+00 0. -1.
        -12    1    3    3    0    0  0.27940989561E+03 -0.10529991399E+03 -0.15639463355E+02  0.29900259942E+03  0.00000000000E+00 0.  1.
         11    1    5    5    0    0 -0.31143882467E+03 -0.30966196464E+02  0.41895893940E+03  0.52295280833E+03  0.00000000000E+00 0. -1.
        -12    1    5    5    0    0 -0.44718269027E+03 -0.19562800705E+01  0.74678375054E+03  0.87043791024E+03  0.00000000000E+00 0.  1.
          4    1    6    6  502    0 -0.81657329631E+02  0.10253564838E+03  0.12146660716E+03  0.17870538695E+03  0.00000000000E+00 0. -1.
         -3    1    6    6    0  502 -0.27659536640E+02  0.14970208206E+03  0.90215478324E+02  0.17695930568E+03  0.00000000000E+00 0.  1.
<mgrwt>
<rscale>  0 0.97076982E+03</rscale>
<asrwt>0</asrwt>
<pdfrwt beam="1">  1        1 0.30269532E+00 0.97076982E+03</pdfrwt>
<pdfrwt beam="2">  1       -2 0.10542482E+00 0.97076982E+03</pdfrwt>
<totfact> 0.20213665E+00</totfact>
</mgrwt>
</event>
<event>
12    3  0.2269558E-007  0.8100580E+03  0.7818608E-02  0.9545572E-01
         -2   -1    0    0    0  501 -0.00000000000E+00  0.00000000000E+00  0.94218015024E+03  0.94218015024E+03  0.00000000000E+00 0.  1.
          1   -1    0    0  501    0  0.00000000000E+00 -0.00000000000E+00 -0.76215294515E+03  0.76215294515E+03  0.00000000000E+00 0. -1.
        -24    2    1    2    0    0 -0.10889786363E+02  0.73327704894E+03  0.17248143878E+03  0.75666667853E+03  0.70574766851E+02 0.  0.
    5000000    2    1    2    0    0  0.10889786363E+02 -0.73327704894E+03  0.75457663060E+01  0.94766641687E+03  0.60016737759E+03 0.  0.
        -24    2    4    4    0    0 -0.66244617289E+02 -0.78293966740E+03 -0.85929982507E+02  0.79440048426E+03  0.79405890140E+02 0.  0.
         24    2    4    4    0    0  0.77134403652E+02  0.49662618462E+02  0.93475748813E+02  0.15326593261E+03  0.79603006116E+02 0.  0.
         11    1    5    5    0    0 -0.78666255141E+02 -0.69892165263E+03 -0.61463310449E+02  0.70601529357E+03  0.00000000000E+00 0. -1.
        -12    1    5    5    0    0  0.12421637852E+02 -0.84018014768E+02 -0.24466672058E+02  0.88385190695E+02  0.00000000000E+00 0.  1.
         13    1    3    3    0    0 -0.10390514035E+02  0.61897905760E+03  0.11868562500E+03  0.63034063340E+03  0.00000000000E+00 0. -1.
        -14    1    3    3    0    0 -0.49927232809E+00  0.11429799134E+03  0.53795813782E+02  0.12632604513E+03  0.00000000000E+00 0.  1.
          2    1    6    6  502    0  0.77881462714E+01  0.22840447411E+02 -0.97694223364E+01  0.26034263444E+02  0.00000000000E+00 0. -1.
         -3    1    6    6    0  502  0.69346257381E+02  0.26822171051E+02  0.10324517115E+03  0.12723166916E+03  0.00000000000E+00 0.  1.
<mgrwt>
<rscale>  0 0.81005797E+03</rscale>
<asrwt>0</asrwt>
<pdfrwt beam="1">  1        1 0.11725430E+00 0.81005797E+03</pdfrwt>
<pdfrwt beam="2">  1       -2 0.14495079E+00 0.81005797E+03</pdfrwt>
<totfact> 0.69672883E+00</totfact>
</mgrwt>
</event>
<event>
12    3  0.2269558E-007  0.9401391E+03  0.7818608E-02  0.9376751E-01
          1   -1    0    0  501    0  0.00000000000E+00  0.00000000000E+00  0.16237354114E+04  0.16237354114E+04  0.00000000000E+00 0. -1.
         -2   -1    0    0    0  501 -0.00000000000E+00 -0.00000000000E+00 -0.55136686849E+03  0.55136686849E+03  0.00000000000E+00 0.  1.
        -24    2    1    2    0    0 -0.66016287906E+03 -0.53295583526E+03  0.52128448293E+03  0.99892980588E+03  0.79159937466E+02 0.  0.
    5000000    2    1    2    0    0  0.66016287906E+03  0.53295583526E+03  0.55108406002E+03  0.11761724741E+04  0.59985923207E+03 0.  0.
        -24    2    4    4    0    0  0.76197187728E+03  0.42086500898E+03  0.48191735222E+03  0.99814620418E+03  0.79517375438E+02 0.  0.
         24    2    4    4    0    0 -0.10180899822E+03  0.11209082628E+03  0.69166707800E+02  0.17802626988E+03  0.63086399842E+02 0.  0.
         11    1    3    3    0    0 -0.47119352969E+03 -0.39663043261E+03  0.33860696006E+03  0.70284686518E+03  0.00000000000E+00 0. -1.
        -12    1    3    3    0    0 -0.18896934937E+03 -0.13632540265E+03  0.18267752287E+03  0.29608294070E+03  0.00000000000E+00 0.  1.
         13    1    5    5    0    0  0.44971018965E+03  0.21770373362E+03  0.24310711660E+03  0.55563948784E+03  0.00000000000E+00 0. -1.
        -14    1    5    5    0    0  0.31226168763E+03  0.20316127536E+03  0.23881023562E+03  0.44250671634E+03  0.00000000000E+00 0.  1.
          2    1    6    6  502    0 -0.51757334328E+02  0.91394039105E+02  0.65409728953E+02  0.12373408860E+03  0.00000000000E+00 0. -1.
         -1    1    6    6    0  502 -0.50051663894E+02  0.20696787173E+02  0.37569788467E+01  0.54292181277E+02  0.00000000000E+00 0.  1.
<mgrwt>
<rscale>  0 0.94013908E+03</rscale>
<asrwt>0</asrwt>
<pdfrwt beam="1">  1        1 0.24980545E+00 0.94013908E+03</pdfrwt>
<pdfrwt beam="2">  1       -2 0.84825673E-01 0.94013908E+03</pdfrwt>
<totfact> 0.57659030E+00</totfact>
</mgrwt>
</event>
<event>
12    3  0.2269558E-007  0.5569662E+03  0.7818608E-02  0.9998943E-01
         -2   -1    0    0    0  501 -0.00000000000E+00  0.00000000000E+00  0.18475653375E+03  0.18475653375E+03  0.00000000000E+00 0.  1.
          1   -1    0    0  501    0  0.00000000000E+00 -0.00000000000E+00 -0.23077425466E+04  0.23077425466E+04  0.00000000000E+00 0. -1.
        -24    2    1    2    0    0 -0.41844834693E+03  0.13124819384E+03 -0.33951503416E+03  0.56038029984E+03  0.80190489447E+02 0.  0.
    5000000    2    1    2    0    0  0.41844834693E+03 -0.13124819384E+03 -0.17834709787E+04  0.19321187806E+04  0.59999095221E+03 0.  0.
        -24    2    4    4    0    0 -0.55386325986E+00 -0.22587358774E+03 -0.10660721508E+04  0.10926664516E+04  0.79943475831E+02 0.  0.
         24    2    4    4    0    0  0.41900221019E+03  0.94625393900E+02 -0.71739882790E+03  0.83945232892E+03  0.74177604087E+02 0.  0.
         11    1    5    5    0    0  0.32409666713E+02 -0.17962462274E+03 -0.78973154889E+03  0.81055000519E+03  0.00000000000E+00 0. -1.
        -12    1    5    5    0    0 -0.32963529972E+02 -0.46248964993E+02 -0.27634060195E+03  0.28211644645E+03  0.00000000000E+00 0.  1.
         13    1    3    3    0    0 -0.31501030465E+03  0.11627348824E+03 -0.29430557189E+03  0.44650507920E+03  0.00000000000E+00 0. -1.
        -14    1    3    3    0    0 -0.10343804227E+03  0.14974705597E+02 -0.45209462264E+02  0.11387522064E+03  0.00000000000E+00 0.  1.
          2    1    6    6  502    0  0.16906244350E+03  0.61456325122E+01 -0.31505880372E+03  0.35760582826E+03  0.00000000000E+00 0. -1.
         -1    1    6    6    0  502  0.24993976669E+03  0.88479761388E+02 -0.40234002418E+03  0.48184650067E+03  0.00000000000E+00 0.  1.
<mgrwt>
<rscale>  0 0.55696623E+03</rscale>
<asrwt>0</asrwt>
<pdfrwt beam="1">  1        1 0.35503730E+00 0.55696623E+03</pdfrwt>
<pdfrwt beam="2">  1       -2 0.28424084E-01 0.55696623E+03</pdfrwt>
<totfact> 0.19699752E+01</totfact>
</mgrwt>
</event>
<event>
12    3  0.2269558E-007  0.4068427E+03  0.7818608E-02  0.1041436E+00
         -2   -1    0    0    0  501 -0.00000000000E+00  0.00000000000E+00  0.97527135621E+02  0.97527135621E+02  0.00000000000E+00 0.  1.
          1   -1    0    0  501    0  0.00000000000E+00 -0.00000000000E+00 -0.20375928604E+04  0.20375928604E+04  0.00000000000E+00 0. -1.
        -24    2    1    2    0    0 -0.23165479585E+03 -0.14384396496E+02 -0.46736725111E+03  0.52797624545E+03  0.80348696594E+02 0.  0.
    5000000    2    1    2    0    0  0.23165479585E+03  0.14384396496E+02 -0.14726984736E+04  0.16071437506E+04  0.60016613146E+03 0.  0.
        -24    2    4    4    0    0  0.27246823703E+03 -0.20379135513E+03 -0.52503358158E+03  0.63059568509E+03  0.78872046097E+02 0.  0.
         24    2    4    4    0    0 -0.40813441181E+02  0.21817575163E+03 -0.94766489207E+03  0.97654806546E+03  0.79441682485E+02 0.  0.
         11    1    3    3    0    0 -0.22291782294E+03 -0.30911251294E+02 -0.44615481879E+03  0.49970189470E+03  0.00000000000E+00 0. -1.
        -12    1    3    3    0    0 -0.87369729097E+01  0.16526854798E+02 -0.21212432327E+02  0.28274350751E+02  0.00000000000E+00 0.  1.
         11    1    5    5    0    0  0.55610360784E+02 -0.58333602490E+02 -0.18559931756E+03  0.20234235366E+03  0.00000000000E+00 0. -1.
        -12    1    5    5    0    0  0.21685787625E+03 -0.14545775264E+03 -0.33943426402E+03  0.42825333144E+03  0.00000000000E+00 0.  1.
          4    1    6    6  502    0 -0.91907821834E+01  0.17207168906E+03 -0.80675602273E+03  0.82495358467E+03  0.00000000000E+00 0. -1.
         -3    1    6    6    0  502 -0.31622658997E+02  0.46104062562E+02 -0.14090886934E+03  0.15159448079E+03  0.00000000000E+00 0.  1.
<mgrwt>
<rscale>  0 0.40684274E+03</rscale>
<asrwt>0</asrwt>
<pdfrwt beam="1">  1        1 0.31347585E+00 0.40684274E+03</pdfrwt>
<pdfrwt beam="2">  1       -2 0.15004173E-01 0.40684274E+03</pdfrwt>
<totfact> 0.93438343E+01</totfact>
</mgrwt>
</event>
<event>
12    3  0.2269558E-007  0.4247331E+03  0.7818608E-02  0.1035537E+00
          1   -1    0    0  501    0  0.00000000000E+00  0.00000000000E+00  0.13227641198E+04  0.13227641198E+04  0.00000000000E+00 0. -1.
         -2   -1    0    0    0  501 -0.00000000000E+00 -0.00000000000E+00 -0.32708475841E+03  0.32708475841E+03  0.00000000000E+00 0.  1.
        -24    2    1    2    0    0 -0.31698334581E+03  0.25575203458E+03 -0.34698816216E+01  0.41513603391E+03  0.80239278766E+02 0.  0.
    5000000    2    1    2    0    0  0.31698334581E+03 -0.25575203458E+03  0.99914924306E+03  0.12347128443E+04  0.60027414850E+03 0.  0.
        -24    2    4    4    0    0  0.49367404046E+02 -0.11258943341E+03 -0.37428553347E+02  0.15159793630E+03  0.80420871584E+02 0.  0.
         24    2    4    4    0    0  0.26761594176E+03 -0.14316260118E+03  0.10365777964E+04  0.10831149080E+04  0.80811839265E+02 0.  0.
         11    1    5    5    0    0  0.50784300562E+02 -0.10869394873E+03 -0.62395928416E+01  0.12013472518E+03  0.00000000000E+00 0. -1.
        -12    1    5    5    0    0 -0.14168965157E+01 -0.38954846769E+01 -0.31188960505E+02  0.31463211120E+02  0.00000000000E+00 0.  1.
         13    1    3    3    0    0 -0.23329568447E+03  0.14946713013E+03  0.20193785462E+02  0.27780404668E+03  0.00000000000E+00 0. -1.
        -14    1    3    3    0    0 -0.83687661334E+02  0.10628490446E+03 -0.23663667084E+02  0.13733198723E+03  0.00000000000E+00 0.  1.
          4    1    6    6  502    0  0.14902521610E+03 -0.12187546136E+03  0.68033188357E+03  0.70704569506E+03  0.00000000000E+00 0. -1.
         -3    1    6    6    0  502  0.11859072567E+03 -0.21287139818E+02  0.35624591284E+03  0.37606921298E+03  0.00000000000E+00 0.  1.
<mgrwt>
<rscale>  0 0.42473308E+03</rscale>
<asrwt>0</asrwt>
<pdfrwt beam="1">  1        1 0.20350217E+00 0.42473308E+03</pdfrwt>
<pdfrwt beam="2">  1       -2 0.50320733E-01 0.42473308E+03</pdfrwt>
<totfact> 0.30710987E+01</totfact>
</mgrwt>
</event>
<event>
12    3  0.2269558E-007  0.1309993E+04  0.7818608E-02  0.9021678E-01
         -2   -1    0    0    0  501 -0.00000000000E+00  0.00000000000E+00  0.23253803169E+04  0.23253803169E+04  0.00000000000E+00 0.  1.
          1   -1    0    0  501    0  0.00000000000E+00 -0.00000000000E+00 -0.79087113288E+03  0.79087113288E+03  0.00000000000E+00 0. -1.
        -24    2    1    2    0    0 -0.61145545096E+03 -0.11319256817E+04  0.81225255575E+03  0.15235651724E+04  0.79769059333E+02 0.  0.
    5000000    2    1    2    0    0  0.61145545096E+03  0.11319256817E+04  0.72225662830E+03  0.15926862774E+04  0.59988450848E+03 0.  0.
        -24    2    4    4    0    0  0.60448752560E+03  0.82653087013E+03  0.30804760511E+03  0.10723412855E+04  0.80399364236E+02 0.  0.
         24    2    4    4    0    0  0.69679253695E+01  0.30539481161E+03  0.41420902318E+03  0.52034499184E+03  0.76650197021E+02 0.  0.
         11    1    5    5    0    0  0.15346146881E+03  0.17846061612E+03  0.10065869886E+03  0.25598981928E+03  0.00000000000E+00 0. -1.
        -12    1    5    5    0    0  0.45102605679E+03  0.64807025401E+03  0.20738890625E+03  0.81635146626E+03  0.00000000000E+00 0.  1.
         11    1    3    3    0    0 -0.17596425481E+03 -0.33470826099E+03  0.19669699303E+03  0.42624259057E+03  0.00000000000E+00 0. -1.
        -12    1    3    3    0    0 -0.43549119615E+03 -0.79721742075E+03  0.61555556272E+03  0.10973225819E+04  0.00000000000E+00 0.  1.
          2    1    6    6  502    0  0.20367209451E+02  0.75180317195E+02  0.15455098717E+03  0.17306909299E+03  0.00000000000E+00 0. -1.
         -1    1    6    6    0  502 -0.13399284082E+02  0.23021449442E+03  0.25965803601E+03  0.34727589885E+03  0.00000000000E+00 0.  1.
<mgrwt>
<rscale>  0 0.13099933E+04</rscale>
<asrwt>0</asrwt>
<pdfrwt beam="1">  1        1 0.12167248E+00 0.13099933E+04</pdfrwt>
<pdfrwt beam="2">  1       -2 0.35775081E+00 0.13099933E+04</pdfrwt>
<totfact> 0.26741066E-01</totfact>
</mgrwt>
</event>
<event>
12    3  0.2269558E-007  0.7776918E+03  0.7818608E-02  0.9592881E-01
         -2   -1    0    0    0  501 -0.00000000000E+00  0.00000000000E+00  0.34981469604E+03  0.34981469604E+03  0.00000000000E+00 0.  1.
          1   -1    0    0  501    0  0.00000000000E+00 -0.00000000000E+00 -0.27735028954E+04  0.27735028954E+04  0.00000000000E+00 0. -1.
        -24    2    1    2    0    0  0.28315733364E+02 -0.68379811226E+03 -0.19539229999E+03  0.71628131252E+03  0.80617173654E+02 0.  0.
    5000000    2    1    2    0    0 -0.28315733364E+02  0.68379811226E+03 -0.22282958993E+04  0.24070362789E+04  0.60011615030E+03 0.  0.
        -24    2    4    4    0    0 -0.23992892432E+03  0.15346818029E+03 -0.46183054862E+03  0.54887808427E+03  0.82833113351E+02 0.  0.
         24    2    4    4    0    0  0.21161319096E+03  0.53032993196E+03 -0.17664653507E+04  0.18581581946E+04  0.79511393153E+02 0.  0.
         13    1    5    5    0    0 -0.76457955679E+02  0.85435958424E+02 -0.23169174611E+03  0.25850761535E+03  0.00000000000E+00 0. -1.
        -14    1    5    5    0    0 -0.16347096864E+03  0.68032221867E+02 -0.23013880251E+03  0.29037046892E+03  0.00000000000E+00 0.  1.
         13    1    3    3    0    0  0.47559811011E+02 -0.33348316284E+03 -0.11865463834E+03  0.35714405877E+03  0.00000000000E+00 0. -1.
        -14    1    3    3    0    0 -0.19244077647E+02 -0.35031494942E+03 -0.76737661653E+02  0.35913725375E+03  0.00000000000E+00 0.  1.
          4    1    6    6  502    0  0.14767867217E+03  0.26837060976E+03 -0.97917234736E+03  0.10259679626E+04  0.00000000000E+00 0. -1.
         -3    1    6    6    0  502  0.63934518788E+02  0.26195932220E+03 -0.78729300335E+03  0.83219023205E+03  0.00000000000E+00 0.  1.
<mgrwt>
<rscale>  0 0.77769176E+03</rscale>
<asrwt>0</asrwt>
<pdfrwt beam="1">  1        1 0.42669274E+00 0.77769176E+03</pdfrwt>
<pdfrwt beam="2">  1       -2 0.53817647E-01 0.77769176E+03</pdfrwt>
<totfact> 0.26295536E+00</totfact>
</mgrwt>
</event>
<event>
12    3  0.2269558E-007  0.5173544E+03  0.7818608E-02  0.1009346E+00
          1   -1    0    0  501    0  0.00000000000E+00  0.00000000000E+00  0.73190639375E+03  0.73190639375E+03  0.00000000000E+00 0. -1.
         -2   -1    0    0    0  501 -0.00000000000E+00 -0.00000000000E+00 -0.77109224716E+03  0.77109224716E+03  0.00000000000E+00 0.  1.
        -24    2    1    2    0    0  0.25737138388E+03 -0.36685725062E+03  0.42463337007E+03  0.62197043282E+03  0.75560894384E+02 0.  0.
    5000000    2    1    2    0    0 -0.25737138388E+03  0.36685725062E+03 -0.46381922349E+03  0.88102820809E+03  0.60021509461E+03 0.  0.
        -24    2    4    4    0    0 -0.35009151794E+03  0.29554462089E+03 -0.54514338149E+03  0.71723283476E+03  0.85620902875E+02 0.  0.
         24    2    4    4    0    0  0.92720134058E+02  0.71312629728E+02  0.81324158000E+02  0.16379537333E+03  0.80825684226E+02 0.  0.
         11    1    3    3    0    0  0.15748201394E+03 -0.16060446791E+03  0.22270738147E+03  0.31653271172E+03  0.00000000000E+00 0. -1.
        -12    1    3    3    0    0  0.99889369941E+02 -0.20625278271E+03  0.20192598860E+03  0.30543772111E+03  0.00000000000E+00 0.  1.
         13    1    5    5    0    0 -0.15005104981E+03  0.17145114503E+03 -0.22859817212E+03  0.32275058014E+03  0.00000000000E+00 0. -1.
        -14    1    5    5    0    0 -0.20004046812E+03  0.12409347586E+03 -0.31654520937E+03  0.39448225462E+03  0.00000000000E+00 0.  1.
          4    1    6    6  502    0  0.60961777588E+02  0.52498318524E+02  0.94947571034E+02  0.12444859589E+03  0.00000000000E+00 0. -1.
         -3    1    6    6    0  502  0.31758356470E+02  0.18814311204E+02 -0.13623413034E+02  0.39346777434E+02  0.00000000000E+00 0.  1.
<mgrwt>
<rscale>  0 0.51735435E+03</rscale>
<asrwt>0</asrwt>
<pdfrwt beam="1">  1        1 0.11260098E+00 0.51735435E+03</pdfrwt>
<pdfrwt beam="2">  1       -2 0.11862958E+00 0.51735435E+03</pdfrwt>
<totfact> 0.12798357E+01</totfact>
</mgrwt>
</event>
<event>
12    3  0.2269558E-007  0.3382475E+03  0.7818608E-02  0.1067545E+00
         -2   -1    0    0    0  501 -0.00000000000E+00  0.00000000000E+00  0.33813389238E+03  0.33813389238E+03  0.00000000000E+00 0.  1.
          1   -1    0    0  501    0  0.00000000000E+00 -0.00000000000E+00 -0.72328946861E+03  0.72328946861E+03  0.00000000000E+00 0. -1.
        -24    2    1    2    0    0  0.21626480839E+03  0.18702524392E+03 -0.73798180510E+01  0.29737387848E+03  0.81411624961E+02 0.  0.
    5000000    2    1    2    0    0 -0.21626480839E+03 -0.18702524392E+03 -0.37777575818E+03  0.76404948251E+03  0.59942320529E+03 0.  0.
        -24    2    4    4    0    0 -0.19615226914E+03 -0.24977569494E+02 -0.50083085888E+03  0.54430225925E+03  0.79585228260E+02 0.  0.
         24    2    4    4    0    0 -0.20112539256E+02 -0.16204767442E+03  0.12305510070E+03  0.21974722325E+03  0.80512864183E+02 0.  0.
         11    1    5    5    0    0 -0.10460188447E+03 -0.30923588148E+02 -0.36052195555E+03  0.37666152308E+03  0.00000000000E+00 0. -1.
        -12    1    5    5    0    0 -0.91550384661E+02  0.59460186533E+01 -0.14030890333E+03  0.16764073617E+03  0.00000000000E+00 0.  1.
         13    1    3    3    0    0  0.74024003824E+02  0.10862551142E+03  0.19044820772E+02  0.13282228756E+03  0.00000000000E+00 0. -1.
        -14    1    3    3    0    0  0.14224080457E+03  0.78399732496E+02 -0.26424638823E+02  0.16455159093E+03  0.00000000000E+00 0.  1.
          4    1    6    6  502    0  0.29404736498E+02 -0.36646912506E+02  0.26817294150E+02  0.54099925973E+02  0.00000000000E+00 0. -1.
         -3    1    6    6    0  502 -0.49517275754E+02 -0.12540076192E+03  0.96237806548E+02  0.16564729728E+03  0.00000000000E+00 0.  1.
<mgrwt>
<rscale>  0 0.33824749E+03</rscale>
<asrwt>0</asrwt>
<pdfrwt beam="1">  1        1 0.11127530E+00 0.33824749E+03</pdfrwt>
<pdfrwt beam="2">  1       -2 0.52020600E-01 0.33824749E+03</pdfrwt>
<totfact> 0.83866172E+01</totfact>
</mgrwt>
</event>
<event>
12    3  0.2269558E-007  0.1094186E+04  0.7818608E-02  0.9210877E-01
         -2   -1    0    0    0  501 -0.00000000000E+00  0.00000000000E+00  0.51060064243E+03  0.51060064243E+03  0.00000000000E+00 0.  1.
          1   -1    0    0  501    0  0.00000000000E+00 -0.00000000000E+00 -0.25349213969E+04  0.25349213969E+04  0.00000000000E+00 0. -1.
        -24    2    1    2    0    0 -0.76194533313E+02  0.10341835553E+04 -0.12170848890E+04  0.16009414659E+04  0.79854351709E+02 0.  0.
    5000000    2    1    2    0    0  0.76194533313E+02 -0.10341835553E+04 -0.80723586548E+03  0.14445805734E+04  0.59986836691E+03 0.  0.
        -24    2    4    4    0    0  0.20252081098E+03 -0.99178638948E+03 -0.79292946558E+03  0.12883944498E+04  0.81044429635E+02 0.  0.
         24    2    4    4    0    0 -0.12632627767E+03 -0.42397165775E+02 -0.14306399903E+02  0.15618612362E+03  0.80209625587E+02 0.  0.
         13    1    3    3    0    0 -0.75351984230E+02  0.89721630578E+03 -0.10932828950E+04  0.14163129984E+04  0.00000000000E+00 0. -1.
        -14    1    3    3    0    0 -0.84254908293E+00  0.13696724948E+03 -0.12380199402E+03  0.18462846758E+03  0.00000000000E+00 0.  1.
         13    1    5    5    0    0  0.10102515691E+03 -0.35031159125E+03 -0.25238534730E+03  0.44342153401E+03  0.00000000000E+00 0. -1.
        -14    1    5    5    0    0  0.10149565408E+03 -0.64147479823E+03 -0.54054411828E+03  0.84497291576E+03  0.00000000000E+00 0.  1.
          2    1    6    6  502    0 -0.57386690597E+02 -0.36012210832E+02  0.29886459469E+02  0.74049389236E+02  0.00000000000E+00 0. -1.
         -3    1    6    6    0  502 -0.68939587074E+02 -0.63849549428E+01 -0.44192859372E+02  0.82136734383E+02  0.00000000000E+00 0.  1.
<mgrwt>
<rscale>  0 0.10941861E+04</rscale>
<asrwt>0</asrwt>
<pdfrwt beam="1">  1        1 0.38998790E+00 0.10941861E+04</pdfrwt>
<pdfrwt beam="2">  1       -2 0.78553947E-01 0.10941861E+04</pdfrwt>
<totfact> 0.16240808E+00</totfact>
</mgrwt>
</event>
<event>
12    3  0.2269558E-007  0.1735748E+04  0.7818608E-02  0.8741235E-01
          1   -1    0    0  501    0  0.00000000000E+00  0.00000000000E+00  0.20059537741E+04  0.20059537741E+04  0.00000000000E+00 0. -1.
         -2   -1    0    0    0  501 -0.00000000000E+00 -0.00000000000E+00 -0.15396210372E+04  0.15396210372E+04  0.00000000000E+00 0.  1.
        -24    2    1    2    0    0  0.10315279931E+04  0.13511531504E+04  0.36261112718E+03  0.17399158569E+04  0.78457140751E+02 0.  0.
    5000000    2    1    2    0    0 -0.10315279931E+04 -0.13511531504E+04  0.10372160974E+03  0.18056589544E+04  0.59998437559E+03 0.  0.
        -24    2    4    4    0    0 -0.58486451132E+02 -0.40656518497E+03  0.15463625941E+03  0.44640950309E+03  0.81566887454E+02 0.  0.
         24    2    4    4    0    0 -0.97304154196E+03 -0.94458796547E+03 -0.50914649664E+02  0.13592494514E+04  0.76879792941E+02 0.  0.
         13    1    3    3    0    0  0.82103410597E+03  0.10519913843E+04  0.31401356261E+03  0.13709075072E+04  0.00000000000E+00 0. -1.
        -14    1    3    3    0    0  0.21049388712E+03  0.29916176615E+03  0.48597564571E+02  0.36900834966E+03  0.00000000000E+00 0.  1.
         13    1    5    5    0    0 -0.61635051045E+02 -0.24872654772E+03  0.12752705752E+03  0.28622879914E+03  0.00000000000E+00 0. -1.
        -14    1    5    5    0    0  0.31485999129E+01 -0.15783863725E+03  0.27109201889E+02  0.16018070395E+03  0.00000000000E+00 0.  1.
          2    1    6    6  502    0 -0.41190946913E+03 -0.43598613450E+03  0.55475973902E+01  0.59982005308E+03  0.00000000000E+00 0. -1.
         -1    1    6    6    0  502 -0.56113207283E+03 -0.50860183096E+03 -0.56462247054E+02  0.75942939827E+03  0.00000000000E+00 0.  1.
<mgrwt>
<rscale>  0 0.17357477E+04</rscale>
<asrwt>0</asrwt>
<pdfrwt beam="1">  1        1 0.30860828E+00 0.17357477E+04</pdfrwt>
<pdfrwt beam="2">  1       -2 0.23686477E+00 0.17357477E+04</pdfrwt>
<totfact> 0.18398363E-01</totfact>
</mgrwt>
</event>
<event>
12    3  0.2269558E-007  0.5244229E+03  0.7818608E-02  0.1007594E+00
         -2   -1    0    0    0  501 -0.00000000000E+00  0.00000000000E+00  0.11860549749E+03  0.11860549749E+03  0.00000000000E+00 0.  1.
          1   -1    0    0  501    0  0.00000000000E+00 -0.00000000000E+00 -0.25964820391E+04  0.25964820391E+04  0.00000000000E+00 0. -1.
        -24    2    1    2    0    0 -0.35508392898E+03  0.13713781814E+03 -0.70292271271E+03  0.80333304398E+03  0.79701077320E+02 0.  0.
    5000000    2    1    2    0    0  0.35508392898E+03 -0.13713781814E+03 -0.17749538289E+04  0.19117544926E+04  0.59954379950E+03 0.  0.
        -24    2    4    4    0    0 -0.10144850772E+03  0.89248171313E+02 -0.72884108844E+03  0.74532616794E+03  0.77747852827E+02 0.  0.
         24    2    4    4    0    0  0.45653243670E+03 -0.22638598945E+03 -0.10461127405E+04  0.11664283247E+04  0.80812677640E+02 0.  0.
         11    1    5    5    0    0  0.92279568244E+01  0.11580124601E+02 -0.29199418599E+02  0.32739280985E+02  0.00000000000E+00 0. -1.
        -12    1    5    5    0    0 -0.11067646454E+03  0.77668046712E+02 -0.69964166984E+03  0.71258688695E+03  0.00000000000E+00 0.  1.
         11    1    3    3    0    0 -0.71334964466E+01  0.14718679069E+02 -0.59221748639E+02  0.61438927374E+02  0.00000000000E+00 0. -1.
        -12    1    3    3    0    0 -0.34795043253E+03  0.12241913907E+03 -0.64370096407E+03  0.74189411661E+03  0.00000000000E+00 0.  1.
          2    1    6    6  502    0  0.78012676579E+02 -0.12990421291E+02 -0.12418663670E+03  0.14723127890E+03  0.00000000000E+00 0. -1.
         -1    1    6    6    0  502  0.37851976012E+03 -0.21339556816E+03 -0.92192610378E+03  0.10191970458E+04  0.00000000000E+00 0.  1.
<mgrwt>
<rscale>  0 0.52442289E+03</rscale>
<asrwt>0</asrwt>
<pdfrwt beam="1">  1        1 0.39945877E+00 0.52442289E+03</pdfrwt>
<pdfrwt beam="2">  1       -2 0.18247000E-01 0.52442289E+03</pdfrwt>
<totfact> 0.27755025E+01</totfact>
</mgrwt>
</event>
<event>
12    3  0.2269558E-007  0.7079572E+03  0.7818608E-02  0.9703720E-01
         -2   -1    0    0    0  501 -0.00000000000E+00  0.00000000000E+00  0.71596657205E+03  0.71596657205E+03  0.00000000000E+00 0.  1.
          1   -1    0    0  501    0  0.00000000000E+00 -0.00000000000E+00 -0.91981609931E+03  0.91981609931E+03  0.00000000000E+00 0. -1.
        -24    2    1    2    0    0 -0.50757173949E+02  0.69482452922E+03 -0.46765822724E+02  0.70300560519E+03  0.81684892353E+02 0.  0.
    5000000    2    1    2    0    0  0.50757173949E+02 -0.69482452922E+03 -0.15708370453E+03  0.93277706617E+03  0.60003362225E+03 0.  0.
        -24    2    4    4    0    0  0.54493757760E+02 -0.10274464544E+03  0.19239935120E+03  0.24057396497E+03  0.85628794670E+02 0.  0.
         24    2    4    4    0    0 -0.37365838117E+01 -0.59207988378E+03 -0.34948305574E+03  0.69220310120E+03  0.80213317011E+02 0.  0.
         11    1    3    3    0    0  0.16860176134E+02  0.31685705807E+03 -0.28975990481E+02  0.31862559347E+03  0.00000000000E+00 0. -1.
        -12    1    3    3    0    0 -0.67617350083E+02  0.37796747115E+03 -0.17789832243E+02  0.38438001172E+03  0.00000000000E+00 0.  1.
         11    1    5    5    0    0  0.26313391660E+02 -0.83299899871E+02  0.65633385465E+02  0.10926577317E+03  0.00000000000E+00 0. -1.
        -12    1    5    5    0    0  0.28180366100E+02 -0.19444745567E+02  0.12676596574E+03  0.13130819180E+03  0.00000000000E+00 0.  1.
          4    1    6    6  502    0 -0.82206026152E+01 -0.35165346717E+02 -0.28874180789E+01  0.36228677871E+02  0.00000000000E+00 0. -1.
         -3    1    6    6    0  502  0.44840188034E+01 -0.55691453706E+03 -0.34659563766E+03  0.65597442333E+03  0.00000000000E+00 0.  1.
<mgrwt>
<rscale>  0 0.70795722E+03</rscale>
<asrwt>0</asrwt>
<pdfrwt beam="1">  1        1 0.14151017E+00 0.70795722E+03</pdfrwt>
<pdfrwt beam="2">  1       -2 0.11014870E+00 0.70795722E+03</pdfrwt>
<totfact> 0.10346201E+01</totfact>
</mgrwt>
</event>
<event>
12    3  0.2269558E-007  0.9297011E+03  0.7818608E-02  0.9389197E-01
         -2   -1    0    0    0  501 -0.00000000000E+00  0.00000000000E+00  0.12312569183E+04  0.12312569183E+04  0.00000000000E+00 0.  1.
          1   -1    0    0  501    0  0.00000000000E+00 -0.00000000000E+00 -0.87561308325E+03  0.87561308325E+03  0.00000000000E+00 0. -1.
        -24    2    1    2    0    0 -0.98377832969E+02  0.91117211243E+03  0.41639693086E+03  0.10097952220E+04  0.79919771796E+02 0.  0.
    5000000    2    1    2    0    0  0.98377832969E+02 -0.91117211243E+03 -0.60753095764E+02  0.10970747796E+04  0.59997443014E+03 0.  0.
        -24    2    4    4    0    0  0.14430236003E+03 -0.66553430148E+03 -0.29261193331E+03  0.74647332103E+03  0.88552797427E+02 0.  0.
         24    2    4    4    0    0 -0.45924527058E+02 -0.24563781095E+03  0.23185883755E+03  0.35060145853E+03  0.81950386351E+02 0.  0.
         11    1    5    5    0    0  0.96981568864E+02 -0.24661619144E+03 -0.10536812421E+03  0.28517961389E+03  0.00000000000E+00 0. -1.
        -12    1    5    5    0    0  0.47320791163E+02 -0.41891811004E+03 -0.18724380910E+03  0.46129370713E+03  0.00000000000E+00 0.  1.
         13    1    3    3    0    0 -0.93683706871E+02  0.78807389142E+03  0.38793040260E+03  0.88336124690E+03  0.00000000000E+00 0. -1.
        -14    1    3    3    0    0 -0.46941260987E+01  0.12309822101E+03  0.28466528253E+02  0.12643397513E+03  0.00000000000E+00 0.  1.
          4    1    6    6  502    0 -0.26467629334E+02 -0.32178421441E+02  0.72086923063E+02  0.83261699993E+02  0.00000000000E+00 0. -1.
         -3    1    6    6    0  502 -0.19456897724E+02 -0.21345938951E+03  0.15977191449E+03  0.26733975854E+03  0.00000000000E+00 0.  1.
<mgrwt>
<rscale>  0 0.92970109E+03</rscale>
<asrwt>0</asrwt>
<pdfrwt beam="1">  1        1 0.13470971E+00 0.92970109E+03</pdfrwt>
<pdfrwt beam="2">  1       -2 0.18942414E+00 0.92970109E+03</pdfrwt>
<totfact> 0.26239672E+00</totfact>
</mgrwt>
</event>
<event>
12    3  0.2269558E-007  0.5041857E+03  0.7818608E-02  0.1012692E+00
          1   -1    0    0  501    0  0.00000000000E+00  0.00000000000E+00  0.20385583224E+04  0.20385583224E+04  0.00000000000E+00 0. -1.
         -4   -1    0    0    0  501 -0.00000000000E+00 -0.00000000000E+00 -0.19508589440E+03  0.19508589440E+03  0.00000000000E+00 0.  1.
        -24    2    1    2    0    0 -0.31399224202E+03  0.36052634598E+03  0.58341381826E+03  0.75836618535E+03  0.78595251426E+02 0.  0.
    5000000    2    1    2    0    0  0.31399224202E+03 -0.36052634598E+03  0.12600586097E+04  0.14752780315E+04  0.60010598725E+03 0.  0.
        -24    2    4    4    0    0  0.29778623955E+03 -0.32777003252E+03  0.37536764818E+03  0.58616978853E+03  0.81143767496E+02 0.  0.
         24    2    4    4    0    0  0.16206002474E+02 -0.32756313458E+02  0.88469096157E+03  0.88910824294E+03  0.80621086509E+02 0.  0.
         11    1    3    3    0    0 -0.14609752034E+03  0.11001520519E+03  0.22554509678E+03  0.29037634461E+03  0.00000000000E+00 0. -1.
        -12    1    3    3    0    0 -0.16789472168E+03  0.25051114078E+03  0.35786872148E+03  0.46798984074E+03  0.00000000000E+00 0.  1.
         13    1    5    5    0    0  0.20381931070E+03 -0.25490741964E+03  0.23481649567E+03  0.40206826615E+03  0.00000000000E+00 0. -1.
        -14    1    5    5    0    0  0.93966928850E+02 -0.72862612877E+02  0.14055115251E+03  0.18410152238E+03  0.00000000000E+00 0.  1.
          4    1    6    6  502    0  0.29166830755E+02 -0.49503315327E+02  0.41719908841E+03  0.42113698676E+03  0.00000000000E+00 0. -1.
         -3    1    6    6    0  502 -0.12960828281E+02  0.16747001869E+02  0.46749187316E+03  0.46797125618E+03  0.00000000000E+00 0.  1.
<mgrwt>
<rscale>  0 0.50418571E+03</rscale>
<asrwt>0</asrwt>
<pdfrwt beam="1">  1        1 0.31362434E+00 0.50418571E+03</pdfrwt>
<pdfrwt beam="2">  1       -4 0.30013216E-01 0.50418571E+03</pdfrwt>
<totfact> 0.15571629E+01</totfact>
</mgrwt>
</event>
<event>
12    3  0.2269558E-007  0.5966054E+03  0.7818608E-02  0.9912474E-01
          1   -1    0    0  501    0  0.00000000000E+00  0.00000000000E+00  0.12789562662E+04  0.12789562662E+04  0.00000000000E+00 0. -1.
         -2   -1    0    0    0  501 -0.00000000000E+00 -0.00000000000E+00 -0.29255566384E+03  0.29255566384E+03  0.00000000000E+00 0.  1.
        -24    2    1    2    0    0  0.44933382490E+03 -0.86481066313E+02  0.30868673144E+03  0.55758620904E+03  0.78962151169E+02 0.  0.
    5000000    2    1    2    0    0 -0.44933382490E+03  0.86481066313E+02  0.67771387091E+03  0.10139257210E+04  0.59947428289E+03 0.  0.
        -24    2    4    4    0    0 -0.14302206049E+03  0.30977583703E+03  0.43142514877E+03  0.55534613329E+03  0.76585179892E+02 0.  0.
         24    2    4    4    0    0 -0.30631176441E+03 -0.22329477071E+03  0.24628872214E+03  0.45857958771E+03  0.77133987079E+02 0.  0.
         13    1    3    3    0    0  0.19380589751E+03 -0.49803319539E+02  0.90637177600E+02  0.21967292621E+03  0.00000000000E+00 0. -1.
        -14    1    3    3    0    0  0.25552792739E+03 -0.36677746774E+02  0.21804955384E+03  0.33791328283E+03  0.00000000000E+00 0.  1.
         13    1    5    5    0    0 -0.13728667479E+03  0.22448906684E+03  0.34364963692E+03  0.43282565215E+03  0.00000000000E+00 0. -1.
        -14    1    5    5    0    0 -0.57353856956E+01  0.85286770188E+02  0.87775511851E+02  0.12252048114E+03  0.00000000000E+00 0.  1.
          4    1    6    6  502    0 -0.18446617111E+03 -0.88367279874E+02  0.11887722471E+03  0.23657628578E+03  0.00000000000E+00 0. -1.
         -3    1    6    6    0  502 -0.12184559330E+03 -0.13492749084E+03  0.12741149743E+03  0.22200330193E+03  0.00000000000E+00 0.  1.
<mgrwt>
<rscale>  0 0.59660542E+03</rscale>
<asrwt>0</asrwt>
<pdfrwt beam="1">  1        1 0.19676250E+00 0.59660542E+03</pdfrwt>
<pdfrwt beam="2">  1       -2 0.45008564E-01 0.59660542E+03</pdfrwt>
<totfact> 0.40112315E+01</totfact>
</mgrwt>
</event>
<event>
12    3  0.2269558E-007  0.5140794E+03  0.7818608E-02  0.1010168E+00
         -4   -1    0    0    0  501 -0.00000000000E+00  0.00000000000E+00  0.17326713575E+03  0.17326713575E+03  0.00000000000E+00 0.  1.
          3   -1    0    0  501    0  0.00000000000E+00 -0.00000000000E+00 -0.18922379630E+04  0.18922379630E+04  0.00000000000E+00 0. -1.
        -24    2    1    2    0    0  0.20673082715E+02 -0.38703573484E+03 -0.87201706500E+03  0.95757755931E+03  0.79479456720E+02 0.  0.
    5000000    2    1    2    0    0 -0.20673082715E+02  0.38703573484E+03 -0.84695376228E+03  0.11079275395E+04  0.59995726590E+03 0.  0.
        -24    2    4    4    0    0 -0.18073185461E+03 -0.21578376694E+02 -0.66739883230E+02  0.20958903746E+03  0.79647492098E+02 0.  0.
         24    2    4    4    0    0  0.16005877190E+03  0.40861411153E+03 -0.78021387905E+03  0.89833850202E+03  0.75459025591E+02 0.  0.
         13    1    3    3    0    0 -0.19684801070E+02 -0.16859213086E+03 -0.31341310868E+03  0.35642471109E+03  0.00000000000E+00 0. -1.
        -14    1    3    3    0    0  0.40357883785E+02 -0.21844360398E+03 -0.55860395632E+03  0.60115284822E+03  0.00000000000E+00 0.  1.
         13    1    5    5    0    0 -0.14847805396E+03 -0.47572798969E+02 -0.62403712959E+02  0.16793786678E+03  0.00000000000E+00 0. -1.
        -14    1    5    5    0    0 -0.32253800652E+02  0.25994422275E+02 -0.43361702707E+01  0.41651170674E+02  0.00000000000E+00 0.  1.
          4    1    6    6  502    0  0.15067047939E+03  0.37801473965E+03 -0.75464832340E+03  0.85737438075E+03  0.00000000000E+00 0. -1.
         -3    1    6    6    0  502  0.93882925078E+01  0.30599371880E+02 -0.25565555645E+02  0.40964121266E+02  0.00000000000E+00 0.  1.
<mgrwt>
<rscale>  0 0.51407942E+03</rscale>
<asrwt>0</asrwt>
<pdfrwt beam="1">  1        3 0.29111355E+00 0.51407942E+03</pdfrwt>
<pdfrwt beam="2">  1       -4 0.26656481E-01 0.51407942E+03</pdfrwt>
<totfact> 0.13741626E+00</totfact>
</mgrwt>
</event>
<event>
12    3  0.2269558E-007  0.4321970E+03  0.7818608E-02  0.1033168E+00
         -2   -1    0    0    0  501 -0.00000000000E+00  0.00000000000E+00  0.47686098926E+03  0.47686098926E+03  0.00000000000E+00 0.  1.
          1   -1    0    0  501    0  0.00000000000E+00 -0.00000000000E+00 -0.46022789581E+03  0.46022789581E+03  0.00000000000E+00 0. -1.
        -24    2    1    2    0    0  0.22719164841E+03  0.79279542331E+02  0.12361728927E+03  0.28197922834E+03  0.79559789266E+02 0.  0.
    5000000    2    1    2    0    0 -0.22719164841E+03 -0.79279542331E+02 -0.10698419581E+03  0.65510965673E+03  0.59985144265E+03 0.  0.
        -24    2    4    4    0    0 -0.27575675867E+03 -0.29016753263E+03 -0.12187385937E+03  0.42620639520E+03  0.80991769750E+02 0.  0.
         24    2    4    4    0    0  0.48565110261E+02  0.21088799030E+03  0.14889663555E+02  0.22890326154E+03  0.73093684231E+02 0.  0.
         13    1    5    5    0    0 -0.19908010824E+03 -0.22172970762E+03 -0.12556647948E+03  0.32336340781E+03  0.00000000000E+00 0. -1.
        -14    1    5    5    0    0 -0.76676650425E+02 -0.68437825010E+02  0.36926201109E+01  0.10284298739E+03  0.00000000000E+00 0.  1.
         13    1    3    3    0    0  0.88526907200E+02  0.12102846133E+02  0.84574172135E+02  0.12302960122E+03  0.00000000000E+00 0. -1.
        -14    1    3    3    0    0  0.13866474121E+03  0.67176696198E+02  0.39043117137E+02  0.15894962712E+03  0.00000000000E+00 0.  1.
          4    1    6    6  502    0 -0.24274676549E+01  0.75298597514E+02 -0.23722815722E+02  0.78984450194E+02  0.00000000000E+00 0. -1.
         -3    1    6    6    0  502  0.50992577916E+02  0.13558939278E+03  0.38612479277E+02  0.14991881134E+03  0.00000000000E+00 0.  1.
<mgrwt>
<rscale>  0 0.43219696E+03</rscale>
<asrwt>0</asrwt>
<pdfrwt beam="1">  1        1 0.70804291E-01 0.43219696E+03</pdfrwt>
<pdfrwt beam="2">  1       -2 0.73363230E-01 0.43219696E+03</pdfrwt>
<totfact> 0.75797296E+01</totfact>
</mgrwt>
</event>
<event>
12    3  0.2269558E-007  0.3985364E+03  0.7818608E-02  0.1044288E+00
         -2   -1    0    0    0  501 -0.00000000000E+00  0.00000000000E+00  0.13855885741E+03  0.13855885741E+03  0.00000000000E+00 0.  1.
          1   -1    0    0  501    0  0.00000000000E+00 -0.00000000000E+00 -0.17148365510E+04  0.17148365510E+04  0.00000000000E+00 0. -1.
        -24    2    1    2    0    0  0.18194584809E+03  0.77972342976E+02 -0.91118895220E+03  0.93605011129E+03  0.82100708483E+02 0.  0.
    5000000    2    1    2    0    0 -0.18194584809E+03 -0.77972342976E+02 -0.66508874143E+03  0.91734529716E+03  0.59999615194E+03 0.  0.
        -24    2    4    4    0    0  0.91020173323E+02  0.17987331482E+03 -0.11662133440E+03  0.24576747998E+03  0.78498644820E+02 0.  0.
         24    2    4    4    0    0 -0.27296602141E+03 -0.25784565780E+03 -0.54846740702E+03  0.67157781718E+03  0.95944962763E+02 0.  0.
         13    1    3    3    0    0  0.76141262481E+02  0.68446905915E+02 -0.55468670402E+03  0.56405656667E+03  0.00000000000E+00 0. -1.
        -14    1    3    3    0    0  0.10580458561E+03  0.95254370604E+01 -0.35650224817E+03  0.37199354462E+03  0.00000000000E+00 0.  1.
         13    1    5    5    0    0  0.41288897401E+02  0.13303717230E+03 -0.10930466257E+03  0.17706262034E+03  0.00000000000E+00 0. -1.
        -14    1    5    5    0    0  0.49731275922E+02  0.46836142520E+02 -0.73166718398E+01  0.68704859638E+02  0.00000000000E+00 0.  1.
          4    1    6    6  502    0 -0.15956749509E+03 -0.10696857485E+03 -0.21435352412E+03  0.28783935589E+03  0.00000000000E+00 0. -1.
         -3    1    6    6    0  502 -0.11339852632E+03 -0.15087708294E+03 -0.33411388290E+03  0.38373846130E+03  0.00000000000E+00 0.  1.
<mgrwt>
<rscale>  0 0.39853640E+03</rscale>
<asrwt>0</asrwt>
<pdfrwt beam="1">  1        1 0.26382100E+00 0.39853640E+03</pdfrwt>
<pdfrwt beam="2">  1       -2 0.21316748E-01 0.39853640E+03</pdfrwt>
<totfact> 0.83797298E+01</totfact>
</mgrwt>
</event>
<event>
12    3  0.2269558E-007  0.6991451E+03  0.7818608E-02  0.9718695E-01
         -2   -1    0    0    0  501 -0.00000000000E+00  0.00000000000E+00  0.34156273675E+03  0.34156273675E+03  0.00000000000E+00 0.  1.
          1   -1    0    0  501    0  0.00000000000E+00 -0.00000000000E+00 -0.24059673324E+04  0.24059673324E+04  0.00000000000E+00 0. -1.
        -24    2    1    2    0    0 -0.33439073207E+03  0.60194075671E+03 -0.28805257328E+03  0.75014680153E+03  0.74807102517E+02 0.  0.
    5000000    2    1    2    0    0  0.33439073207E+03 -0.60194075671E+03 -0.17763520224E+04  0.19973832676E+04  0.59996964434E+03 0.  0.
        -24    2    4    4    0    0  0.79338558878E+02 -0.30149738428E+03 -0.14343823676E+04  0.14697297598E+04  0.73874966932E+02 0.  0.
         24    2    4    4    0    0  0.25505217319E+03 -0.30044337243E+03 -0.34196965476E+03  0.52765350780E+03  0.78467499224E+02 0.  0.
         11    1    3    3    0    0 -0.13978528978E+03  0.25781049054E+03 -0.16285875957E+03  0.33545365081E+03  0.00000000000E+00 0. -1.
        -12    1    3    3    0    0 -0.19460544229E+03  0.34413026617E+03 -0.12519381371E+03  0.41469315072E+03  0.00000000000E+00 0.  1.
         11    1    5    5    0    0 -0.26471371696E+01 -0.32580917855E+02 -0.26593826432E+03  0.26793970212E+03  0.00000000000E+00 0. -1.
        -12    1    5    5    0    0  0.81985696048E+02 -0.26891646643E+03 -0.11684441033E+04  0.12017900577E+04  0.00000000000E+00 0.  1.
          4    1    6    6  502    0  0.16489202863E+03 -0.22064238823E+03 -0.27783101661E+03  0.39123205183E+03  0.00000000000E+00 0. -1.
         -3    1    6    6    0  502  0.90160144553E+02 -0.79800984200E+02 -0.64138638152E+02  0.13642145597E+03  0.00000000000E+00 0.  1.
<mgrwt>
<rscale>  0 0.69914506E+03</rscale>
<asrwt>0</asrwt>
<pdfrwt beam="1">  1        1 0.37014882E+00 0.69914506E+03</pdfrwt>
<pdfrwt beam="2">  1       -2 0.52548114E-01 0.69914506E+03</pdfrwt>
<totfact> 0.50135000E+00</totfact>
</mgrwt>
</event>
<event>
12    3  0.2269558E-007  0.6042779E+03  0.7818608E-02  0.9896570E-01
          1   -1    0    0  501    0  0.00000000000E+00  0.00000000000E+00  0.22144916823E+04  0.22144916823E+04  0.00000000000E+00 0. -1.
         -2   -1    0    0    0  501 -0.00000000000E+00 -0.00000000000E+00 -0.18132846838E+03  0.18132846838E+03  0.00000000000E+00 0.  1.
        -24    2    1    2    0    0 -0.36435834986E+03 -0.32109490385E+03  0.87292852325E+03  0.10022660847E+04  0.81695492195E+02 0.  0.
    5000000    2    1    2    0    0  0.36435834986E+03  0.32109490385E+03  0.11602346906E+04  0.13935540659E+04  0.59999121074E+03 0.  0.
        -24    2    4    4    0    0 -0.74201623717E+02 -0.86212794993E+02  0.92878681157E+02  0.16733188417E+03  0.80218346173E+02 0.  0.
         24    2    4    4    0    0  0.43855997358E+03  0.40730769885E+03  0.10673560095E+04  0.12262221818E+04  0.78342684123E+02 0.  0.
         11    1    3    3    0    0 -0.14179435339E+03 -0.17715611020E+03  0.37997579484E+03  0.44257375735E+03  0.00000000000E+00 0. -1.
        -12    1    3    3    0    0 -0.22256399647E+03 -0.14393879365E+03  0.49295272841E+03  0.55969232735E+03  0.00000000000E+00 0.  1.
         11    1    5    5    0    0 -0.46656214171E+02 -0.69584721247E+02  0.10376565546E+03  0.13336471424E+03  0.00000000000E+00 0. -1.
        -12    1    5    5    0    0 -0.27545409546E+02 -0.16628073746E+02 -0.10886974299E+02  0.33967169928E+02  0.00000000000E+00 0.  1.
          4    1    6    6  502    0  0.18657389407E+03  0.13984304215E+03  0.47501927354E+03  0.52915895969E+03  0.00000000000E+00 0. -1.
         -3    1    6    6    0  502  0.25198607951E+03  0.26746465670E+03  0.59233673593E+03  0.69706322208E+03  0.00000000000E+00 0.  1.
<mgrwt>
<rscale>  0 0.60427787E+03</rscale>
<asrwt>0</asrwt>
<pdfrwt beam="1">  1        1 0.34069101E+00 0.60427787E+03</pdfrwt>
<pdfrwt beam="2">  1       -2 0.27896689E-01 0.60427787E+03</pdfrwt>
<totfact> 0.23335500E+01</totfact>
</mgrwt>
</event>
<event>
12    3  0.2269558E-007  0.5695147E+03  0.7818608E-02  0.9970753E-01
          1   -1    0    0  501    0  0.00000000000E+00  0.00000000000E+00  0.46287600872E+03  0.46287600872E+03  0.00000000000E+00 0. -1.
         -4   -1    0    0    0  501 -0.00000000000E+00 -0.00000000000E+00 -0.72174930566E+03  0.72174930566E+03  0.00000000000E+00 0.  1.
        -24    2    1    2    0    0  0.31612743903E+03 -0.26314571856E+03 -0.16849050689E+03  0.45158432073E+03  0.79731555326E+02 0.  0.
    5000000    2    1    2    0    0 -0.31612743903E+03  0.26314571856E+03 -0.90382790052E+02  0.73304099365E+03  0.59999818561E+03 0.  0.
        -24    2    4    4    0    0  0.15160019434E+03 -0.21999785686E+02 -0.49609710255E+01  0.17296547908E+03  0.80161313773E+02 0.  0.
         24    2    4    4    0    0 -0.46772763337E+03  0.28514550425E+03 -0.85421819027E+02  0.56007551457E+03  0.79439267679E+02 0.  0.
         13    1    3    3    0    0  0.77191086528E+02 -0.11273067340E+03 -0.56351325855E+02  0.14779086741E+03  0.00000000000E+00 0. -1.
        -14    1    3    3    0    0  0.23893635250E+03 -0.15041504516E+03 -0.11213918103E+03  0.30379345332E+03  0.00000000000E+00 0.  1.
         13    1    5    5    0    0  0.92617377420E+02 -0.51175099531E+02  0.71487205643E+01  0.10605646429E+03  0.00000000000E+00 0. -1.
        -14    1    5    5    0    0  0.58982816917E+02  0.29175313845E+02 -0.12109691590E+02  0.66909014788E+02  0.00000000000E+00 0.  1.
          2    1    6    6  502    0 -0.28046109472E+03  0.15554919416E+03 -0.12512006718E+02  0.32095253195E+03  0.00000000000E+00 0. -1.
         -1    1    6    6    0  502 -0.18726653865E+03  0.12959631009E+03 -0.72909812309E+02  0.23912298262E+03  0.00000000000E+00 0.  1.
<mgrwt>
<rscale>  0 0.56951470E+03</rscale>
<asrwt>0</asrwt>
<pdfrwt beam="1">  1        1 0.71211694E-01 0.56951470E+03</pdfrwt>
<pdfrwt beam="2">  1       -4 0.11103835E+00 0.56951470E+03</pdfrwt>
<totfact> 0.15292502E+01</totfact>
</mgrwt>
</event>
<event>
12    3  0.2269558E-007  0.1162235E+04  0.7818608E-02  0.9146569E-01
         -2   -1    0    0    0  501 -0.00000000000E+00  0.00000000000E+00  0.79240774070E+03  0.79240774070E+03  0.00000000000E+00 0.  1.
          1   -1    0    0  501    0  0.00000000000E+00 -0.00000000000E+00 -0.26974796975E+04  0.26974796975E+04  0.00000000000E+00 0. -1.
        -24    2    1    2    0    0  0.82574846122E+03 -0.74872397278E+03 -0.19227192393E+04  0.22239256021E+04  0.80917870939E+02 0.  0.
    5000000    2    1    2    0    0 -0.82574846122E+03  0.74872397278E+03  0.17647282462E+02  0.12659618361E+04  0.59991652365E+03 0.  0.
        -24    2    4    4    0    0 -0.52813852260E+03  0.16972324797E+03 -0.16706251059E+03  0.58467145459E+03  0.78705447178E+02 0.  0.
         24    2    4    4    0    0 -0.29760993862E+03  0.57900072481E+03  0.18470979305E+03  0.68129038155E+03  0.78900959697E+02 0.  0.
         11    1    3    3    0    0  0.18414452467E+03 -0.12359332775E+03 -0.37673172443E+03  0.43716279442E+03  0.00000000000E+00 0. -1.
        -12    1    3    3    0    0  0.64160393655E+03 -0.62513064503E+03 -0.15459875148E+04  0.17867628076E+04  0.00000000000E+00 0.  1.
         13    1    5    5    0    0 -0.25270275184E+03  0.84250304861E+02 -0.39359733587E+02  0.26926935080E+03  0.00000000000E+00 0. -1.
        -14    1    5    5    0    0 -0.27543577076E+03  0.85472943109E+02 -0.12770277700E+03  0.31540210378E+03  0.00000000000E+00 0.  1.
          4    1    6    6  502    0 -0.28438508539E+03  0.53118445633E+03  0.18906486364E+03  0.63148818366E+03  0.00000000000E+00 0. -1.
         -3    1    6    6    0  502 -0.13224853235E+02  0.47816268487E+02 -0.43550705910E+01  0.49802197893E+02  0.00000000000E+00 0.  1.
<mgrwt>
<rscale>  0 0.11622355E+04</rscale>
<asrwt>0</asrwt>
<pdfrwt beam="1">  1        1 0.41499687E+00 0.11622355E+04</pdfrwt>
<pdfrwt beam="2">  1       -2 0.12190889E+00 0.11622355E+04</pdfrwt>
<totfact> 0.43752992E-01</totfact>
</mgrwt>
</event>
<event>
12    3  0.2269558E-007  0.6964510E+03  0.7818608E-02  0.9723321E-01
          1   -1    0    0  501    0  0.00000000000E+00  0.00000000000E+00  0.19222003293E+04  0.19222003293E+04  0.00000000000E+00 0. -1.
         -2   -1    0    0    0  501 -0.00000000000E+00 -0.00000000000E+00 -0.28980792306E+03  0.28980792306E+03  0.00000000000E+00 0.  1.
        -24    2    1    2    0    0 -0.57358592055E+03 -0.12001035027E+03  0.37365723452E+03  0.69946842469E+03  0.78949704332E+02 0.  0.
    5000000    2    1    2    0    0  0.57358592055E+03  0.12001035027E+03  0.12587351717E+04  0.15125398277E+04  0.59996600345E+03 0.  0.
        -24    2    4    4    0    0  0.58806323161E+03  0.26650365827E+03  0.83290509322E+03  0.10567602692E+04  0.78541759844E+02 0.  0.
         24    2    4    4    0    0 -0.14477311061E+02 -0.14649330800E+03  0.42583007851E+03  0.45577955845E+03  0.68803112643E+02 0.  0.
         13    1    3    3    0    0 -0.24813333312E+03 -0.20185344132E+02  0.13013251440E+03  0.28091292321E+03  0.00000000000E+00 0. -1.
        -14    1    3    3    0    0 -0.32545258743E+03 -0.99825006141E+02  0.24352472011E+03  0.41855550148E+03  0.00000000000E+00 0.  1.
         13    1    5    5    0    0  0.31255054299E+03  0.98530293083E+02  0.41970644314E+03  0.53249371733E+03  0.00000000000E+00 0. -1.
        -14    1    5    5    0    0  0.27551268862E+03  0.16797336519E+03  0.41319865007E+03  0.52426655189E+03  0.00000000000E+00 0.  1.
          4    1    6    6  502    0  0.12793837416E+02 -0.83783455312E+02  0.30895100388E+03  0.32036552944E+03  0.00000000000E+00 0. -1.
         -3    1    6    6    0  502 -0.27271148477E+02 -0.62709852688E+02  0.11687907463E+03  0.13541402900E+03  0.00000000000E+00 0.  1.
<mgrwt>
<rscale>  0 0.69645097E+03</rscale>
<asrwt>0</asrwt>
<pdfrwt beam="1">  1        1 0.29572312E+00 0.69645097E+03</pdfrwt>
<pdfrwt beam="2">  1       -2 0.44585836E-01 0.69645097E+03</pdfrwt>
<totfact> 0.14749786E+01</totfact>
</mgrwt>
</event>
<event>
12    3  0.2269558E-007  0.1572837E+04  0.7818608E-02  0.8837411E-01
          1   -1    0    0  501    0  0.00000000000E+00  0.00000000000E+00  0.35229079577E+04  0.35229079577E+04  0.00000000000E+00 0. -1.
         -2   -1    0    0    0  501 -0.00000000000E+00 -0.00000000000E+00 -0.95404934278E+03  0.95404934278E+03  0.00000000000E+00 0.  1.
        -24    2    1    2    0    0  0.86032114672E+03 -0.12895963450E+04  0.23269836317E+04  0.27972669049E+04  0.81474575137E+02 0.  0.
    5000000    2    1    2    0    0 -0.86032114672E+03  0.12895963450E+04  0.24187498325E+03  0.16796903956E+04  0.59970418470E+03 0.  0.
        -24    2    4    4    0    0 -0.53279150147E+03  0.48343925239E+03  0.34177574158E+03  0.80036129438E+03  0.78659069591E+02 0.  0.
         24    2    4    4    0    0 -0.32752964525E+03  0.80615709259E+03 -0.99900758332E+02  0.87932910124E+03  0.77939594008E+02 0.  0.
         11    1    5    5    0    0 -0.15696943389E+03  0.11432649889E+03  0.12365394273E+03  0.23021782962E+03  0.00000000000E+00 0. -1.
        -12    1    5    5    0    0 -0.37582206758E+03  0.36911275351E+03  0.21812179885E+03  0.57014346476E+03  0.00000000000E+00 0.  1.
         11    1    3    3    0    0  0.39114482704E+03 -0.53988916191E+03  0.10563609198E+04  0.12491489005E+04  0.00000000000E+00 0. -1.
        -12    1    3    3    0    0  0.46917631968E+03 -0.74970718307E+03  0.12706227119E+04  0.15481180043E+04  0.00000000000E+00 0.  1.
          4    1    6    6  502    0 -0.83188756371E+02  0.30379831857E+03 -0.32877894689E+02  0.31669345354E+03  0.00000000000E+00 0. -1.
         -3    1    6    6    0  502 -0.24434088888E+03  0.50235877402E+03 -0.67022863643E+02  0.56263564771E+03  0.00000000000E+00 0.  1.
<mgrwt>
<rscale>  0 0.15728374E+04</rscale>
<asrwt>0</asrwt>
<pdfrwt beam="1">  1        1 0.54198583E+00 0.15728374E+04</pdfrwt>
<pdfrwt beam="2">  1       -2 0.14677682E+00 0.15728374E+04</pdfrwt>
<totfact> 0.63051522E-02</totfact>
</mgrwt>
</event>
<event>
12    3  0.2269558E-007  0.5912911E+03  0.7818608E-02  0.9923641E-01
          1   -1    0    0  501    0  0.00000000000E+00  0.00000000000E+00  0.16028426976E+03  0.16028426976E+03  0.00000000000E+00 0. -1.
         -2   -1    0    0    0  501 -0.00000000000E+00 -0.00000000000E+00 -0.24704381672E+04  0.24704381672E+04  0.00000000000E+00 0.  1.
        -24    2    1    2    0    0 -0.43177514901E+03 -0.12789807021E+03 -0.12572976983E+04  0.13378850901E+04  0.79695147979E+02 0.  0.
    5000000    2    1    2    0    0  0.43177514901E+03  0.12789807021E+03 -0.10528561992E+04  0.12928373469E+04  0.60011210087E+03 0.  0.
        -24    2    4    4    0    0  0.40170875515E+03  0.33235318090E+03 -0.70543241921E+03  0.88066505418E+03  0.78150360084E+02 0.  0.
         24    2    4    4    0    0  0.30066393867E+02 -0.20445511068E+03 -0.34742378001E+03  0.41217229270E+03  0.80478789941E+02 0.  0.
         13    1    3    3    0    0 -0.57418227529E+02 -0.31441228297E+02 -0.12020829557E+03  0.13687745619E+03  0.00000000000E+00 0. -1.
        -14    1    3    3    0    0 -0.37435692148E+03 -0.96456841915E+02 -0.11370894027E+04  0.12010076339E+04  0.00000000000E+00 0.  1.
         13    1    5    5    0    0  0.11271892411E+03  0.87767084309E+02 -0.25466546539E+03  0.29199848665E+03  0.00000000000E+00 0. -1.
        -14    1    5    5    0    0  0.28898983103E+03  0.24458609659E+03 -0.45076695381E+03  0.58866656754E+03  0.00000000000E+00 0.  1.
          4    1    6    6  502    0  0.12983362436E+02 -0.17119450782E+03 -0.21819130932E+03  0.27763928877E+03  0.00000000000E+00 0. -1.
         -3    1    6    6    0  502  0.17083031431E+02 -0.33260602867E+02 -0.12923247069E+03  0.13453300393E+03  0.00000000000E+00 0.  1.
<mgrwt>
<rscale>  0 0.59129108E+03</rscale>
<asrwt>0</asrwt>
<pdfrwt beam="1">  1        1 0.24659122E-01 0.59129108E+03</pdfrwt>
<pdfrwt beam="2">  1       -2 0.38006736E+00 0.59129108E+03</pdfrwt>
<totfact> 0.18893282E+00</totfact>
</mgrwt>
</event>
<event>
12    3  0.2269558E-007  0.7114111E+03  0.7818608E-02  0.9697914E-01
         -2   -1    0    0    0  501 -0.00000000000E+00  0.00000000000E+00  0.41518947908E+03  0.41518947908E+03  0.00000000000E+00 0.  1.
          1   -1    0    0  501    0  0.00000000000E+00 -0.00000000000E+00 -0.16532375181E+04  0.16532375181E+04  0.00000000000E+00 0. -1.
        -24    2    1    2    0    0 -0.78306465660E+02 -0.64768417008E+03 -0.16673240594E+03  0.67792422200E+03  0.78452972164E+02 0.  0.
    5000000    2    1    2    0    0  0.78306465660E+02  0.64768417008E+03 -0.10713156330E+04  0.13905027751E+04  0.60012839902E+03 0.  0.
        -24    2    4    4    0    0 -0.14037215128E+03  0.13605884291E+03 -0.40493858391E+02  0.21625553225E+03  0.83128533441E+02 0.  0.
         24    2    4    4    0    0  0.21867861694E+03  0.51162532717E+03 -0.10308217746E+04  0.11742472429E+04  0.81744990176E+02 0.  0.
         11    1    3    3    0    0 -0.37584145849E+02 -0.51741524709E+03 -0.11113245668E+03  0.53054832849E+03  0.00000000000E+00 0. -1.
        -12    1    3    3    0    0 -0.40722319811E+02 -0.13026892300E+03 -0.55599949258E+02  0.14737589351E+03  0.00000000000E+00 0.  1.
         13    1    5    5    0    0  0.21695339167E+01 -0.48245290980E+01  0.84327535576E+01  0.99546115443E+01  0.00000000000E+00 0. -1.
        -14    1    5    5    0    0 -0.14254168519E+03  0.14088337201E+03 -0.48926611948E+02  0.20630092070E+03  0.00000000000E+00 0.  1.
          4    1    6    6  502    0  0.72848578542E+02  0.90405312634E+02 -0.23401398266E+03  0.26123280810E+03  0.00000000000E+00 0. -1.
         -3    1    6    6    0  502  0.14583003840E+03  0.42122001454E+03 -0.79680779198E+03  0.91301443478E+03  0.00000000000E+00 0.  1.
<mgrwt>
<rscale>  0 0.71141113E+03</rscale>
<asrwt>0</asrwt>
<pdfrwt beam="1">  1        1 0.25434424E+00 0.71141113E+03</pdfrwt>
<pdfrwt beam="2">  1       -2 0.63875303E-01 0.71141113E+03</pdfrwt>
<totfact> 0.10619442E+01</totfact>
</mgrwt>
</event>
<event>
12    3  0.2269558E-007  0.9807044E+03  0.7818608E-02  0.9329965E-01
          1   -1    0    0  501    0  0.00000000000E+00  0.00000000000E+00  0.14889623850E+04  0.14889623850E+04  0.00000000000E+00 0. -1.
         -2   -1    0    0    0  501 -0.00000000000E+00 -0.00000000000E+00 -0.72303904054E+03  0.72303904054E+03  0.00000000000E+00 0.  1.
        -24    2    1    2    0    0  0.42327396022E+03 -0.82791544733E+03  0.55379427118E+03  0.10852606873E+04  0.80609125927E+02 0.  0.
    5000000    2    1    2    0    0 -0.42327396022E+03  0.82791544733E+03  0.21212907329E+03  0.11267407383E+04  0.59995092654E+03 0.  0.
        -24    2    4    4    0    0 -0.49632616454E+03  0.62317545552E+03 -0.16880263721E+02  0.80084850708E+03  0.79912940313E+02 0.  0.
         24    2    4    4    0    0  0.73052204320E+02  0.20473999182E+03  0.22900933701E+03  0.32589223121E+03  0.80655942857E+02 0.  0.
         11    1    3    3    0    0  0.91164415801E+02 -0.16945510300E+03  0.78035440160E+02  0.20764275225E+03  0.00000000000E+00 0. -1.
        -12    1    3    3    0    0  0.33210954442E+03 -0.65846034433E+03  0.47575883102E+03  0.87761793501E+03  0.00000000000E+00 0.  1.
         11    1    5    5    0    0 -0.29803019801E+03  0.31033136702E+03 -0.70050352314E+01  0.43032153885E+03  0.00000000000E+00 0. -1.
        -12    1    5    5    0    0 -0.19829596654E+03  0.31284408849E+03 -0.98752284896E+01  0.37052696823E+03  0.00000000000E+00 0.  1.
          4    1    6    6  502    0 -0.86121072596E+01  0.87803274921E+02  0.10251220846E+03  0.13524916400E+03  0.00000000000E+00 0. -1.
         -3    1    6    6    0  502  0.81664311579E+02  0.11693671690E+03  0.12649712855E+03  0.19064306721E+03  0.00000000000E+00 0.  1.
<mgrwt>
<rscale>  0 0.98070444E+03</rscale>
<asrwt>0</asrwt>
<pdfrwt beam="1">  1        1 0.22907114E+00 0.98070444E+03</pdfrwt>
<pdfrwt beam="2">  1       -2 0.11123678E+00 0.98070444E+03</pdfrwt>
<totfact> 0.37432959E+00</totfact>
</mgrwt>
</event>
<event>
12    3  0.2269558E-007  0.5200338E+03  0.7818608E-02  0.1008678E+00
         -2   -1    0    0    0  501 -0.00000000000E+00  0.00000000000E+00  0.57336492044E+03  0.57336492044E+03  0.00000000000E+00 0.  1.
          1   -1    0    0  501    0  0.00000000000E+00 -0.00000000000E+00 -0.58707488220E+03  0.58707488220E+03  0.00000000000E+00 0. -1.
        -24    2    1    2    0    0 -0.29408949198E+03 -0.19434747476E+03  0.22368887695E+03  0.42512544539E+03  0.80220698116E+02 0.  0.
    5000000    2    1    2    0    0  0.29408949198E+03  0.19434747476E+03 -0.23739883871E+03  0.73531435725E+03  0.60005785147E+03 0.  0.
        -24    2    4    4    0    0 -0.16532345723E+03  0.11923201673E+03 -0.11401629854E+03  0.24710232019E+03  0.80695235217E+02 0.  0.
         24    2    4    4    0    0  0.45941294921E+03  0.75115458029E+02 -0.12338254017E+03  0.48821203706E+03  0.80157045671E+02 0.  0.
         11    1    3    3    0    0 -0.12355364051E+03 -0.53497844648E+02  0.48994832163E+02  0.14327601001E+03  0.00000000000E+00 0. -1.
        -12    1    3    3    0    0 -0.17053585147E+03 -0.14084963011E+03  0.17469404479E+03  0.28184943538E+03  0.00000000000E+00 0.  1.
         13    1    5    5    0    0 -0.92239808785E+02  0.18181543409E+02 -0.40773809803E+02  0.10247562838E+03  0.00000000000E+00 0. -1.
        -14    1    5    5    0    0 -0.73083648443E+02  0.10105047332E+03 -0.73242488738E+02  0.14462669181E+03  0.00000000000E+00 0.  1.
          2    1    6    6  502    0  0.16535100702E+02  0.32999765378E+01  0.10666849644E+02  0.19951969369E+02  0.00000000000E+00 0. -1.
         -1    1    6    6    0  502  0.44287784851E+03  0.71815481491E+02 -0.13404938981E+03  0.46826006769E+03  0.00000000000E+00 0.  1.
<mgrwt>
<rscale>  0 0.52003375E+03</rscale>
<asrwt>0</asrwt>
<pdfrwt beam="1">  1        1 0.90319212E-01 0.52003375E+03</pdfrwt>
<pdfrwt beam="2">  1       -2 0.88209988E-01 0.52003375E+03</pdfrwt>
<totfact> 0.35628024E+01</totfact>
</mgrwt>
</event>
<event>
12    3  0.2269558E-007  0.1136612E+04  0.7818608E-02  0.9170224E-01
         -2   -1    0    0    0  501 -0.00000000000E+00  0.00000000000E+00  0.63037753927E+03  0.63037753927E+03  0.00000000000E+00 0.  1.
          1   -1    0    0  501    0  0.00000000000E+00 -0.00000000000E+00 -0.20630105039E+04  0.20630105039E+04  0.00000000000E+00 0. -1.
        -24    2    1    2    0    0  0.40938009607E+03  0.97748377268E+03 -0.68608951759E+03  0.12649252839E+04  0.79060475318E+02 0.  0.
    5000000    2    1    2    0    0 -0.40938009607E+03 -0.97748377268E+03 -0.74654344707E+03  0.14284627593E+04  0.60009344893E+03 0.  0.
        -24    2    4    4    0    0 -0.55115189875E+03 -0.80419785688E+03 -0.62916605832E+03  0.11628071533E+04  0.75946944367E+02 0.  0.
         24    2    4    4    0    0  0.14177180267E+03 -0.17328591580E+03 -0.11737738876E+03  0.26565560600E+03  0.81659028635E+02 0.  0.
         11    1    5    5    0    0 -0.27280703047E+03 -0.38822836803E+03 -0.35089170718E+03  0.59014399242E+03  0.00000000000E+00 0. -1.
        -12    1    5    5    0    0 -0.27834486827E+03 -0.41596948884E+03 -0.27827435114E+03  0.57266316089E+03  0.00000000000E+00 0.  1.
         13    1    3    3    0    0  0.38854402336E+03  0.89745359790E+03 -0.61035982663E+03  0.11527916275E+04  0.00000000000E+00 0. -1.
        -14    1    3    3    0    0  0.20836072711E+02  0.80030174783E+02 -0.75729690968E+02  0.11213365639E+03  0.00000000000E+00 0.  1.
          2    1    6    6  502    0  0.53780124689E+02 -0.13956259968E+02 -0.36536424205E+02  0.66498039802E+02  0.00000000000E+00 0. -1.
         -1    1    6    6    0  502  0.87991677983E+02 -0.15932965583E+03 -0.80840964550E+02  0.19915756619E+03  0.00000000000E+00 0.  1.
<mgrwt>
<rscale>  0 0.11366121E+04</rscale>
<asrwt>0</asrwt>
<pdfrwt beam="1">  1        1 0.31738623E+00 0.11366121E+04</pdfrwt>
<pdfrwt beam="2">  1       -2 0.96981162E-01 0.11366121E+04</pdfrwt>
<totfact> 0.20843237E+00</totfact>
</mgrwt>
</event>
<event>
12    3  0.2269558E-007  0.5978494E+03  0.7818608E-02  0.9909878E-01
          1   -1    0    0  501    0  0.00000000000E+00  0.00000000000E+00  0.12338700081E+04  0.12338700081E+04  0.00000000000E+00 0. -1.
         -2   -1    0    0    0  501 -0.00000000000E+00 -0.00000000000E+00 -0.33577238600E+03  0.33577238600E+03  0.00000000000E+00 0.  1.
        -24    2    1    2    0    0 -0.88966906498E+02 -0.44539680751E+03  0.60857935260E+03  0.76356863127E+03  0.79842342513E+02 0.  0.
    5000000    2    1    2    0    0  0.88966906498E+02  0.44539680751E+03  0.28951826954E+03  0.80607376287E+03  0.59970047206E+03 0.  0.
        -24    2    4    4    0    0  0.28690051525E+03  0.54795599025E+02  0.16052065506E+03  0.34255054879E+03  0.79117219675E+02 0.  0.
         24    2    4    4    0    0 -0.19793360875E+03  0.39060120848E+03  0.12899761448E+03  0.46352321408E+03  0.80413729588E+02 0.  0.
         11    1    5    5    0    0  0.13959598451E+03  0.65833522851E+02  0.92366938279E+02  0.17986868241E+03  0.00000000000E+00 0. -1.
        -12    1    5    5    0    0  0.14730453074E+03 -0.11037923826E+02  0.68153716786E+02  0.16268186638E+03  0.00000000000E+00 0.  1.
         13    1    3    3    0    0 -0.65144911657E+02 -0.35841375710E+03  0.53462563205E+03  0.64693805518E+03  0.00000000000E+00 0. -1.
        -14    1    3    3    0    0 -0.23821994842E+02 -0.86983050402E+02  0.73953720551E+02  0.11663057609E+03  0.00000000000E+00 0.  1.
          4    1    6    6  502    0 -0.45845912433E+02  0.62305098940E+02  0.53123709239E+02  0.93839765153E+02  0.00000000000E+00 0. -1.
         -3    1    6    6    0  502 -0.15208769632E+03  0.32829610954E+03  0.75873905240E+02  0.36968344892E+03  0.00000000000E+00 0.  1.
<mgrwt>
<rscale>  0 0.59784940E+03</rscale>
<asrwt>0</asrwt>
<pdfrwt beam="1">  1        1 0.18982615E+00 0.59784940E+03</pdfrwt>
<pdfrwt beam="2">  1       -2 0.51657291E-01 0.59784940E+03</pdfrwt>
<totfact> 0.32709091E+01</totfact>
</mgrwt>
</event>
<event>
12    3  0.2269558E-007  0.8509890E+03  0.7818608E-02  0.9489011E-01
         -2   -1    0    0    0  501 -0.00000000000E+00  0.00000000000E+00  0.61623823525E+03  0.61623823525E+03  0.00000000000E+00 0.  1.
          1   -1    0    0  501    0  0.00000000000E+00 -0.00000000000E+00 -0.12188082200E+04  0.12188082200E+04  0.00000000000E+00 0. -1.
        -24    2    1    2    0    0 -0.70518480817E+03  0.26461283715E+03 -0.37686398458E+03  0.84597459416E+03  0.79630294621E+02 0.  0.
    5000000    2    1    2    0    0  0.70518480817E+03 -0.26461283715E+03 -0.22570600012E+03  0.98907186105E+03  0.60001198368E+03 0.  0.
        -24    2    4    4    0    0  0.12303226104E+03 -0.33384861909E+03 -0.14299120542E+03  0.39162511595E+03  0.79573292594E+02 0.  0.
         24    2    4    4    0    0  0.58215254712E+03  0.69235781938E+02 -0.82714794708E+02  0.59744674509E+03  0.80035581674E+02 0.  0.
         13    1    5    5    0    0  0.60181494562E+02 -0.23151100913E+03 -0.12591183144E+03  0.27032008607E+03  0.00000000000E+00 0. -1.
        -14    1    5    5    0    0  0.62850766483E+02 -0.10233760996E+03 -0.17079373972E+02  0.12130502989E+03  0.00000000000E+00 0.  1.
         13    1    3    3    0    0 -0.26084956907E+03  0.63269408634E+02 -0.11156005355E+03  0.29067363366E+03  0.00000000000E+00 0. -1.
        -14    1    3    3    0    0 -0.44433523910E+03  0.20134342852E+03 -0.26530393103E+03  0.55530096050E+03  0.00000000000E+00 0.  1.
          4    1    6    6  502    0  0.26309536659E+03  0.23947569355E+02 -0.76866418510E+02  0.27513833665E+03  0.00000000000E+00 0. -1.
         -3    1    6    6    0  502  0.31905718053E+03  0.45288212583E+02 -0.58483761980E+01  0.32230840844E+03  0.00000000000E+00 0.  1.
<mgrwt>
<rscale>  0 0.85098898E+03</rscale>
<asrwt>0</asrwt>
<pdfrwt beam="1">  1        1 0.18750896E+00 0.85098898E+03</pdfrwt>
<pdfrwt beam="2">  1       -2 0.94805882E-01 0.85098898E+03</pdfrwt>
<totfact> 0.86321709E+00</totfact>
</mgrwt>
</event>
<event>
12    3  0.2269558E-007  0.9637761E+03  0.7818608E-02  0.9349192E-01
          1   -1    0    0  501    0  0.00000000000E+00  0.00000000000E+00  0.22559073151E+04  0.22559073151E+04  0.00000000000E+00 0. -1.
         -2   -1    0    0    0  501 -0.00000000000E+00 -0.00000000000E+00 -0.45951788735E+03  0.45951788735E+03  0.00000000000E+00 0.  1.
        -24    2    1    2    0    0 -0.57104734850E+02  0.89100632134E+03  0.48508239451E+03  0.10193348131E+04  0.81149962389E+02 0.  0.
    5000000    2    1    2    0    0  0.57104734850E+02 -0.89100632134E+03  0.13113070332E+04  0.16960903893E+04  0.60003604717E+03 0.  0.
        -24    2    4    4    0    0  0.99604473956E+02  0.24108407758E+02  0.56940559089E+02  0.14075877875E+03  0.77900834195E+02 0.  0.
         24    2    4    4    0    0 -0.42499739106E+02 -0.91511472910E+03  0.12543664742E+04  0.15553316106E+04  0.79874727773E+02 0.  0.
         11    1    5    5    0    0  0.10301699616E+03  0.13090241905E+02  0.68520550697E+02  0.12441431509E+03  0.00000000000E+00 0. -1.
        -12    1    5    5    0    0 -0.34125222071E+01  0.11018165853E+02 -0.11579991608E+02  0.16344463657E+02  0.00000000000E+00 0.  1.
         13    1    3    3    0    0 -0.74366063257E+02  0.64262956599E+03  0.36711681112E+03  0.74382647402E+03  0.00000000000E+00 0. -1.
        -14    1    3    3    0    0  0.17261328407E+02  0.24837675535E+03  0.11796558339E+03  0.27550833912E+03  0.00000000000E+00 0.  1.
          2    1    6    6  502    0 -0.17676725552E+00 -0.14589306344E+03  0.25109066698E+03  0.29039858858E+03  0.00000000000E+00 0. -1.
         -1    1    6    6    0  502 -0.42322971851E+02 -0.76922166566E+03  0.10032758072E+04  0.12649330220E+04  0.00000000000E+00 0.  1.
<mgrwt>
<rscale>  0 0.96377606E+03</rscale>
<asrwt>0</asrwt>
<pdfrwt beam="1">  1        1 0.34706266E+00 0.96377606E+03</pdfrwt>
<pdfrwt beam="2">  1       -2 0.70695061E-01 0.96377606E+03</pdfrwt>
<totfact> 0.32390849E+00</totfact>
</mgrwt>
</event>
<event>
12    3  0.2269558E-007  0.1026595E+04  0.7818608E-02  0.9279848E-01
          1   -1    0    0  501    0  0.00000000000E+00  0.00000000000E+00  0.21612078630E+04  0.21612078630E+04  0.00000000000E+00 0. -1.
         -2   -1    0    0    0  501 -0.00000000000E+00 -0.00000000000E+00 -0.51220489431E+03  0.51220489431E+03  0.00000000000E+00 0.  1.
        -24    2    1    2    0    0  0.68295757188E+03 -0.65137168831E+03  0.50419148345E+03  0.10729659193E+04  0.79565638082E+02 0.  0.
    5000000    2    1    2    0    0 -0.68295757188E+03  0.65137168831E+03  0.11448114852E+04  0.16004468380E+04  0.60010051084E+03 0.  0.
        -24    2    4    4    0    0 -0.57475956618E+03  0.15821665401E+03  0.70829859304E+03  0.92823700000E+03  0.67497872025E+02 0.  0.
         24    2    4    4    0    0 -0.10819800569E+03  0.49315503430E+03  0.43651289218E+03  0.67220983796E+03  0.80086608864E+02 0.  0.
         13    1    3    3    0    0  0.44042837263E+03 -0.46422460540E+03  0.36240927761E+03  0.73540609202E+03  0.00000000000E+00 0. -1.
        -14    1    3    3    0    0  0.24252919925E+03 -0.18714708290E+03  0.14178220584E+03  0.33755982732E+03  0.00000000000E+00 0.  1.
         13    1    5    5    0    0 -0.49119639882E+03  0.11242717520E+03  0.57791711560E+03  0.76674765369E+03  0.00000000000E+00 0. -1.
        -14    1    5    5    0    0 -0.83563167360E+02  0.45789478806E+02  0.13038147745E+03  0.16148934630E+03  0.00000000000E+00 0.  1.
          2    1    6    6  502    0 -0.57515697411E+01  0.13803674727E+03  0.85395517054E+02  0.16241803620E+03  0.00000000000E+00 0. -1.
         -1    1    6    6    0  502 -0.10244643595E+03  0.35511828703E+03  0.35111737513E+03  0.50979180176E+03  0.00000000000E+00 0.  1.
<mgrwt>
<rscale>  0 0.10265947E+04</rscale>
<asrwt>0</asrwt>
<pdfrwt beam="1">  1        1 0.33249351E+00 0.10265947E+04</pdfrwt>
<pdfrwt beam="2">  1       -2 0.78800754E-01 0.10265947E+04</pdfrwt>
<totfact> 0.29250021E+00</totfact>
</mgrwt>
</event>
<event>
12    3  0.2269558E-007  0.1376257E+04  0.7818608E-02  0.8971187E-01
          1   -1    0    0  501    0  0.00000000000E+00  0.00000000000E+00  0.85682145041E+03  0.85682145041E+03  0.00000000000E+00 0. -1.
         -2   -1    0    0    0  501 -0.00000000000E+00 -0.00000000000E+00 -0.23179597835E+04  0.23179597835E+04  0.00000000000E+00 0.  1.
        -24    2    1    2    0    0 -0.27350879711E+03 -0.12827167766E+04 -0.36695428518E+03  0.13643647204E+04  0.81647118637E+02 0.  0.
    5000000    2    1    2    0    0  0.27350879711E+03  0.12827167766E+04 -0.10941840479E+04  0.18104165135E+04  0.60016650246E+03 0.  0.
        -24    2    4    4    0    0  0.53295469001E+02  0.11804891590E+04 -0.93899650224E+03  0.15114768467E+04  0.80329105906E+02 0.  0.
         24    2    4    4    0    0  0.22021332811E+03  0.10222761757E+03 -0.15518754569E+03  0.29893966685E+03  0.79607502212E+02 0.  0.
         11    1    5    5    0    0  0.33905407297E+01  0.74796325454E+03 -0.56256914129E+03  0.93591910155E+03  0.00000000000E+00 0. -1.
        -12    1    5    5    0    0  0.49904928271E+02  0.43252590445E+03 -0.37642736094E+03  0.57555774510E+03  0.00000000000E+00 0.  1.
         11    1    3    3    0    0 -0.22972976171E+03 -0.91509063413E+03 -0.27827643894E+03  0.98366885106E+03  0.00000000000E+00 0. -1.
        -12    1    3    3    0    0 -0.43779035398E+02 -0.36762614243E+03 -0.88677846246E+02  0.38069586937E+03  0.00000000000E+00 0.  1.
          4    1    6    6  502    0  0.14928637178E+03  0.26390480852E+02 -0.95431472841E+02  0.17913694283E+03  0.00000000000E+00 0. -1.
         -3    1    6    6    0  502  0.70926956332E+02  0.75837136721E+02 -0.59756072852E+02  0.11980272402E+03  0.00000000000E+00 0.  1.
<mgrwt>
<rscale>  0 0.13762567E+04</rscale>
<asrwt>0</asrwt>
<pdfrwt beam="1">  1        1 0.13181869E+00 0.13762567E+04</pdfrwt>
<pdfrwt beam="2">  1       -2 0.35660919E+00 0.13762567E+04</pdfrwt>
<totfact> 0.23653552E-01</totfact>
</mgrwt>
</event>
<event>
12    3  0.2269558E-007  0.8284950E+03  0.7818608E-02  0.9519664E-01
         -2   -1    0    0    0  501 -0.00000000000E+00  0.00000000000E+00  0.56518629656E+03  0.56518629656E+03  0.00000000000E+00 0.  1.
          1   -1    0    0  501    0  0.00000000000E+00 -0.00000000000E+00 -0.12831170455E+04  0.12831170455E+04  0.00000000000E+00 0. -1.
        -24    2    1    2    0    0  0.52655321178E+03 -0.52428217859E+03 -0.28705989786E+03  0.80056397665E+03  0.79807318817E+02 0.  0.
    5000000    2    1    2    0    0 -0.52655321178E+03  0.52428217859E+03 -0.43087085108E+03  0.10477393654E+04  0.59998166629E+03 0.  0.
        -24    2    4    4    0    0  0.71812111387E+02 -0.38826606855E+02 -0.11653471184E+03  0.16424238472E+03  0.82041069788E+02 0.  0.
         24    2    4    4    0    0 -0.59836532317E+03  0.56310878544E+03 -0.31433613924E+03  0.88349698068E+03  0.81407261555E+02 0.  0.
         13    1    3    3    0    0  0.60270380966E+02 -0.98422966231E+02 -0.34644118524E+02  0.12049819107E+03  0.00000000000E+00 0. -1.
        -14    1    3    3    0    0  0.46628283081E+03 -0.42585921236E+03 -0.25241577934E+03  0.68006578558E+03  0.00000000000E+00 0.  1.
         13    1    5    5    0    0  0.49575010636E+02 -0.14839291656E+02 -0.98777592382E+01  0.52682600391E+02  0.00000000000E+00 0. -1.
        -14    1    5    5    0    0  0.22237100752E+02 -0.23987315200E+02 -0.10665695260E+03  0.11155978433E+03  0.00000000000E+00 0.  1.
          2    1    6    6  502    0 -0.44205190935E+02  0.16298212308E+02 -0.15649921759E+02  0.49645248323E+02  0.00000000000E+00 0. -1.
         -1    1    6    6    0  502 -0.55416013223E+03  0.54681057313E+03 -0.29868621748E+03  0.83385173236E+03  0.00000000000E+00 0.  1.
<mgrwt>
<rscale>  0 0.82849502E+03</rscale>
<asrwt>0</asrwt>
<pdfrwt beam="1">  1        1 0.19740262E+00 0.82849502E+03</pdfrwt>
<pdfrwt beam="2">  1       -2 0.86951738E-01 0.82849502E+03</pdfrwt>
<totfact> 0.95083590E+00</totfact>
</mgrwt>
</event>
<event>
12    3  0.2269558E-007  0.8302053E+03  0.7818608E-02  0.9517297E-01
          1   -1    0    0  501    0  0.00000000000E+00  0.00000000000E+00  0.19543540412E+04  0.19543540412E+04  0.00000000000E+00 0. -1.
         -2   -1    0    0    0  501 -0.00000000000E+00 -0.00000000000E+00 -0.36457446724E+03  0.36457446724E+03  0.00000000000E+00 0.  1.
        -24    2    1    2    0    0  0.54348768174E+03 -0.49269813810E+03  0.75969323882E+03  0.10590393885E+04  0.79374389982E+02 0.  0.
    5000000    2    1    2    0    0 -0.54348768174E+03  0.49269813810E+03  0.83008633516E+03  0.12598891200E+04  0.60012245026E+03 0.  0.
        -24    2    4    4    0    0 -0.56988573389E+03  0.16032294580E+03  0.46890479755E+03  0.75959282256E+03  0.81463797271E+02 0.  0.
         24    2    4    4    0    0  0.26398052157E+02  0.33237519230E+03  0.36118153761E+03  0.50029629741E+03  0.93135151674E+02 0.  0.
         11    1    3    3    0    0  0.14117905692E+03 -0.13925650637E+03  0.25642607573E+03  0.32415772857E+03  0.00000000000E+00 0. -1.
        -12    1    3    3    0    0  0.40230862482E+03 -0.35344163173E+03  0.50326716308E+03  0.73488165992E+03  0.00000000000E+00 0.  1.
         13    1    5    5    0    0 -0.43065369403E+03  0.13586530103E+03  0.39560982940E+03  0.60035749460E+03  0.00000000000E+00 0. -1.
        -14    1    5    5    0    0 -0.13923203986E+03  0.24457644766E+02  0.73294968151E+02  0.15923532795E+03  0.00000000000E+00 0.  1.
          2    1    6    6  502    0  0.18466448288E+02  0.28685723652E+03  0.34971575695E+03  0.45269105858E+03  0.00000000000E+00 0. -1.
         -1    1    6    6    0  502  0.79316038687E+01  0.45517955782E+02  0.11465780664E+02  0.47605238837E+02  0.00000000000E+00 0.  1.
<mgrwt>
<rscale>  0 0.83020529E+03</rscale>
<asrwt>0</asrwt>
<pdfrwt beam="1">  1        1 0.30066985E+00 0.83020529E+03</pdfrwt>
<pdfrwt beam="2">  1       -2 0.56088380E-01 0.83020529E+03</pdfrwt>
<totfact> 0.86320132E+00</totfact>
</mgrwt>
</event>
<event>
12    3  0.2269558E-007  0.5059276E+03  0.7818608E-02  0.1012243E+00
          1   -1    0    0  501    0  0.00000000000E+00  0.00000000000E+00  0.12321274320E+04  0.12321274320E+04  0.00000000000E+00 0. -1.
         -2   -1    0    0    0  501 -0.00000000000E+00 -0.00000000000E+00 -0.57678055928E+03  0.57678055928E+03  0.00000000000E+00 0.  1.
        -24    2    1    2    0    0  0.14155504908E+03 -0.39076996199E+03 -0.36245826041E+03  0.55642403925E+03  0.74112926054E+02 0.  0.
    5000000    2    1    2    0    0 -0.14155504908E+03  0.39076996199E+03  0.10178051331E+04  0.12524839520E+04  0.60004147021E+03 0.  0.
        -24    2    4    4    0    0 -0.36078753966E+02 -0.76012226618E+02  0.60397499235E+03  0.61485019803E+03  0.78583964991E+02 0.  0.
         24    2    4    4    0    0 -0.10547629511E+03  0.46678218861E+03  0.41383014077E+03  0.63763375399E+03  0.79439023107E+02 0.  0.
         11    1    3    3    0    0  0.77373353429E+02 -0.12177689527E+03 -0.14576556193E+03  0.20509472710E+03  0.00000000000E+00 0. -1.
        -12    1    3    3    0    0  0.64181695647E+02 -0.26899306672E+03 -0.21669269848E+03  0.35132931215E+03  0.00000000000E+00 0.  1.
         13    1    5    5    0    0 -0.55567176690E+02 -0.56248053701E+02  0.32422272089E+03  0.33372432847E+03  0.00000000000E+00 0. -1.
        -14    1    5    5    0    0  0.19488422723E+02 -0.19764172917E+02  0.27975227146E+03  0.28112586956E+03  0.00000000000E+00 0.  1.
          4    1    6    6  502    0 -0.11573899564E+03  0.44901315572E+03  0.40344812636E+03  0.61463706347E+03  0.00000000000E+00 0. -1.
         -3    1    6    6    0  502  0.10262700534E+02  0.17769032885E+02  0.10382014401E+02  0.22996690522E+02  0.00000000000E+00 0.  1.
<mgrwt>
<rscale>  0 0.50592763E+03</rscale>
<asrwt>0</asrwt>
<pdfrwt beam="1">  1        1 0.18955807E+00 0.50592763E+03</pdfrwt>
<pdfrwt beam="2">  1       -2 0.88735471E-01 0.50592763E+03</pdfrwt>
<totfact> 0.10345684E+01</totfact>
</mgrwt>
</event>
<event>
12    3  0.2269558E-007  0.1253179E+04  0.7818608E-02  0.9067542E-01
          1   -1    0    0  501    0  0.00000000000E+00  0.00000000000E+00  0.18228882755E+04  0.18228882755E+04  0.00000000000E+00 0. -1.
         -2   -1    0    0    0  501 -0.00000000000E+00 -0.00000000000E+00 -0.12433567937E+04  0.12433567937E+04  0.00000000000E+00 0.  1.
        -24    2    1    2    0    0 -0.79154935838E+03 -0.94149835733E+03  0.10501069181E+04  0.16190321672E+04  0.74639637066E+02 0.  0.
    5000000    2    1    2    0    0  0.79154935838E+03  0.94149835733E+03 -0.47057543640E+03  0.14472129020E+04  0.60001199886E+03 0.  0.
        -24    2    4    4    0    0  0.33094760678E+03  0.16397162518E+03 -0.37892147741E+03  0.53541728394E+03  0.81713949850E+02 0.  0.
         24    2    4    4    0    0  0.46060175160E+03  0.77752673215E+03 -0.91653958981E+02  0.91179561807E+03  0.79177068221E+02 0.  0.
         11    1    5    5    0    0  0.17947794583E+03  0.62125777668E+02 -0.14633627029E+03  0.23976290224E+03  0.00000000000E+00 0. -1.
        -12    1    5    5    0    0  0.15146966095E+03  0.10184584751E+03 -0.23258520713E+03  0.29565438170E+03  0.00000000000E+00 0.  1.
         11    1    3    3    0    0 -0.22690666118E+03 -0.25626801200E+03  0.33540454816E+03  0.47922451710E+03  0.00000000000E+00 0. -1.
        -12    1    3    3    0    0 -0.56464269720E+03 -0.68523034533E+03  0.71470236999E+03  0.11398076501E+04  0.00000000000E+00 0.  1.
          2    1    6    6  502    0  0.22595985548E+03  0.38475578811E+03 -0.85007867932E+02  0.45422594640E+03  0.00000000000E+00 0. -1.
         -1    1    6    6    0  502  0.23464189613E+03  0.39277094404E+03 -0.66460910491E+01  0.45756967166E+03  0.00000000000E+00 0.  1.
<mgrwt>
<rscale>  0 0.12531788E+04</rscale>
<asrwt>0</asrwt>
<pdfrwt beam="1">  1        1 0.28044435E+00 0.12531788E+04</pdfrwt>
<pdfrwt beam="2">  1       -2 0.19128566E+00 0.12531788E+04</pdfrwt>
<totfact> 0.50733128E-01</totfact>
</mgrwt>
</event>
<event>
12    3  0.2269558E-007  0.4782043E+03  0.7818608E-02  0.1019630E+00
          1   -1    0    0  501    0  0.00000000000E+00  0.00000000000E+00  0.36545040343E+03  0.36545040343E+03  0.00000000000E+00 0. -1.
         -2   -1    0    0    0  501 -0.00000000000E+00 -0.00000000000E+00 -0.12871351065E+04  0.12871351065E+04  0.00000000000E+00 0.  1.
        -24    2    1    2    0    0 -0.13780065218E+03  0.26289088647E+03 -0.93391033345E+03  0.98310138897E+03  0.78734948558E+02 0.  0.
    5000000    2    1    2    0    0  0.13780065218E+03 -0.26289088647E+03  0.12225630379E+02  0.66948412097E+03  0.59996573591E+03 0.  0.
        -24    2    4    4    0    0  0.27282000724E+02 -0.43789866323E+03 -0.18231059601E+02  0.44639265268E+03  0.80215223059E+02 0.  0.
         24    2    4    4    0    0  0.11051865145E+03  0.17500777675E+03  0.30456689981E+02  0.22309146830E+03  0.77460306084E+02 0.  0.
         11    1    3    3    0    0 -0.40164366163E+02  0.28694518165E+02 -0.21915144733E+03  0.22464173377E+03  0.00000000000E+00 0. -1.
        -12    1    3    3    0    0 -0.97636286015E+02  0.23419636831E+03 -0.71475888612E+03  0.75845965520E+03  0.00000000000E+00 0.  1.
         13    1    5    5    0    0 -0.29601371049E+01 -0.13538625949E+03  0.29645727049E+02  0.13862564988E+03  0.00000000000E+00 0. -1.
        -14    1    5    5    0    0  0.30242137829E+02 -0.30251240373E+03 -0.47876786650E+02  0.30776700280E+03  0.00000000000E+00 0.  1.
          4    1    6    6  502    0  0.63307261508E+02  0.51362306556E+02  0.39186714199E+02  0.90451613939E+02  0.00000000000E+00 0. -1.
         -3    1    6    6    0  502  0.47211389945E+02  0.12364547020E+03 -0.87300242185E+01  0.13263985436E+03  0.00000000000E+00 0.  1.
<mgrwt>
<rscale>  0 0.47820433E+03</rscale>
<asrwt>0</asrwt>
<pdfrwt beam="1">  1        1 0.56223139E-01 0.47820433E+03</pdfrwt>
<pdfrwt beam="2">  1       -2 0.19802079E+00 0.47820433E+03</pdfrwt>
<totfact> 0.85906329E+00</totfact>
</mgrwt>
</event>
<event>
12    3  0.2269558E-007  0.4696210E+03  0.7818608E-02  0.1022027E+00
          1   -1    0    0  501    0  0.00000000000E+00  0.00000000000E+00  0.15315866242E+04  0.15315866242E+04  0.00000000000E+00 0. -1.
         -2   -1    0    0    0  501 -0.00000000000E+00 -0.00000000000E+00 -0.19298065503E+03  0.19298065503E+03  0.00000000000E+00 0.  1.
        -24    2    1    2    0    0 -0.31566775987E+03  0.19769780078E+03  0.46847012815E+03  0.60391023950E+03  0.80701681183E+02 0.  0.
    5000000    2    1    2    0    0  0.31566775987E+03 -0.19769780078E+03  0.87013584102E+03  0.11206570397E+04  0.60000438651E+03 0.  0.
        -24    2    4    4    0    0  0.30650727077E+03  0.34496296570E+02  0.80606992607E+03  0.86669426870E+03  0.79205607009E+02 0.  0.
         24    2    4    4    0    0  0.91604890969E+01 -0.23219409735E+03  0.64065914953E+02  0.25396277103E+03  0.79966456766E+02 0.  0.
         11    1    5    5    0    0  0.18331604676E+03 -0.18618858998E+02  0.45995605959E+03  0.49549067768E+03  0.00000000000E+00 0. -1.
        -12    1    5    5    0    0  0.12319122401E+03  0.53115155568E+02  0.34611386648E+03  0.37120359103E+03  0.00000000000E+00 0.  1.
         13    1    3    3    0    0 -0.23843344717E+03  0.11696210396E+03  0.28891916622E+03  0.39243461507E+03  0.00000000000E+00 0. -1.
        -14    1    3    3    0    0 -0.77234312703E+02  0.80735696814E+02  0.17955096193E+03  0.21147562443E+03  0.00000000000E+00 0.  1.
          4    1    6    6  502    0  0.34758757460E+02 -0.59231566489E+02  0.33696462846E+02  0.76498374475E+02  0.00000000000E+00 0. -1.
         -3    1    6    6    0  502 -0.25598268363E+02 -0.17296253086E+03  0.30369452107E+02  0.17746439656E+03  0.00000000000E+00 0.  1.
<mgrwt>
<rscale>  0 0.46962099E+03</rscale>
<asrwt>0</asrwt>
<pdfrwt beam="1">  1        1 0.23562870E+00 0.46962099E+03</pdfrwt>
<pdfrwt beam="2">  1       -2 0.29689332E-01 0.46962099E+03</pdfrwt>
<totfact> 0.60606966E+01</totfact>
</mgrwt>
</event>
<event>
12    3  0.2269558E-007  0.7089568E+03  0.7818608E-02  0.9702036E-01
         -2   -1    0    0    0  501 -0.00000000000E+00  0.00000000000E+00  0.35804890849E+03  0.35804890849E+03  0.00000000000E+00 0.  1.
          1   -1    0    0  501    0  0.00000000000E+00 -0.00000000000E+00 -0.16749367752E+04  0.16749367752E+04  0.00000000000E+00 0. -1.
        -24    2    1    2    0    0  0.37518288850E+03 -0.48550385293E+03 -0.25943229401E+03  0.67109990473E+03  0.81202068483E+02 0.  0.
    5000000    2    1    2    0    0 -0.37518288850E+03  0.48550385293E+03 -0.10574555726E+04  0.13618857789E+04  0.60003699524E+03 0.  0.
        -24    2    4    4    0    0 -0.25687734250E+02 -0.10703798701E+03 -0.31954211507E+03  0.34895411159E+03  0.86860913758E+02 0.  0.
         24    2    4    4    0    0 -0.34949515425E+03  0.59254183993E+03 -0.73791345758E+03  0.10129316673E+04  0.90893326930E+02 0.  0.
         11    1    5    5    0    0 -0.76229205358E+00 -0.40627300650E+02 -0.23549148795E+03  0.23897154547E+03  0.00000000000E+00 0. -1.
        -12    1    5    5    0    0 -0.24925442197E+02 -0.66410686355E+02 -0.84050627116E+02  0.10998256612E+03  0.00000000000E+00 0.  1.
         13    1    3    3    0    0  0.12986334255E+03 -0.15992083795E+03 -0.12908303107E+03  0.24310818798E+03  0.00000000000E+00 0. -1.
        -14    1    3    3    0    0  0.24531954595E+03 -0.32558301497E+03 -0.13034926294E+03  0.42799171676E+03  0.00000000000E+00 0.  1.
          2    1    6    6  502    0 -0.23618044294E+03  0.32171411598E+03 -0.39512250737E+03  0.56160748738E+03  0.00000000000E+00 0. -1.
         -1    1    6    6    0  502 -0.11331471131E+03  0.27082772395E+03 -0.34279095021E+03  0.45132417995E+03  0.00000000000E+00 0.  1.
<mgrwt>
<rscale>  0 0.70895681E+03</rscale>
<asrwt>0</asrwt>
<pdfrwt beam="1">  1        1 0.25768258E+00 0.70895681E+03</pdfrwt>
<pdfrwt beam="2">  1       -2 0.55084447E-01 0.70895681E+03</pdfrwt>
<totfact> 0.14029420E+01</totfact>
</mgrwt>
</event>
<event>
12    3  0.2269558E-007  0.4559178E+03  0.7818608E-02  0.1025972E+00
          1   -1    0    0  501    0  0.00000000000E+00  0.00000000000E+00  0.50486332293E+03  0.50486332293E+03  0.00000000000E+00 0. -1.
         -2   -1    0    0    0  501 -0.00000000000E+00 -0.00000000000E+00 -0.45157197428E+03  0.45157197428E+03  0.00000000000E+00 0.  1.
        -24    2    1    2    0    0 -0.25951463760E+03 -0.72090048430E+02 -0.64405503275E+02  0.28801901965E+03  0.79133208032E+02 0.  0.
    5000000    2    1    2    0    0  0.25951463760E+03  0.72090048430E+02  0.11769685192E+03  0.66841627756E+03  0.60031903930E+03 0.  0.
        -24    2    4    4    0    0  0.25001697335E+03  0.30178776016E+03  0.13957225149E+03  0.42363609727E+03  0.80017437959E+02 0.  0.
         24    2    4    4    0    0  0.94976642498E+01 -0.22969771173E+03 -0.21875399572E+02  0.24478018029E+03  0.81163779815E+02 0.  0.
         11    1    5    5    0    0  0.17165731421E+03  0.18734243087E+03  0.51276425462E+02  0.25921553143E+03  0.00000000000E+00 0. -1.
        -12    1    5    5    0    0  0.78359659140E+02  0.11444532930E+03  0.88295826028E+02  0.16442056585E+03  0.00000000000E+00 0.  1.
         13    1    3    3    0    0 -0.87258643196E+02 -0.52597439129E+02 -0.51559858087E+02  0.11418835484E+03  0.00000000000E+00 0. -1.
        -14    1    3    3    0    0 -0.17225599441E+03 -0.19492609301E+02 -0.12845645188E+02  0.17383066481E+03  0.00000000000E+00 0.  1.
          2    1    6    6  502    0  0.44364307588E+02 -0.98150497010E+02 -0.96744830841E+01  0.10814484488E+03  0.00000000000E+00 0. -1.
         -1    1    6    6    0  502 -0.34866643338E+02 -0.13154721473E+03 -0.12200916488E+02  0.13663533541E+03  0.00000000000E+00 0.  1.
<mgrwt>
<rscale>  0 0.45591775E+03</rscale>
<asrwt>0</asrwt>
<pdfrwt beam="1">  1        1 0.77671280E-01 0.45591775E+03</pdfrwt>
<pdfrwt beam="2">  1       -2 0.69472612E-01 0.45591775E+03</pdfrwt>
<totfact> 0.75172061E+01</totfact>
</mgrwt>
</event>
<event>
12    3  0.2269558E-007  0.4169957E+03  0.7818608E-02  0.1038049E+00
         -2   -1    0    0    0  501 -0.00000000000E+00  0.00000000000E+00  0.78331592856E+03  0.78331592856E+03  0.00000000000E+00 0.  1.
          1   -1    0    0  501    0  0.00000000000E+00 -0.00000000000E+00 -0.61883963414E+03  0.61883963414E+03  0.00000000000E+00 0. -1.
        -24    2    1    2    0    0 -0.21939407632E+03 -0.18343489095E+03  0.55429599348E+03  0.63159519396E+03  0.99429978876E+02 0.  0.
    5000000    2    1    2    0    0  0.21939407632E+03  0.18343489095E+03 -0.38981969907E+03  0.77056036873E+03  0.60001813651E+03 0.  0.
        -24    2    4    4    0    0 -0.10815026751E+03  0.18325223678E+03 -0.36810047290E+03  0.43263861962E+03  0.80002214937E+02 0.  0.
         24    2    4    4    0    0  0.32754434383E+03  0.18265417028E+00 -0.21719226168E+02  0.33792174911E+03  0.80212550113E+02 0.  0.
         13    1    3    3    0    0 -0.16295122274E+03 -0.15220738972E+03  0.33048138831E+03  0.39867046354E+03  0.00000000000E+00 0. -1.
        -14    1    3    3    0    0 -0.56442853581E+02 -0.31227501228E+02  0.22381460517E+03  0.23292473042E+03  0.00000000000E+00 0.  1.
         13    1    5    5    0    0 -0.27318555529E+02  0.83391947310E+02 -0.21838196324E+03  0.23535335609E+03  0.00000000000E+00 0. -1.
        -14    1    5    5    0    0 -0.80831711981E+02  0.99860289470E+02 -0.14971850966E+03  0.19728526354E+03  0.00000000000E+00 0.  1.
          2    1    6    6  502    0  0.24128489439E+03 -0.18588145013E+02 -0.46071415728E+02  0.24634629030E+03  0.00000000000E+00 0. -1.
         -1    1    6    6    0  502  0.86259449441E+02  0.18770799183E+02  0.24352189560E+02  0.91575458809E+02  0.00000000000E+00 0.  1.
<mgrwt>
<rscale>  0 0.41699569E+03</rscale>
<asrwt>0</asrwt>
<pdfrwt beam="1">  1        1 0.95206097E-01 0.41699569E+03</pdfrwt>
<pdfrwt beam="2">  1       -2 0.12051014E+00 0.41699569E+03</pdfrwt>
<totfact> 0.16020149E+01</totfact>
</mgrwt>
</event>
<event>
12    3  0.2269558E-007  0.3700251E+03  0.7818608E-02  0.1054683E+00
         -2   -1    0    0    0  501 -0.00000000000E+00  0.00000000000E+00  0.16227964456E+03  0.16227964456E+03  0.00000000000E+00 0.  1.
          1   -1    0    0  501    0  0.00000000000E+00 -0.00000000000E+00 -0.98907977068E+03  0.98907977068E+03  0.00000000000E+00 0. -1.
        -24    2    1    2    0    0 -0.10810019171E+03  0.67342618404E+02 -0.32970426451E+03  0.36183531314E+03  0.77454580908E+02 0.  0.
    5000000    2    1    2    0    0  0.10810019171E+03 -0.67342618404E+02 -0.49709586162E+03  0.78952410209E+03  0.60001944339E+03 0.  0.
        -24    2    4    4    0    0  0.23634300354E+03  0.18942976894E+03 -0.28067396473E+03  0.42118385897E+03  0.82923554506E+02 0.  0.
         24    2    4    4    0    0 -0.12824281183E+03 -0.25677238735E+03 -0.21642189688E+03  0.36834024312E+03  0.80360559743E+02 0.  0.
         11    1    5    5    0    0  0.68325551972E+02  0.10682239489E+03 -0.11233627821E+03  0.16940733309E+03  0.00000000000E+00 0. -1.
        -12    1    5    5    0    0  0.16801745157E+03  0.82607374053E+02 -0.16833768652E+03  0.25177652588E+03  0.00000000000E+00 0.  1.
         11    1    3    3    0    0 -0.14255917697E+02  0.20025156889E+02 -0.16246462761E+03  0.16431370400E+03  0.00000000000E+00 0. -1.
        -12    1    3    3    0    0 -0.93844274017E+02  0.47317461515E+02 -0.16723963689E+03  0.19752160914E+03  0.00000000000E+00 0.  1.
          4    1    6    6  502    0 -0.11807052595E+03 -0.15902884182E+03 -0.16282243507E+03  0.25640196370E+03  0.00000000000E+00 0. -1.
         -3    1    6    6    0  502 -0.10172285880E+02 -0.97743545533E+02 -0.53599461816E+02  0.11193827942E+03  0.00000000000E+00 0.  1.
<mgrwt>
<rscale>  0 0.37002510E+03</rscale>
<asrwt>0</asrwt>
<pdfrwt beam="1">  1        1 0.15216612E+00 0.37002510E+03</pdfrwt>
<pdfrwt beam="2">  1       -2 0.24966099E-01 0.37002510E+03</pdfrwt>
<totfact> 0.20322388E+02</totfact>
</mgrwt>
</event>
<event>
12    3  0.2269558E-007  0.1252079E+04  0.7818608E-02  0.9068455E-01
          1   -1    0    0  501    0  0.00000000000E+00  0.00000000000E+00  0.12119073980E+04  0.12119073980E+04  0.00000000000E+00 0. -1.
         -2   -1    0    0    0  501 -0.00000000000E+00 -0.00000000000E+00 -0.18466546200E+04  0.18466546200E+04  0.00000000000E+00 0.  1.
        -24    2    1    2    0    0  0.82940702835E+03 -0.86218906092E+03 -0.11141893029E+04  0.16367406775E+04  0.78843180575E+02 0.  0.
    5000000    2    1    2    0    0 -0.82940702835E+03  0.86218906092E+03  0.47944208088E+03  0.14218213405E+04  0.60035424544E+03 0.  0.
        -24    2    4    4    0    0 -0.77960635573E+03  0.47810214579E+03  0.45801190805E+03  0.10258892228E+04  0.79410691037E+02 0.  0.
         24    2    4    4    0    0 -0.49800672620E+02  0.38408691513E+03  0.21430172827E+02  0.39593211772E+03  0.79373321523E+02 0.  0.
         11    1    5    5    0    0 -0.76859859575E+02  0.44157293668E+02  0.72036928336E+02  0.11422181772E+03  0.00000000000E+00 0. -1.
        -12    1    5    5    0    0 -0.70274649615E+03  0.43394485212E+03  0.38597497971E+03  0.91166740509E+03  0.00000000000E+00 0.  1.
         13    1    3    3    0    0  0.21635200025E+03 -0.24734780721E+03 -0.34989054264E+03  0.48001303896E+03  0.00000000000E+00 0. -1.
        -14    1    3    3    0    0  0.61305502810E+03 -0.61484125371E+03 -0.76429876025E+03  0.11567276385E+04  0.00000000000E+00 0.  1.
          2    1    6    6  502    0  0.15783230807E+02  0.93095758169E+02 -0.14332023252E+02  0.95505693308E+02  0.00000000000E+00 0. -1.
         -1    1    6    6    0  502 -0.65583903427E+02  0.29099115696E+03  0.35762196080E+02  0.30042642442E+03  0.00000000000E+00 0.  1.
<mgrwt>
<rscale>  0 0.12520789E+04</rscale>
<asrwt>0</asrwt>
<pdfrwt beam="1">  1        1 0.18644729E+00 0.12520789E+04</pdfrwt>
<pdfrwt beam="2">  1       -2 0.28410071E+00 0.12520789E+04</pdfrwt>
<totfact> 0.35489846E-01</totfact>
</mgrwt>
</event>
<event>
12    3  0.2269558E-007  0.8413436E+03  0.7818608E-02  0.9502030E-01
          1   -1    0    0  501    0  0.00000000000E+00  0.00000000000E+00  0.78430501703E+03  0.78430501703E+03  0.00000000000E+00 0. -1.
         -2   -1    0    0    0  501 -0.00000000000E+00 -0.00000000000E+00 -0.14442323516E+04  0.14442323516E+04  0.00000000000E+00 0.  1.
        -24    2    1    2    0    0  0.79395607323E+01 -0.83583329259E+03  0.22729082016E+03  0.86991674194E+03  0.80085525295E+02 0.  0.
    5000000    2    1    2    0    0 -0.79395607323E+01  0.83583329259E+03 -0.88721815471E+03  0.13586206267E+04  0.60001135285E+03 0.  0.
        -24    2    4    4    0    0 -0.35372759045E+02  0.65943401682E+03 -0.28242215276E+03  0.72244556048E+03  0.77851530929E+02 0.  0.
         24    2    4    4    0    0  0.27433198312E+02  0.17639927577E+03 -0.60479600196E+03  0.63617506620E+03  0.84090582136E+02 0.  0.
         13    1    5    5    0    0 -0.56053077745E+01  0.33060182716E+03 -0.10111869956E+03  0.34576578634E+03  0.00000000000E+00 0. -1.
        -14    1    5    5    0    0 -0.29767451270E+02  0.32883218965E+03 -0.18130345319E+03  0.37667977414E+03  0.00000000000E+00 0.  1.
         13    1    3    3    0    0  0.36023939245E+02 -0.30598559949E+03  0.10411806504E+03  0.32521605551E+03  0.00000000000E+00 0. -1.
        -14    1    3    3    0    0 -0.28084378512E+02 -0.52984769309E+03  0.12317275512E+03  0.54470068643E+03  0.00000000000E+00 0.  1.
          4    1    6    6  502    0 -0.10193227976E+02  0.59450733249E+02 -0.32568001502E+03  0.33121860419E+03  0.00000000000E+00 0. -1.
         -3    1    6    6    0  502  0.37626426288E+02  0.11694854252E+03 -0.27911598694E+03  0.30495646200E+03  0.00000000000E+00 0.  1.
<mgrwt>
<rscale>  0 0.84134355E+03</rscale>
<asrwt>0</asrwt>
<pdfrwt beam="1">  1        1 0.12066231E+00 0.84134355E+03</pdfrwt>
<pdfrwt beam="2">  1       -2 0.22218959E+00 0.84134355E+03</pdfrwt>
<totfact> 0.19505032E+00</totfact>
</mgrwt>
</event>
<event>
12    3  0.2269558E-007  0.9739961E+03  0.7818608E-02  0.9337534E-01
         -2   -1    0    0    0  501 -0.00000000000E+00  0.00000000000E+00  0.20235332622E+04  0.20235332622E+04  0.00000000000E+00 0.  1.
          1   -1    0    0  501    0  0.00000000000E+00 -0.00000000000E+00 -0.77574102577E+03  0.77574102577E+03  0.00000000000E+00 0. -1.
        -24    2    1    2    0    0 -0.93200979087E+03 -0.21598857880E+03 -0.18191084818E+03  0.97736078285E+03  0.82760055079E+02 0.  0.
    5000000    2    1    2    0    0  0.93200979087E+03  0.21598857880E+03  0.14297030846E+04  0.18219135051E+04  0.60002049423E+03 0.  0.
        -24    2    4    4    0    0  0.64342052561E+03  0.30335586491E+02  0.12904126760E+04  0.14443461087E+04  0.77849770609E+02 0.  0.
         24    2    4    4    0    0  0.28858926525E+03  0.18565299231E+03  0.13929040861E+03  0.37756739639E+03  0.73515463108E+02 0.  0.
         13    1    5    5    0    0  0.19306314596E+03 -0.83915987732E+01  0.45854305864E+03  0.49759977279E+03  0.00000000000E+00 0. -1.
        -14    1    5    5    0    0  0.45035737966E+03  0.38727185264E+02  0.83186961733E+03  0.94674633589E+03  0.00000000000E+00 0.  1.
         13    1    3    3    0    0 -0.53385589678E+03 -0.13107600736E+03 -0.14541879163E+03  0.56862084308E+03  0.00000000000E+00 0. -1.
        -14    1    3    3    0    0 -0.39815389409E+03 -0.84912571445E+02 -0.36492056557E+02  0.40873993977E+03  0.00000000000E+00 0.  1.
          2    1    6    6  502    0  0.59074575525E+02  0.60203459015E+02  0.74981309868E+01  0.84678709952E+02  0.00000000000E+00 0. -1.
         -1    1    6    6    0  502  0.22951468973E+03  0.12544953330E+03  0.13179227762E+03  0.29288868644E+03  0.00000000000E+00 0.  1.
<mgrwt>
<rscale>  0 0.97399611E+03</rscale>
<asrwt>0</asrwt>
<pdfrwt beam="1">  1        1 0.11934477E+00 0.97399611E+03</pdfrwt>
<pdfrwt beam="2">  1       -2 0.31131281E+00 0.97399611E+03</pdfrwt>
<totfact> 0.55918835E-01</totfact>
</mgrwt>
</event>
<event>
12    3  0.2269558E-007  0.9636673E+03  0.7818608E-02  0.9349317E-01
         -2   -1    0    0    0  501 -0.00000000000E+00  0.00000000000E+00  0.78829548138E+03  0.78829548138E+03  0.00000000000E+00 0.  1.
          1   -1    0    0  501    0  0.00000000000E+00 -0.00000000000E+00 -0.16233884595E+04  0.16233884595E+04  0.00000000000E+00 0. -1.
        -24    2    1    2    0    0 -0.84981994713E+03 -0.23494395254E+03 -0.99663444543E+03  0.13330622661E+04  0.79888572609E+02 0.  0.
    5000000    2    1    2    0    0  0.84981994713E+03  0.23494395254E+03  0.16154146727E+03  0.10786216749E+04  0.59994705470E+03 0.  0.
        -24    2    4    4    0    0  0.54629691701E+03 -0.12624322292E+03 -0.20769087347E+02  0.56664392602E+03  0.79223172413E+02 0.  0.
         24    2    4    4    0    0  0.30352303012E+03  0.36118717546E+03  0.18231055462E+03  0.51197774883E+03  0.79383067736E+02 0.  0.
         11    1    5    5    0    0  0.41758252261E+02 -0.28189044239E+02  0.11413407911E+02  0.51658878493E+02  0.00000000000E+00 0. -1.
        -12    1    5    5    0    0  0.50453866474E+03 -0.98054178679E+02 -0.32182495258E+02  0.51498504753E+03  0.00000000000E+00 0.  1.
         11    1    3    3    0    0 -0.28398575643E+03 -0.11458707110E+03 -0.36823244816E+03  0.47892926680E+03  0.00000000000E+00 0. -1.
        -12    1    3    3    0    0 -0.56583419070E+03 -0.12035688144E+03 -0.62840199727E+03  0.85413299928E+03  0.00000000000E+00 0.  1.
          4    1    6    6  502    0  0.81144799993E+02  0.15517162738E+03  0.60202834496E+02  0.18516774501E+03  0.00000000000E+00 0. -1.
         -3    1    6    6    0  502  0.22237823013E+03  0.20601554807E+03  0.12210772012E+03  0.32681000382E+03  0.00000000000E+00 0.  1.
<mgrwt>
<rscale>  0 0.96366729E+03</rscale>
<asrwt>0</asrwt>
<pdfrwt beam="1">  1        1 0.24975207E+00 0.96366729E+03</pdfrwt>
<pdfrwt beam="2">  1       -2 0.12127623E+00 0.96366729E+03</pdfrwt>
<totfact> 0.24523426E+00</totfact>
</mgrwt>
</event>
<event>
12    3  0.2269558E-007  0.3131838E+03  0.7818608E-02  0.1078830E+00
          1   -1    0    0  501    0  0.00000000000E+00  0.00000000000E+00  0.10887250293E+04  0.10887250293E+04  0.00000000000E+00 0. -1.
         -2   -1    0    0    0  501 -0.00000000000E+00 -0.00000000000E+00 -0.22749025219E+03  0.22749025219E+03  0.00000000000E+00 0.  1.
        -24    2    1    2    0    0  0.21114359572E+03 -0.21280203066E+03  0.38229022389E+03  0.49211220376E+03  0.78500213634E+02 0.  0.
    5000000    2    1    2    0    0 -0.21114359572E+03  0.21280203066E+03  0.47894455321E+03  0.82410307771E+03  0.59990972269E+03 0.  0.
        -24    2    4    4    0    0 -0.96722707515E+02  0.13448182189E+03 -0.10932804248E+03  0.21364027461E+03  0.79050006281E+02 0.  0.
         24    2    4    4    0    0 -0.11442088820E+03  0.78320208765E+02  0.58827259569E+03  0.61046280310E+03  0.85871953393E+02 0.  0.
         11    1    3    3    0    0  0.61941811383E+02 -0.11749461629E+03  0.16122894309E+03  0.20889362112E+03  0.00000000000E+00 0. -1.
        -12    1    3    3    0    0  0.14920178434E+03 -0.95307414366E+02  0.22106128080E+03  0.28321858264E+03  0.00000000000E+00 0.  1.
         11    1    5    5    0    0 -0.88516762297E+02  0.13198531450E+03 -0.70463141732E+02  0.17384014149E+03  0.00000000000E+00 0. -1.
        -12    1    5    5    0    0 -0.82059452171E+01  0.24965073964E+01 -0.38864900745E+02  0.39800133116E+02  0.00000000000E+00 0.  1.
          4    1    6    6  502    0 -0.97829378104E+02  0.37200436061E+02  0.27821724438E+03  0.29725291375E+03  0.00000000000E+00 0. -1.
         -3    1    6    6    0  502 -0.16591510100E+02  0.41119772704E+02  0.31005535130E+03  0.31320988935E+03  0.00000000000E+00 0.  1.
<mgrwt>
<rscale>  0 0.31318382E+03</rscale>
<asrwt>0</asrwt>
<pdfrwt beam="1">  1        1 0.16749615E+00 0.31318382E+03</pdfrwt>
<pdfrwt beam="2">  1       -2 0.34998501E-01 0.31318382E+03</pdfrwt>
<totfact> 0.93165553E+01</totfact>
</mgrwt>
</event>
<event>
12    3  0.2269558E-007  0.7827108E+03  0.7818608E-02  0.9585385E-01
         -2   -1    0    0    0  501 -0.00000000000E+00  0.00000000000E+00  0.41249970906E+03  0.41249970906E+03  0.00000000000E+00 0.  1.
          1   -1    0    0  501    0  0.00000000000E+00 -0.00000000000E+00 -0.17161484696E+04  0.17161484696E+04  0.00000000000E+00 0. -1.
        -24    2    1    2    0    0  0.20520949276E+03  0.67488456397E+03 -0.81712287204E+03  0.10825542971E+04  0.81571487647E+02 0.  0.
    5000000    2    1    2    0    0 -0.20520949276E+03 -0.67488456397E+03 -0.48652588846E+03  0.10460938815E+04  0.60002071479E+03 0.  0.
        -24    2    4    4    0    0 -0.21609076048E+03 -0.51672944591E+02  0.22898527756E+02  0.23705140352E+03  0.79395940518E+02 0.  0.
         24    2    4    4    0    0  0.10881267713E+02 -0.62321161938E+03 -0.50942441621E+03  0.80904247798E+03  0.80779767487E+02 0.  0.
         11    1    5    5    0    0 -0.40640987449E+02 -0.39478148059E+02  0.23077340072E+02  0.61178244988E+02  0.00000000000E+00 0. -1.
        -12    1    5    5    0    0 -0.17544977303E+03 -0.12194796533E+02 -0.17881231614E+00  0.17587315853E+03  0.00000000000E+00 0.  1.
         13    1    3    3    0    0  0.92431271338E+02  0.43089088992E+03 -0.52903903544E+03  0.68854397097E+03  0.00000000000E+00 0. -1.
        -14    1    3    3    0    0  0.11277822142E+03  0.24399367405E+03 -0.28808383660E+03  0.39401032615E+03  0.00000000000E+00 0.  1.
          4    1    6    6  502    0  0.63825595568E+01 -0.12133949495E+03 -0.60794964998E+02  0.13586772196E+03  0.00000000000E+00 0. -1.
         -3    1    6    6    0  502  0.44987081559E+01 -0.50187212443E+03 -0.44862945121E+03  0.67317475602E+03  0.00000000000E+00 0.  1.
<mgrwt>
<rscale>  0 0.78271079E+03</rscale>
<asrwt>0</asrwt>
<pdfrwt beam="1">  1        1 0.26402284E+00 0.78271079E+03</pdfrwt>
<pdfrwt beam="2">  1       -2 0.63461494E-01 0.78271079E+03</pdfrwt>
<totfact> 0.96703997E+00</totfact>
</mgrwt>
</event>
<event>
12    3  0.2269558E-007  0.5044046E+03  0.7818608E-02  0.1012636E+00
         -2   -1    0    0    0  501 -0.00000000000E+00  0.00000000000E+00  0.28256015093E+03  0.28256015093E+03  0.00000000000E+00 0.  1.
          1   -1    0    0  501    0  0.00000000000E+00 -0.00000000000E+00 -0.14916263890E+04  0.14916263890E+04  0.00000000000E+00 0. -1.
        -24    2    1    2    0    0  0.38677315051E+03 -0.29795228296E+03 -0.29186717302E+03  0.57434678332E+03  0.79490552506E+02 0.  0.
    5000000    2    1    2    0    0 -0.38677315051E+03  0.29795228296E+03 -0.91719906503E+03  0.11998397566E+04  0.59999356974E+03 0.  0.
        -24    2    4    4    0    0 -0.10533430233E+03  0.16129345072E+03  0.18290904781E+02  0.21007813371E+03  0.81776357055E+02 0.  0.
         24    2    4    4    0    0 -0.28143884818E+03  0.13665883224E+03 -0.93548996981E+03  0.98976162288E+03  0.81259613665E+02 0.  0.
         11    1    5    5    0    0 -0.76107927348E+02  0.61975093654E+02 -0.19124361944E+02  0.99995350184E+02  0.00000000000E+00 0. -1.
        -12    1    5    5    0    0 -0.29226374984E+02  0.99318357069E+02  0.37415266726E+02  0.11008278353E+03  0.00000000000E+00 0.  1.
         11    1    3    3    0    0  0.23763158510E+03 -0.13845867069E+03 -0.18305378387E+03  0.33037593967E+03  0.00000000000E+00 0. -1.
        -12    1    3    3    0    0  0.14914156541E+03 -0.15949361227E+03 -0.10881338916E+03  0.24397084364E+03  0.00000000000E+00 0.  1.
          2    1    6    6  502    0 -0.99011198281E+02  0.60677095804E+02 -0.23803311133E+03  0.26484842727E+03  0.00000000000E+00 0. -1.
         -1    1    6    6    0  502 -0.18242764990E+03  0.75981736436E+02 -0.69745685848E+03  0.72491319560E+03  0.00000000000E+00 0.  1.
<mgrwt>
<rscale>  0 0.50440460E+03</rscale>
<asrwt>0</asrwt>
<pdfrwt beam="1">  1        1 0.22948098E+00 0.50440460E+03</pdfrwt>
<pdfrwt beam="2">  1       -2 0.43470794E-01 0.50440460E+03</pdfrwt>
<totfact> 0.31061062E+01</totfact>
</mgrwt>
</event>
<event>
12    3  0.2269558E-007  0.1290039E+04  0.7818608E-02  0.9037502E-01
         -2   -1    0    0    0  501 -0.00000000000E+00  0.00000000000E+00  0.10698785118E+04  0.10698785118E+04  0.00000000000E+00 0.  1.
          1   -1    0    0  501    0  0.00000000000E+00 -0.00000000000E+00 -0.15714825073E+04  0.15714825073E+04  0.00000000000E+00 0. -1.
        -24    2    1    2    0    0 -0.98969304906E+03  0.71779513021E+03 -0.32925544825E+03  0.12685407633E+04  0.77873857937E+02 0.  0.
    5000000    2    1    2    0    0  0.98969304906E+03 -0.71779513021E+03 -0.17234854730E+03  0.13728202558E+04  0.60017435178E+03 0.  0.
        -24    2    4    4    0    0  0.10440253194E+04 -0.60563683859E+03 -0.18673503380E+03  0.12241944615E+04  0.83649620294E+02 0.  0.
         24    2    4    4    0    0 -0.54332270348E+02 -0.11215829162E+03  0.14386486503E+02  0.14862579422E+03  0.79694276662E+02 0.  0.
         11    1    5    5    0    0  0.93548014635E+03 -0.57047756983E+03 -0.16535127739E+03  0.11081104669E+04  0.00000000000E+00 0. -1.
        -12    1    5    5    0    0  0.10854517306E+03 -0.35159268755E+02 -0.21383756413E+02  0.11608399464E+03  0.00000000000E+00 0.  1.
         11    1    3    3    0    0 -0.47589160751E+03  0.32557624185E+03 -0.11850728813E+03  0.58865668152E+03  0.00000000000E+00 0. -1.
        -12    1    3    3    0    0 -0.51380144155E+03  0.39221888836E+03 -0.21074816012E+03  0.67988408182E+03  0.00000000000E+00 0.  1.
          4    1    6    6  502    0 -0.70343729806E+02 -0.11075134063E+03  0.83900011189E+01  0.13147049819E+03  0.00000000000E+00 0. -1.
         -3    1    6    6    0  502  0.16011459458E+02 -0.14069509927E+01  0.59964853845E+01  0.17155296035E+02  0.00000000000E+00 0.  1.
<mgrwt>
<rscale>  0 0.12900388E+04</rscale>
<asrwt>0</asrwt>
<pdfrwt beam="1">  1        1 0.24176654E+00 0.12900388E+04</pdfrwt>
<pdfrwt beam="2">  1       -2 0.16459669E+00 0.12900388E+04</pdfrwt>
<totfact> 0.11525457E+00</totfact>
</mgrwt>
</event>
<event>
12    3  0.2269558E-007  0.8898873E+03  0.7818608E-02  0.9438312E-01
         -2   -1    0    0    0  501 -0.00000000000E+00  0.00000000000E+00  0.15902165510E+04  0.15902165510E+04  0.00000000000E+00 0.  1.
          1   -1    0    0  501    0  0.00000000000E+00 -0.00000000000E+00 -0.92100717575E+03  0.92100717575E+03  0.00000000000E+00 0. -1.
        -24    2    1    2    0    0  0.42481080903E+03  0.66533074630E+03  0.11599952865E+04  0.14049489278E+04  0.71855406653E+02 0.  0.
    5000000    2    1    2    0    0 -0.42481080903E+03 -0.66533074630E+03 -0.49078591122E+03  0.11062747990E+04  0.59986989826E+03 0.  0.
        -24    2    4    4    0    0 -0.15372935039E+02 -0.55362996668E+03 -0.26452933376E+03  0.61872260233E+03  0.78098803267E+02 0.  0.
         24    2    4    4    0    0 -0.40943787399E+03 -0.11170077962E+03 -0.22625657746E+03  0.48755219669E+03  0.79991679737E+02 0.  0.
         11    1    3    3    0    0  0.12466460952E+03  0.25123658446E+03  0.44042277662E+03  0.52214299613E+03  0.00000000000E+00 0. -1.
        -12    1    3    3    0    0  0.30014619950E+03  0.41409416184E+03  0.71957250989E+03  0.88280593164E+03  0.00000000000E+00 0.  1.
         13    1    5    5    0    0 -0.33042912747E+02 -0.13773067295E+03 -0.48364902903E+02  0.14966875488E+03  0.00000000000E+00 0. -1.
        -14    1    5    5    0    0  0.17669977707E+02 -0.41589929373E+03 -0.21616443086E+03  0.46905384745E+03  0.00000000000E+00 0.  1.
          4    1    6    6  502    0 -0.20695260119E+03 -0.92137306053E+02 -0.14202068324E+03  0.26737340327E+03  0.00000000000E+00 0. -1.
         -3    1    6    6    0  502 -0.20248527280E+03 -0.19563473570E+02 -0.84235894224E+02  0.22017879342E+03  0.00000000000E+00 0.  1.
<mgrwt>
<rscale>  0 0.88988732E+03</rscale>
<asrwt>0</asrwt>
<pdfrwt beam="1">  1        1 0.14169341E+00 0.88988732E+03</pdfrwt>
<pdfrwt beam="2">  1       -2 0.24464870E+00 0.88988732E+03</pdfrwt>
<totfact> 0.10801820E+00</totfact>
</mgrwt>
</event>
<event>
12    3  0.2269558E-007  0.1275455E+04  0.7818608E-02  0.9049259E-01
          1   -1    0    0  501    0  0.00000000000E+00  0.00000000000E+00  0.30408907098E+04  0.30408907098E+04  0.00000000000E+00 0. -1.
         -4   -1    0    0    0  501 -0.00000000000E+00 -0.00000000000E+00 -0.67165456010E+03  0.67165456010E+03  0.00000000000E+00 0.  1.
        -24    2    1    2    0    0  0.82071216160E+03 -0.89668998336E+03  0.19397403989E+04  0.22905606692E+04  0.80336702360E+02 0.  0.
    5000000    2    1    2    0    0 -0.82071216160E+03  0.89668998336E+03  0.42949575071E+03  0.14219846006E+04  0.59996018706E+03 0.  0.
        -24    2    4    4    0    0 -0.58226081039E+03  0.92084004935E+03  0.27657237350E+03  0.11267688780E+04  0.78369501313E+02 0.  0.
         24    2    4    4    0    0 -0.23845135120E+03 -0.24150065995E+02  0.15292337722E+03  0.29521572266E+03  0.79526668658E+02 0.  0.
         11    1    5    5    0    0 -0.89762561636E+02  0.11669369675E+03  0.61644138485E+02  0.15960807041E+03  0.00000000000E+00 0. -1.
        -12    1    5    5    0    0 -0.49249824876E+03  0.80414635261E+03  0.21492823501E+03  0.96716080754E+03  0.00000000000E+00 0.  1.
         13    1    3    3    0    0  0.32396633858E+03 -0.40236975414E+03  0.86569985222E+03  0.10081130104E+04  0.00000000000E+00 0. -1.
        -14    1    3    3    0    0  0.49674582302E+03 -0.49432022922E+03  0.10740405467E+04  0.12824476589E+04  0.00000000000E+00 0.  1.
          2    1    6    6  502    0 -0.13337796349E+03  0.75347094616E+01  0.44149886693E+02  0.14069706993E+03  0.00000000000E+00 0. -1.
         -1    1    6    6    0  502 -0.10507338771E+03 -0.31684775456E+02  0.10877349052E+03  0.15451865273E+03  0.00000000000E+00 0.  1.
<mgrwt>
<rscale>  0 0.12754551E+04</rscale>
<asrwt>0</asrwt>
<pdfrwt beam="1">  1        1 0.46782933E+00 0.12754551E+04</pdfrwt>
<pdfrwt beam="2">  1       -4 0.10333147E+00 0.12754551E+04</pdfrwt>
<totfact> 0.20211959E-01</totfact>
</mgrwt>
</event>
<event>
12    3  0.2269558E-007  0.6134763E+03  0.7818608E-02  0.9877835E-01
         -4   -1    0    0    0  501 -0.00000000000E+00  0.00000000000E+00  0.20755208931E+03  0.20755208931E+03  0.00000000000E+00 0.  1.
          1   -1    0    0  501    0  0.00000000000E+00 -0.00000000000E+00 -0.26184475575E+04  0.26184475575E+04  0.00000000000E+00 0. -1.
        -24    2    1    2    0    0 -0.49208005895E+03  0.80900920196E+00 -0.17076373492E+04  0.17787843869E+04  0.76844906920E+02 0.  0.
    5000000    2    1    2    0    0  0.49208005895E+03 -0.80900920196E+00 -0.70325811906E+03  0.10472152600E+04  0.59995364808E+03 0.  0.
        -24    2    4    4    0    0 -0.35193631599E+02  0.15560491225E+03 -0.33876275950E+03  0.38277937645E+03  0.79425206266E+02 0.  0.
         24    2    4    4    0    0  0.52727369055E+03 -0.15641392145E+03 -0.36449535956E+03  0.66443588355E+03  0.78328262084E+02 0.  0.
         11    1    5    5    0    0 -0.58879180899E+02  0.10033055974E+03 -0.24763256914E+03  0.27359617771E+03  0.00000000000E+00 0. -1.
        -12    1    5    5    0    0  0.23685549300E+02  0.55274352515E+02 -0.91130190359E+02  0.10918319874E+03  0.00000000000E+00 0.  1.
         13    1    3    3    0    0 -0.25620825353E+03 -0.35782980656E+02 -0.93367711242E+03  0.96885295124E+03  0.00000000000E+00 0. -1.
        -14    1    3    3    0    0 -0.23587180542E+03  0.36591989858E+02 -0.77396023676E+03  0.80993143561E+03  0.00000000000E+00 0.  1.
          2    1    6    6  502    0  0.30417702328E+03 -0.12027522837E+03 -0.24582669286E+03  0.40917056953E+03  0.00000000000E+00 0. -1.
         -1    1    6    6    0  502  0.22309666726E+03 -0.36138693081E+02 -0.11866866671E+03  0.25526531402E+03  0.00000000000E+00 0.  1.
<mgrwt>
<rscale>  0 0.61347629E+03</rscale>
<asrwt>0</asrwt>
<pdfrwt beam="1">  1        1 0.40283808E+00 0.61347629E+03</pdfrwt>
<pdfrwt beam="2">  1       -4 0.31931091E-01 0.61347629E+03</pdfrwt>
<totfact> 0.55575531E+00</totfact>
</mgrwt>
</event>
<event>
12    3  0.2768714E-007  0.7000119E+03  0.7818608E-02  0.9717212E-01
         -2   -1    0    0    0  501 -0.00000000000E+00  0.00000000000E+00  0.61348394546E+03  0.61348394546E+03  0.00000000000E+00 0.  1.
          1   -1    0    0  501    0  0.00000000000E+00 -0.00000000000E+00 -0.99710136190E+03  0.99710136190E+03  0.00000000000E+00 0. -1.
        -24    2    1    2    0    0  0.65423994467E+03 -0.12583696398E+02 -0.28132577860E+03  0.71694295912E+03  0.81699194090E+02 0.  0.
    5000000    2    1    2    0    0 -0.65423994467E+03  0.12583696398E+02 -0.10229163784E+03  0.89364234824E+03  0.59995400888E+03 0.  0.
        -24    2    4    4    0    0 -0.26608015208E+03  0.17257473002E+03  0.18827978181E+03  0.37696286094E+03  0.77916862847E+02 0.  0.
         24    2    4    4    0    0 -0.38815979259E+03 -0.15999103362E+03 -0.29057141965E+03  0.51667948730E+03  0.79125136679E+02 0.  0.
         13    1    3    3    0    0  0.33131662451E+03 -0.43202621478E+02 -0.16195467568E+03  0.37130376938E+03  0.00000000000E+00 0. -1.
        -14    1    3    3    0    0  0.32292332015E+03  0.30618925080E+02 -0.11937110292E+03  0.34563918974E+03  0.00000000000E+00 0.  1.
         13    1    5    5    0    0 -0.20807702714E+03  0.15963839733E+03  0.12627358158E+03  0.29107642387E+03  0.00000000000E+00 0. -1.
        -14    1    5    5    0    0 -0.58003124941E+02  0.12936332692E+02  0.62006200227E+02  0.85886437073E+02  0.00000000000E+00 0.  1.
          2    1    6    6  502    0 -0.69694601990E+02 -0.28103310624E+02 -0.92322007386E+02  0.11903985325E+03  0.00000000000E+00 0. -1.
         -1    1    6    6    0  502 -0.31846519060E+03 -0.13188772300E+03 -0.19824941227E+03  0.39763963405E+03  0.00000000000E+00 0.  1.
<mgrwt>
<rscale>  0 0.70001191E+03</rscale>
<asrwt>0</asrwt>
<pdfrwt beam="1">  1        1 0.15340021E+00 0.70001191E+03</pdfrwt>
<pdfrwt beam="2">  1       -2 0.94382145E-01 0.70001191E+03</pdfrwt>
<totfact> 0.12996132E+01</totfact>
</mgrwt>
</event>
<event>
12    3  0.2269558E-007  0.6040676E+03  0.7818608E-02  0.9897003E-01
          1   -1    0    0  501    0  0.00000000000E+00  0.00000000000E+00  0.43746768499E+03  0.43746768499E+03  0.00000000000E+00 0. -1.
         -2   -1    0    0    0  501 -0.00000000000E+00 -0.00000000000E+00 -0.10540739403E+04  0.10540739403E+04  0.00000000000E+00 0.  1.
        -24    2    1    2    0    0 -0.41538145918E+03 -0.25981807629E+03  0.54066830548E+01  0.49808266656E+03  0.89498162600E+02 0.  0.
    5000000    2    1    2    0    0  0.41538145918E+03  0.25981807629E+03 -0.62201293837E+03  0.99345895874E+03  0.60001118140E+03 0.  0.
        -24    2    4    4    0    0  0.52695432830E+03  0.12840259844E+03 -0.31354812261E+03  0.63160663657E+03  0.80289642933E+02 0.  0.
         24    2    4    4    0    0 -0.11157286912E+03  0.13141547785E+03 -0.30846481576E+03  0.36185232217E+03  0.77897545239E+02 0.  0.
         11    1    5    5    0    0  0.40052690327E+03  0.75524382268E+02 -0.20194089849E+03  0.45486905703E+03  0.00000000000E+00 0. -1.
        -12    1    5    5    0    0  0.12642742503E+03  0.52878216170E+02 -0.11160722412E+03  0.17673757954E+03  0.00000000000E+00 0.  1.
         13    1    3    3    0    0 -0.27151368485E+03 -0.17812890265E+03 -0.38256835759E+02  0.32697579803E+03  0.00000000000E+00 0. -1.
        -14    1    3    3    0    0 -0.14386777433E+03 -0.81689173647E+02  0.43663518813E+02  0.17110686853E+03  0.00000000000E+00 0.  1.
          4    1    6    6  502    0 -0.26961144745E+02  0.44560722498E+02 -0.35111325282E+02  0.62812152316E+02  0.00000000000E+00 0. -1.
         -3    1    6    6    0  502 -0.84611724380E+02  0.86854755356E+02 -0.27335349048E+03  0.29904016985E+03  0.00000000000E+00 0.  1.
<mgrwt>
<rscale>  0 0.60406758E+03</rscale>
<asrwt>0</asrwt>
<pdfrwt beam="1">  1        1 0.67302721E-01 0.60406758E+03</pdfrwt>
<pdfrwt beam="2">  1       -2 0.16216522E+00 0.60406758E+03</pdfrwt>
<totfact> 0.11703538E+01</totfact>
</mgrwt>
</event>
<event>
12    3  0.2269558E-007  0.1203912E+04  0.7818608E-02  0.9109439E-01
          1   -1    0    0  501    0  0.00000000000E+00  0.00000000000E+00  0.22085617145E+04  0.22085617145E+04  0.00000000000E+00 0. -1.
         -2   -1    0    0    0  501 -0.00000000000E+00 -0.00000000000E+00 -0.66397626765E+03  0.66397626765E+03  0.00000000000E+00 0.  1.
        -24    2    1    2    0    0  0.87269972910E+03  0.72011446761E+03  0.61686525745E+03  0.12911896533E+04  0.80487958120E+02 0.  0.
    5000000    2    1    2    0    0 -0.87269972910E+03 -0.72011446761E+03  0.92772018940E+03  0.15813483288E+04  0.59985675255E+03 0.  0.
        -24    2    4    4    0    0 -0.14506275128E+02 -0.31973331093E+03  0.22438149718E+03  0.39908184113E+03  0.80494953266E+02 0.  0.
         24    2    4    4    0    0 -0.85819345398E+03 -0.40038115667E+03  0.70333869221E+03  0.11822664877E+04  0.79168534567E+02 0.  0.
         11    1    5    5    0    0  0.25826933612E+02 -0.77467175070E+02  0.79316680519E+02  0.11383905095E+03  0.00000000000E+00 0. -1.
        -12    1    5    5    0    0 -0.40333208741E+02 -0.24226613586E+03  0.14506481666E+03  0.28524279017E+03  0.00000000000E+00 0.  1.
         11    1    3    3    0    0  0.63898896187E+03  0.55082494571E+03  0.49324932995E+03  0.97724608759E+03  0.00000000000E+00 0. -1.
        -12    1    3    3    0    0  0.23371076723E+03  0.16928952189E+03  0.12361592751E+03  0.31394356575E+03  0.00000000000E+00 0.  1.
          2    1    6    6  502    0 -0.52983606312E+03 -0.27419413299E+03  0.47864203980E+03  0.76485742372E+03  0.00000000000E+00 0. -1.
         -1    1    6    6    0  502 -0.32835739085E+03 -0.12618702368E+03  0.22469665241E+03  0.41740906396E+03  0.00000000000E+00 0.  1.
<mgrwt>
<rscale>  0 0.12039120E+04</rscale>
<asrwt>0</asrwt>
<pdfrwt beam="1">  1        1 0.33977872E+00 0.12039120E+04</pdfrwt>
<pdfrwt beam="2">  1       -2 0.10215020E+00 0.12039120E+04</pdfrwt>
<totfact> 0.14564995E+00</totfact>
</mgrwt>
</event>
<event>
12    3  0.2269558E-007  0.1001841E+04  0.7818608E-02  0.9306528E-01
         -2   -1    0    0    0  501 -0.00000000000E+00  0.00000000000E+00  0.48533361759E+03  0.48533361759E+03  0.00000000000E+00 0.  1.
          1   -1    0    0  501    0  0.00000000000E+00 -0.00000000000E+00 -0.24109667597E+04  0.24109667597E+04  0.00000000000E+00 0. -1.
        -24    2    1    2    0    0  0.16043787585E+03 -0.98009549284E+03 -0.77586778314E+03  0.12628098793E+04  0.79940522891E+02 0.  0.
    5000000    2    1    2    0    0 -0.16043787585E+03  0.98009549284E+03 -0.11497653589E+04  0.16334904980E+04  0.60000278272E+03 0.  0.
        -24    2    4    4    0    0 -0.13726075882E+03  0.53431975282E+03 -0.10199004835E+04  0.11621503809E+04  0.77835707875E+02 0.  0.
         24    2    4    4    0    0 -0.23177117032E+02  0.44577574003E+03 -0.12986487549E+03  0.47134011712E+03  0.77739507152E+02 0.  0.
         11    1    5    5    0    0 -0.93764961470E+02  0.21885758829E+03 -0.46289558527E+03  0.52054090599E+03  0.00000000000E+00 0. -1.
        -12    1    5    5    0    0 -0.43495797352E+02  0.31546216453E+03 -0.55700489818E+03  0.64160947486E+03  0.00000000000E+00 0.  1.
         11    1    3    3    0    0  0.13580474433E+03 -0.90177814531E+03 -0.73405031543E+03  0.11706735743E+04  0.00000000000E+00 0. -1.
        -12    1    3    3    0    0  0.24633131528E+02 -0.78317347532E+02 -0.41817467710E+02  0.92136305000E+02  0.00000000000E+00 0.  1.
          4    1    6    6  502    0 -0.34983440694E+02  0.82350770125E+02 -0.24633039292E+02  0.92802354969E+02  0.00000000000E+00 0. -1.
         -3    1    6    6    0  502  0.11806323662E+02  0.36342496990E+03 -0.10523183620E+03  0.37853776216E+03  0.00000000000E+00 0.  1.
<mgrwt>
<rscale>  0 0.10018405E+04</rscale>
<asrwt>0</asrwt>
<pdfrwt beam="1">  1        1 0.37091796E+00 0.10018405E+04</pdfrwt>
<pdfrwt beam="2">  1       -2 0.74666711E-01 0.10018405E+04</pdfrwt>
<totfact> 0.22403802E+00</totfact>
</mgrwt>
</event>
<event>
12    3  0.2269558E-007  0.1633122E+04  0.7818608E-02  0.8800454E-01
          1   -1    0    0  501    0  0.00000000000E+00  0.00000000000E+00  0.16932848817E+04  0.16932848817E+04  0.00000000000E+00 0. -1.
         -2   -1    0    0    0  501 -0.00000000000E+00 -0.00000000000E+00 -0.16176891722E+04  0.16176891722E+04  0.00000000000E+00 0.  1.
        -24    2    1    2    0    0 -0.68243622050E+03  0.14418732084E+04  0.15562793925E+03  0.16047610670E+04  0.79501461984E+02 0.  0.
    5000000    2    1    2    0    0  0.68243622050E+03 -0.14418732084E+04 -0.80032229831E+02  0.17062129869E+04  0.60003337814E+03 0.  0.
        -24    2    4    4    0    0  0.35158015737E+03 -0.12026294519E+04 -0.20446450087E+03  0.12722122399E+04  0.82413868653E+02 0.  0.
         24    2    4    4    0    0  0.33085606314E+03 -0.23924375649E+03  0.12443227104E+03  0.43400074699E+03  0.78549021500E+02 0.  0.
         11    1    5    5    0    0  0.81872696298E+02 -0.18104411498E+03 -0.43985896964E+02  0.20350643504E+03  0.00000000000E+00 0. -1.
        -12    1    5    5    0    0  0.26970746107E+03 -0.10215853369E+04 -0.16047860391E+03  0.10687058049E+04  0.00000000000E+00 0.  1.
         13    1    3    3    0    0 -0.18712782954E+03  0.40581360985E+03  0.79278456485E+02  0.45385744919E+03  0.00000000000E+00 0. -1.
        -14    1    3    3    0    0 -0.49530839097E+03  0.10360595985E+04  0.76349482764E+02  0.11509036178E+04  0.00000000000E+00 0.  1.
          2    1    6    6  502    0  0.16511043563E+03 -0.71603258494E+02  0.57786049336E+02  0.18901775069E+03  0.00000000000E+00 0. -1.
         -1    1    6    6    0  502  0.16574562751E+03 -0.16764049799E+03  0.66646221706E+02  0.24498299630E+03  0.00000000000E+00 0.  1.
<mgrwt>
<rscale>  0 0.16331219E+04</rscale>
<asrwt>0</asrwt>
<pdfrwt beam="1">  1        1 0.26050537E+00 0.16331219E+04</pdfrwt>
<pdfrwt beam="2">  1       -2 0.24887526E+00 0.16331219E+04</pdfrwt>
<totfact> 0.25601073E-01</totfact>
</mgrwt>
</event>
<event>
12    3  0.2269558E-007  0.1370884E+04  0.7818608E-02  0.8975168E-01
          1   -1    0    0  501    0  0.00000000000E+00  0.00000000000E+00  0.17220105101E+04  0.17220105101E+04  0.00000000000E+00 0. -1.
         -2   -1    0    0    0  501 -0.00000000000E+00 -0.00000000000E+00 -0.13210478118E+04  0.13210478118E+04  0.00000000000E+00 0.  1.
        -24    2    1    2    0    0  0.12936315044E+04  0.22254036229E+03 -0.42281814032E+03  0.13812836973E+04  0.78503444365E+02 0.  0.
    5000000    2    1    2    0    0 -0.12936315044E+04 -0.22254036229E+03  0.82378083868E+03  0.16617746246E+04  0.59989444970E+03 0.  0.
        -24    2    4    4    0    0 -0.13018927513E+04 -0.27634252240E+03  0.82186287103E+03  0.15664951117E+04  0.84607508361E+02 0.  0.
         24    2    4    4    0    0  0.82612469890E+01  0.53802160119E+02  0.19179676527E+01  0.95279512885E+02  0.78176635515E+02 0.  0.
         11    1    5    5    0    0 -0.10971686835E+04 -0.21083632155E+03  0.71503158674E+03  0.13264619273E+04  0.00000000000E+00 0. -1.
        -12    1    5    5    0    0 -0.20472406780E+03 -0.65506200852E+02  0.10683128429E+03  0.24003318435E+03  0.00000000000E+00 0.  1.
         11    1    3    3    0    0  0.65064042242E+03  0.74389182979E+02 -0.19683554160E+03  0.68382083931E+03  0.00000000000E+00 0. -1.
        -12    1    3    3    0    0  0.64299108193E+03  0.14815117931E+03 -0.22598259872E+03  0.69746285800E+03  0.00000000000E+00 0.  1.
          4    1    6    6  502    0  0.25402579689E+02 -0.11107483231E+02  0.45369068936E+01  0.28093607151E+02  0.00000000000E+00 0. -1.
         -3    1    6    6    0  502 -0.17141332701E+02  0.64909643350E+02 -0.26189392409E+01  0.67185905734E+02  0.00000000000E+00 0.  1.
<mgrwt>
<rscale>  0 0.13708842E+04</rscale>
<asrwt>0</asrwt>
<pdfrwt beam="1">  1        1 0.26492469E+00 0.13708842E+04</pdfrwt>
<pdfrwt beam="2">  1       -2 0.20323812E+00 0.13708842E+04</pdfrwt>
<totfact> 0.48852532E-01</totfact>
</mgrwt>
</event>
<event>
12    3  0.2269558E-007  0.1025748E+04  0.7818608E-02  0.9280747E-01
          1   -1    0    0  501    0  0.00000000000E+00  0.00000000000E+00  0.10253166641E+04  0.10253166641E+04  0.00000000000E+00 0. -1.
         -4   -1    0    0    0  501 -0.00000000000E+00 -0.00000000000E+00 -0.12097123709E+04  0.12097123709E+04  0.00000000000E+00 0.  1.
        -24    2    1    2    0    0  0.97133831552E+03 -0.96438822551E+02  0.24818675301E+03  0.10103187313E+04  0.79678760240E+02 0.  0.
    5000000    2    1    2    0    0 -0.97133831552E+03  0.96438822551E+02 -0.43258245988E+03  0.12247103036E+04  0.59999097790E+03 0.  0.
        -24    2    4    4    0    0 -0.17250042747E+03  0.19255946052E+03  0.61025592984E+02  0.27738857738E+03  0.79904671647E+02 0.  0.
         24    2    4    4    0    0 -0.79883788805E+03 -0.96120637971E+02 -0.49360805286E+03  0.94732172625E+03  0.79927434311E+02 0.  0.
         11    1    5    5    0    0 -0.16449594723E+03  0.15277140400E+03  0.30398232004E+02  0.22654375084E+03  0.00000000000E+00 0. -1.
        -12    1    5    5    0    0 -0.80044802360E+01  0.39788056525E+02  0.30627360980E+02  0.50844826546E+02  0.00000000000E+00 0.  1.
         13    1    3    3    0    0  0.13983861398E+03  0.10081096728E+02  0.50598505907E+02  0.14905259230E+03  0.00000000000E+00 0. -1.
        -14    1    3    3    0    0  0.83149970153E+03 -0.10651991928E+03  0.19758824710E+03  0.86126613903E+03  0.00000000000E+00 0.  1.
          2    1    6    6  502    0 -0.66940221587E+03 -0.53031109757E+02 -0.42413951080E+03  0.79423293173E+03  0.00000000000E+00 0. -1.
         -1    1    6    6    0  502 -0.12943567217E+03 -0.43089528214E+02 -0.69468542057E+02  0.15308879452E+03  0.00000000000E+00 0.  1.
<mgrwt>
<rscale>  0 0.10257479E+04</rscale>
<asrwt>0</asrwt>
<pdfrwt beam="1">  1        1 0.15774103E+00 0.10257479E+04</pdfrwt>
<pdfrwt beam="2">  1       -4 0.18610959E+00 0.10257479E+04</pdfrwt>
<totfact> 0.11139384E+00</totfact>
</mgrwt>
</event>
<event>
12    3  0.2269558E-007  0.4828640E+03  0.7818608E-02  0.1018351E+00
         -2   -1    0    0    0  501 -0.00000000000E+00  0.00000000000E+00  0.52881620873E+03  0.52881620873E+03  0.00000000000E+00 0.  1.
          1   -1    0    0  501    0  0.00000000000E+00 -0.00000000000E+00 -0.18466605798E+04  0.18466605798E+04  0.00000000000E+00 0. -1.
        -24    2    1    2    0    0  0.21567852096E+03  0.21155223123E+03 -0.16120575599E+04  0.16420844494E+04  0.80250804277E+02 0.  0.
    5000000    2    1    2    0    0 -0.21567852096E+03 -0.21155223123E+03  0.29421318874E+03  0.73339233921E+03  0.60002612596E+03 0.  0.
        -24    2    4    4    0    0 -0.36404286361E+03  0.23080430461E+02  0.22724984196E+03  0.43699955153E+03  0.79159361740E+02 0.  0.
         24    2    4    4    0    0  0.14836434264E+03 -0.23463266170E+03  0.66963346776E+02  0.29639278768E+03  0.79373362522E+02 0.  0.
         11    1    5    5    0    0 -0.42975728351E+02  0.29012283595E+02  0.25754306977E+02  0.57895683384E+02  0.00000000000E+00 0. -1.
        -12    1    5    5    0    0 -0.32106713525E+03 -0.59318531337E+01  0.20149553499E+03  0.37910386814E+03  0.00000000000E+00 0.  1.
         13    1    3    3    0    0  0.63593663348E+02  0.17774444574E+02 -0.31597489529E+03  0.32280058759E+03  0.00000000000E+00 0. -1.
        -14    1    3    3    0    0  0.15208485762E+03  0.19377778666E+03 -0.12960826646E+04  0.13192838618E+04  0.00000000000E+00 0.  1.
          2    1    6    6  502    0  0.93405729011E+02 -0.11085338538E+03  0.69893837551E+02  0.16092933788E+03  0.00000000000E+00 0. -1.
         -1    1    6    6    0  502  0.54958613630E+02 -0.12377927631E+03 -0.29304907747E+01  0.13546344980E+03  0.00000000000E+00 0.  1.
<mgrwt>
<rscale>  0 0.48286396E+03</rscale>
<asrwt>0</asrwt>
<pdfrwt beam="1">  1        1 0.28410162E+00 0.48286396E+03</pdfrwt>
<pdfrwt beam="2">  1       -2 0.81356343E-01 0.48286396E+03</pdfrwt>
<totfact> 0.48522985E+00</totfact>
</mgrwt>
</event>
<event>
12    3  0.2269558E-007  0.1283731E+04  0.7818608E-02  0.9042567E-01
         -2   -1    0    0    0  501 -0.00000000000E+00  0.00000000000E+00  0.91120813081E+03  0.91120813081E+03  0.00000000000E+00 0.  1.
          1   -1    0    0  501    0  0.00000000000E+00 -0.00000000000E+00 -0.21463110626E+04  0.21463110626E+04  0.00000000000E+00 0. -1.
        -24    2    1    2    0    0 -0.48966384226E+03 -0.11348484120E+04 -0.11348609983E+04  0.16799128770E+04  0.80908541014E+02 0.  0.
    5000000    2    1    2    0    0  0.48966384226E+03  0.11348484120E+04 -0.10024193346E+03  0.13776063164E+04  0.60008259522E+03 0.  0.
        -24    2    4    4    0    0  0.20194039841E+03  0.97549654773E+03 -0.21088002896E+03  0.10214001856E+04  0.80090657534E+02 0.  0.
         24    2    4    4    0    0  0.28772344385E+03  0.15935186431E+03  0.11063809550E+03  0.35620613080E+03  0.80400389598E+02 0.  0.
         11    1    5    5    0    0  0.44558819602E+02  0.15426102006E+03 -0.61717157096E+02  0.17202022612E+03  0.00000000000E+00 0. -1.
        -12    1    5    5    0    0  0.15738157881E+03  0.82123552767E+03 -0.14916287186E+03  0.84937995950E+03  0.00000000000E+00 0.  1.
         13    1    3    3    0    0 -0.35673933061E+03 -0.75583234781E+03 -0.73168159803E+03  0.11108120673E+04  0.00000000000E+00 0. -1.
        -14    1    3    3    0    0 -0.13292451165E+03 -0.37901606423E+03 -0.40317940028E+03  0.56910080966E+03  0.00000000000E+00 0.  1.
          4    1    6    6  502    0  0.20777330724E+03  0.86320518333E+02  0.10358742230E+03  0.24769201268E+03  0.00000000000E+00 0. -1.
         -3    1    6    6    0  502  0.79950136605E+02  0.73031345980E+02  0.70506731916E+01  0.10851411812E+03  0.00000000000E+00 0.  1.
<mgrwt>
<rscale>  0 0.12837314E+04</rscale>
<asrwt>0</asrwt>
<pdfrwt beam="1">  1        1 0.33020170E+00 0.12837314E+04</pdfrwt>
<pdfrwt beam="2">  1       -2 0.14018587E+00 0.12837314E+04</pdfrwt>
<totfact> 0.72155559E-01</totfact>
</mgrwt>
</event>
<event>
12    3  0.2269558E-007  0.7313463E+03  0.7818608E-02  0.9665078E-01
         -2   -1    0    0    0  501 -0.00000000000E+00  0.00000000000E+00  0.73873903591E+03  0.73873903591E+03  0.00000000000E+00 0.  1.
          1   -1    0    0  501    0  0.00000000000E+00 -0.00000000000E+00 -0.20098497680E+04  0.20098497680E+04  0.00000000000E+00 0. -1.
        -24    2    1    2    0    0  0.58085424907E+02 -0.65448822424E+03 -0.16527696032E+04  0.17803949958E+04  0.80188698347E+02 0.  0.
    5000000    2    1    2    0    0 -0.58085424907E+02  0.65448822424E+03  0.38165887115E+03  0.96819380813E+03  0.60000583657E+03 0.  0.
        -24    2    4    4    0    0  0.18579197434E+03  0.34402844839E+03 -0.10915104401E+02  0.40565232333E+03  0.10751947214E+03 0.  0.
         24    2    4    4    0    0 -0.24387739924E+03  0.31045977585E+03  0.39257397555E+03  0.56254148480E+03  0.80480665734E+02 0.  0.
         11    1    5    5    0    0  0.32551734691E+02  0.90856160453E+01 -0.15754026263E+02  0.37287440161E+02  0.00000000000E+00 0. -1.
        -12    1    5    5    0    0  0.15324023965E+03  0.33494283235E+03  0.48389218620E+01  0.36836488317E+03  0.00000000000E+00 0.  1.
         11    1    3    3    0    0  0.51086680813E+02 -0.21927342971E+03 -0.50750703710E+03  0.55520633880E+03  0.00000000000E+00 0. -1.
        -12    1    3    3    0    0  0.69987440936E+01 -0.43521479453E+03 -0.11452625661E+04  0.12251886570E+04  0.00000000000E+00 0.  1.
          2    1    6    6  502    0 -0.95057195163E+02  0.17380974957E+03  0.22728286683E+03  0.30150157703E+03  0.00000000000E+00 0. -1.
         -1    1    6    6    0  502 -0.14882020408E+03  0.13665002628E+03  0.16529110872E+03  0.26103990776E+03  0.00000000000E+00 0.  1.
<mgrwt>
<rscale>  0 0.73134628E+03</rscale>
<asrwt>0</asrwt>
<pdfrwt beam="1">  1        1 0.30920766E+00 0.73134628E+03</pdfrwt>
<pdfrwt beam="2">  1       -2 0.11365216E+00 0.73134628E+03</pdfrwt>
<totfact> 0.16391926E+00</totfact>
</mgrwt>
</event>
<event>
12    3  0.2269558E-007  0.5649423E+03  0.7818608E-02  0.9980933E-01
          1   -1    0    0  501    0  0.00000000000E+00  0.00000000000E+00  0.85937521243E+03  0.85937521243E+03  0.00000000000E+00 0. -1.
         -2   -1    0    0    0  501 -0.00000000000E+00 -0.00000000000E+00 -0.48869122380E+03  0.48869122380E+03  0.00000000000E+00 0.  1.
        -24    2    1    2    0    0 -0.45012197643E+03  0.22962514450E+03  0.15393649598E+03  0.53432041908E+03  0.80401273625E+02 0.  0.
    5000000    2    1    2    0    0  0.45012197643E+03 -0.22962514450E+03  0.21674749265E+03  0.81374601715E+03  0.59988799305E+03 0.  0.
        -24    2    4    4    0    0  0.10448504670E+03 -0.23823554588E+03  0.34211187395E+03  0.43743606020E+03  0.81464545440E+02 0.  0.
         24    2    4    4    0    0  0.34563692973E+03  0.86104013826E+01 -0.12536438130E+03  0.37630995695E+03  0.79711538669E+02 0.  0.
         11    1    5    5    0    0  0.34918298048E+02 -0.14195445633E+02  0.54884051796E+02  0.66581208737E+02  0.00000000000E+00 0. -1.
        -12    1    5    5    0    0  0.69566748656E+02 -0.22404010025E+03  0.28722782215E+03  0.37085485147E+03  0.00000000000E+00 0.  1.
         13    1    3    3    0    0 -0.15978253506E+03  0.39459190359E+02  0.51031326417E+02  0.17231274616E+03  0.00000000000E+00 0. -1.
        -14    1    3    3    0    0 -0.29033944137E+03  0.19016595414E+03  0.10290516957E+03  0.36200767292E+03  0.00000000000E+00 0.  1.
          4    1    6    6  502    0  0.18026071437E+03 -0.13647029423E+01 -0.23419256863E+02  0.18178077223E+03  0.00000000000E+00 0. -1.
         -3    1    6    6    0  502  0.16537621535E+03  0.99751043249E+01 -0.10194512443E+03  0.19452918472E+03  0.00000000000E+00 0.  1.
<mgrwt>
<rscale>  0 0.56494235E+03</rscale>
<asrwt>0</asrwt>
<pdfrwt beam="1">  1        1 0.13221157E+00 0.56494235E+03</pdfrwt>
<pdfrwt beam="2">  1       -2 0.75183265E-01 0.56494235E+03</pdfrwt>
<totfact> 0.28517638E+01</totfact>
</mgrwt>
</event>
<event>
12    3  0.2269558E-007  0.5623682E+03  0.7818608E-02  0.9986710E-01
          1   -1    0    0  501    0  0.00000000000E+00  0.00000000000E+00  0.19840734915E+04  0.19840734915E+04  0.00000000000E+00 0. -1.
         -2   -1    0    0    0  501 -0.00000000000E+00 -0.00000000000E+00 -0.17056276479E+03  0.17056276479E+03  0.00000000000E+00 0.  1.
        -24    2    1    2    0    0  0.17332033445E+03 -0.36983274678E+03  0.47087191325E+03  0.62825538217E+03  0.78538319341E+02 0.  0.
    5000000    2    1    2    0    0 -0.17332033445E+03  0.36983274678E+03  0.13426388134E+04  0.15263808741E+04  0.60028609056E+03 0.  0.
        -24    2    4    4    0    0 -0.21231940606E+03 -0.95526156645E+02  0.55909372122E+03  0.61078213235E+03  0.79146998018E+02 0.  0.
         24    2    4    4    0    0  0.38999071603E+02  0.46535890343E+03  0.78354509222E+03  0.91559874175E+03  0.79361878552E+02 0.  0.
         11    1    5    5    0    0 -0.10925571758E+03 -0.10039008412E+02  0.21097212679E+03  0.23779577750E+03  0.00000000000E+00 0. -1.
        -12    1    5    5    0    0 -0.10306368848E+03 -0.85487148233E+02  0.34812159443E+03  0.37298635485E+03  0.00000000000E+00 0.  1.
         11    1    3    3    0    0  0.12332348437E+03 -0.30796239395E+03  0.41377420286E+03  0.53033820232E+03  0.00000000000E+00 0. -1.
        -12    1    3    3    0    0  0.49996850084E+02 -0.61870352830E+02  0.57097710395E+02  0.97917179852E+02  0.00000000000E+00 0.  1.
          4    1    6    6  502    0 -0.59967764808E+01  0.23741958540E+03  0.33773956130E+03  0.41288258879E+03  0.00000000000E+00 0. -1.
         -3    1    6    6    0  502  0.44995848084E+02  0.22793931803E+03  0.44580553092E+03  0.50271615296E+03  0.00000000000E+00 0.  1.
<mgrwt>
<rscale>  0 0.56236820E+03</rscale>
<asrwt>0</asrwt>
<pdfrwt beam="1">  1        1 0.30524206E+00 0.56236820E+03</pdfrwt>
<pdfrwt beam="2">  1       -2 0.26240427E-01 0.56236820E+03</pdfrwt>
<totfact> 0.37382026E+01</totfact>
</mgrwt>
</event>
<event>
12    3  0.2269558E-007  0.1673130E+04  0.7818608E-02  0.8776840E-01
          1   -1    0    0  501    0  0.00000000000E+00  0.00000000000E+00  0.16126630620E+04  0.16126630620E+04  0.00000000000E+00 0. -1.
         -2   -1    0    0    0  501 -0.00000000000E+00 -0.00000000000E+00 -0.19782011414E+04  0.19782011414E+04  0.00000000000E+00 0.  1.
        -24    2    1    2    0    0 -0.90409542926E+03 -0.13777529285E+04 -0.72315975533E+03  0.18012479587E+04  0.77087611462E+02 0.  0.
    5000000    2    1    2    0    0  0.90409542926E+03  0.13777529285E+04  0.35762167596E+03  0.17896162447E+04  0.59936746903E+03 0.  0.
        -24    2    4    4    0    0  0.30111783730E+02  0.24204047322E+00 -0.58858557247E+02  0.10402728832E+03  0.80315433455E+02 0.  0.
         24    2    4    4    0    0  0.87398364553E+03  0.13775108880E+04  0.41648023321E+03  0.16855889564E+04  0.79816576508E+02 0.  0.
         11    1    3    3    0    0 -0.26642370984E+03 -0.38449834040E+03 -0.24125805416E+03  0.52633260932E+03  0.00000000000E+00 0. -1.
        -12    1    3    3    0    0 -0.63767171943E+03 -0.99325458812E+03 -0.48190170116E+03  0.12749153494E+04  0.00000000000E+00 0.  1.
         13    1    5    5    0    0 -0.16213246328E+02 -0.76311356141E+01 -0.53872060083E+02  0.56774135351E+02  0.00000000000E+00 0. -1.
        -14    1    5    5    0    0  0.46325030058E+02  0.78731760874E+01 -0.49864971640E+01  0.47253152969E+02  0.00000000000E+00 0.  1.
          4    1    6    6  502    0  0.84786975943E+03  0.13566837779E+04  0.41042456594E+03  0.16516423119E+04  0.00000000000E+00 0. -1.
         -3    1    6    6    0  502  0.26113886107E+02  0.20827110124E+02  0.60556672725E+01  0.33946644457E+02  0.00000000000E+00 0.  1.
<mgrwt>
<rscale>  0 0.16731297E+04</rscale>
<asrwt>0</asrwt>
<pdfrwt beam="1">  1        1 0.24810201E+00 0.16731297E+04</pdfrwt>
<pdfrwt beam="2">  1       -2 0.30433864E+00 0.16731297E+04</pdfrwt>
<totfact> 0.13252472E-01</totfact>
</mgrwt>
</event>
<event>
12    3  0.2269558E-007  0.3681211E+03  0.7818608E-02  0.1055414E+00
         -2   -1    0    0    0  501 -0.00000000000E+00  0.00000000000E+00  0.10250769193E+03  0.10250769193E+03  0.00000000000E+00 0.  1.
          1   -1    0    0  501    0  0.00000000000E+00 -0.00000000000E+00 -0.15055771194E+04  0.15055771194E+04  0.00000000000E+00 0. -1.
        -24    2    1    2    0    0 -0.24058298420E+02  0.12847169759E+03 -0.16108305965E+03  0.22266820120E+03  0.80929579974E+02 0.  0.
    5000000    2    1    2    0    0  0.24058298420E+02 -0.12847169759E+03 -0.12419863678E+04  0.13854166101E+04  0.59980435725E+03 0.  0.
        -24    2    4    4    0    0  0.73214080329E+02  0.22400711152E+03 -0.52271364029E+03  0.57890553059E+03  0.79765757240E+02 0.  0.
         24    2    4    4    0    0 -0.49155781908E+02 -0.35247880911E+03 -0.71927272754E+03  0.80651107955E+03  0.80307304102E+02 0.  0.
         13    1    5    5    0    0  0.33421359852E+02  0.14721577769E+03 -0.24251667446E+03  0.28566380570E+03  0.00000000000E+00 0. -1.
        -14    1    5    5    0    0  0.39792720477E+02  0.76791333829E+02 -0.28019696583E+03  0.29324172489E+03  0.00000000000E+00 0.  1.
         13    1    3    3    0    0 -0.73780740591E+01  0.10828104983E+03 -0.16363363676E+03  0.19635475244E+03  0.00000000000E+00 0. -1.
        -14    1    3    3    0    0 -0.16680224361E+02  0.20190647762E+02  0.25505771093E+01  0.26313448755E+02  0.00000000000E+00 0.  1.
          4    1    6    6  502    0 -0.70114861654E+02 -0.27677289894E+03 -0.58476349647E+03  0.65074394213E+03  0.00000000000E+00 0. -1.
         -3    1    6    6    0  502  0.20959079746E+02 -0.75705910171E+02 -0.13450923107E+03  0.15576713742E+03  0.00000000000E+00 0.  1.
<mgrwt>
<rscale>  0 0.36812106E+03</rscale>
<asrwt>0</asrwt>
<pdfrwt beam="1">  1        1 0.23162727E+00 0.36812106E+03</pdfrwt>
<pdfrwt beam="2">  1       -2 0.15770413E-01 0.36812106E+03</pdfrwt>
<totfact> 0.19425223E+02</totfact>
</mgrwt>
</event>
<event>
12    3  0.2269558E-007  0.4851480E+03  0.7818608E-02  0.1017730E+00
         -4   -1    0    0    0  501 -0.00000000000E+00  0.00000000000E+00  0.10172254901E+04  0.10172254901E+04  0.00000000000E+00 0.  1.
          3   -1    0    0  501    0  0.00000000000E+00 -0.00000000000E+00 -0.36986362539E+03  0.36986362539E+03  0.00000000000E+00 0. -1.
        -24    2    1    2    0    0 -0.13532079037E+03  0.41616297234E+03  0.41645345303E+03  0.60930382615E+03  0.79462809972E+02 0.  0.
    5000000    2    1    2    0    0  0.13532079037E+03 -0.41616297234E+03  0.23090841170E+03  0.77778528936E+03  0.60010659545E+03 0.  0.
        -24    2    4    4    0    0 -0.71331611434E+02 -0.18941182350E+03 -0.16338205354E+03  0.27195816253E+03  0.79388343439E+02 0.  0.
         24    2    4    4    0    0  0.20665240180E+03 -0.22675114884E+03  0.39429046524E+03  0.50582712683E+03  0.79213714638E+02 0.  0.
         13    1    3    3    0    0 -0.66434665537E+02  0.24986831602E+03  0.19451452467E+03  0.32354851328E+03  0.00000000000E+00 0. -1.
        -14    1    3    3    0    0 -0.68886124833E+02  0.16629465632E+03  0.22193892836E+03  0.28575531287E+03  0.00000000000E+00 0.  1.
         13    1    5    5    0    0 -0.56613244393E+01 -0.11970943132E+03 -0.10802872277E+03  0.16134622241E+03  0.00000000000E+00 0. -1.
        -14    1    5    5    0    0 -0.65670286995E+02 -0.69702392174E+02 -0.55353330773E+02  0.11061194012E+03  0.00000000000E+00 0.  1.
          4    1    6    6  502    0  0.13322135862E+03 -0.89540701279E+02  0.21714021999E+03  0.27002841094E+03  0.00000000000E+00 0. -1.
         -3    1    6    6    0  502  0.73431043181E+02 -0.13721044756E+03  0.17715024526E+03  0.23579871589E+03  0.00000000000E+00 0.  1.
<mgrwt>
<rscale>  0 0.48514798E+03</rscale>
<asrwt>0</asrwt>
<pdfrwt beam="1">  1        3 0.56902097E-01 0.48514798E+03</pdfrwt>
<pdfrwt beam="2">  1       -4 0.15649623E+00 0.48514798E+03</pdfrwt>
<totfact> 0.18340565E+00</totfact>
</mgrwt>
</event>
<event>
12    3  0.2269558E-007  0.4480158E+03  0.7818608E-02  0.1028315E+00
          1   -1    0    0  501    0  0.00000000000E+00  0.00000000000E+00  0.21640619944E+04  0.21640619944E+04  0.00000000000E+00 0. -1.
         -2   -1    0    0    0  501 -0.00000000000E+00 -0.00000000000E+00 -0.12723827439E+03  0.12723827439E+03  0.00000000000E+00 0.  1.
        -24    2    1    2    0    0 -0.31438562525E+03 -0.14286775274E+03  0.70342724202E+03  0.78891443988E+03  0.91250164348E+02 0.  0.
    5000000    2    1    2    0    0  0.31438562525E+03  0.14286775274E+03  0.13333964780E+04  0.15023858289E+04  0.59997291210E+03 0.  0.
        -24    2    4    4    0    0  0.22797667190E+03  0.27984932513E+03  0.37416475262E+03  0.52588182219E+03  0.79141778513E+02 0.  0.
         24    2    4    4    0    0  0.86408953348E+02 -0.13698157240E+03  0.95923172535E+03  0.97650400670E+03  0.84877050927E+02 0.  0.
         11    1    3    3    0    0 -0.11377852789E+03 -0.19698974498E+02  0.30521067720E+03  0.32632370506E+03  0.00000000000E+00 0. -1.
        -12    1    3    3    0    0 -0.20060709735E+03 -0.12316877824E+03  0.39821656482E+03  0.46259073481E+03  0.00000000000E+00 0.  1.
         13    1    5    5    0    0  0.14910641708E+03  0.15745427849E+03  0.17222438338E+03  0.27692203173E+03  0.00000000000E+00 0. -1.
        -14    1    5    5    0    0  0.78870254815E+02  0.12239504665E+03  0.20194036924E+03  0.24895979046E+03  0.00000000000E+00 0.  1.
          4    1    6    6  502    0 -0.13047605952E+02  0.45287399698E+00  0.79411407300E+02  0.80477429913E+02  0.00000000000E+00 0. -1.
         -3    1    6    6    0  502  0.99456559300E+02 -0.13743444639E+03  0.87982031805E+03  0.89602657678E+03  0.00000000000E+00 0.  1.
<mgrwt>
<rscale>  0 0.44801575E+03</rscale>
<asrwt>0</asrwt>
<pdfrwt beam="1">  1        1 0.33293259E+00 0.44801575E+03</pdfrwt>
<pdfrwt beam="2">  1       -2 0.19575121E-01 0.44801575E+03</pdfrwt>
<totfact> 0.48678516E+01</totfact>
</mgrwt>
</event>
<event>
12    3  0.2269558E-007  0.4664802E+03  0.7818608E-02  0.1022918E+00
          1   -1    0    0  501    0  0.00000000000E+00  0.00000000000E+00  0.54218534413E+03  0.54218534413E+03  0.00000000000E+00 0. -1.
         -2   -1    0    0    0  501 -0.00000000000E+00 -0.00000000000E+00 -0.92327958440E+03  0.92327958440E+03  0.00000000000E+00 0.  1.
        -24    2    1    2    0    0 -0.22291552043E+02  0.45531645010E+03 -0.52395419112E+03  0.69850894336E+03  0.74677751244E+02 0.  0.
    5000000    2    1    2    0    0  0.22291552043E+02 -0.45531645010E+03  0.14285995086E+03  0.76695598517E+03  0.60000211217E+03 0.  0.
        -24    2    4    4    0    0  0.59578480383E+02 -0.32502796045E+03 -0.19705549273E+03  0.39285620247E+03  0.79450350563E+02 0.  0.
         24    2    4    4    0    0 -0.37286928340E+02 -0.13028848964E+03  0.33991544358E+03  0.37409978270E+03  0.77735018290E+02 0.  0.
         11    1    3    3    0    0 -0.35489246692E+02  0.33434833545E+03 -0.42333304515E+03  0.54060999174E+03  0.00000000000E+00 0. -1.
        -12    1    3    3    0    0  0.13197694649E+02  0.12096811465E+03 -0.10062114597E+03  0.15789895162E+03  0.00000000000E+00 0.  1.
         11    1    5    5    0    0 -0.32094964579E+01 -0.15757187873E+03 -0.64709277210E+02  0.17037161850E+03  0.00000000000E+00 0. -1.
        -12    1    5    5    0    0  0.62787976841E+02 -0.16745608172E+03 -0.13234621552E+03  0.22248458397E+03  0.00000000000E+00 0.  1.
          4    1    6    6  502    0 -0.52849785886E+01 -0.71276708228E+02  0.87867333128E+02  0.11326503594E+03  0.00000000000E+00 0. -1.
         -3    1    6    6    0  502 -0.32001949751E+02 -0.59011781416E+02  0.25204811045E+03  0.26083474676E+03  0.00000000000E+00 0.  1.
<mgrwt>
<rscale>  0 0.46648017E+03</rscale>
<asrwt>0</asrwt>
<pdfrwt beam="1">  1        1 0.83413131E-01 0.46648017E+03</pdfrwt>
<pdfrwt beam="2">  1       -2 0.14204301E+00 0.46648017E+03</pdfrwt>
<totfact> 0.12652137E+01</totfact>
</mgrwt>
</event>
<event>
12    3  0.2269558E-007  0.7574668E+03  0.7818608E-02  0.9623708E-01
         -2   -1    0    0    0  501 -0.00000000000E+00  0.00000000000E+00  0.17750675670E+03  0.17750675670E+03  0.00000000000E+00 0.  1.
          1   -1    0    0  501    0  0.00000000000E+00 -0.00000000000E+00 -0.35678890632E+04  0.35678890632E+04  0.00000000000E+00 0. -1.
        -24    2    1    2    0    0 -0.52100795123E+03 -0.41682966551E+03 -0.17674531723E+04  0.18908851950E+04  0.79748662757E+02 0.  0.
    5000000    2    1    2    0    0  0.52100795123E+03  0.41682966551E+03 -0.16229291342E+04  0.18545106249E+04  0.60009534895E+03 0.  0.
        -24    2    4    4    0    0 -0.74703072865E+02  0.16242270846E+03 -0.68215252312E+03  0.70951377676E+03  0.78205174330E+02 0.  0.
         24    2    4    4    0    0  0.59571102409E+03  0.25440695705E+03 -0.94077661108E+03  0.11449968481E+04  0.79766071791E+02 0.  0.
         11    1    3    3    0    0 -0.20689366254E+03 -0.19486533006E+03 -0.84257365528E+03  0.88921754877E+03  0.00000000000E+00 0. -1.
        -12    1    3    3    0    0 -0.31411428868E+03 -0.22196433544E+03 -0.92487951704E+03  0.10016676463E+04  0.00000000000E+00 0.  1.
         11    1    5    5    0    0 -0.90024133239E+02  0.13250278904E+03 -0.52935420292E+03  0.55306166548E+03  0.00000000000E+00 0. -1.
        -12    1    5    5    0    0  0.15321060374E+02  0.29919919418E+02 -0.15279832020E+03  0.15645211128E+03  0.00000000000E+00 0.  1.
          2    1    6    6  502    0  0.16685305689E+03  0.10965942305E+03 -0.27053292721E+03  0.33623384179E+03  0.00000000000E+00 0. -1.
         -1    1    6    6    0  502  0.42885796721E+03  0.14474753399E+03 -0.67024368387E+03  0.80876300632E+03  0.00000000000E+00 0.  1.
<mgrwt>
<rscale>  0 0.75746682E+03</rscale>
<asrwt>0</asrwt>
<pdfrwt beam="1">  1        1 0.54890594E+00 0.75746682E+03</pdfrwt>
<pdfrwt beam="2">  1       -2 0.27308735E-01 0.75746682E+03</pdfrwt>
<totfact> 0.25590417E+00</totfact>
</mgrwt>
</event>
<event>
12    3  0.2269558E-007  0.8083454E+03  0.7818608E-02  0.9548015E-01
         -2   -1    0    0    0  501 -0.00000000000E+00  0.00000000000E+00  0.63101443131E+03  0.63101443131E+03  0.00000000000E+00 0.  1.
          1   -1    0    0  501    0  0.00000000000E+00 -0.00000000000E+00 -0.14742404637E+04  0.14742404637E+04  0.00000000000E+00 0. -1.
        -24    2    1    2    0    0  0.45296466841E+03 -0.57313753409E+03  0.13251311949E+03  0.74664994968E+03  0.79137833583E+02 0.  0.
    5000000    2    1    2    0    0 -0.45296466841E+03  0.57313753409E+03 -0.97573915189E+03  0.13586049453E+04  0.60006406424E+03 0.  0.
        -24    2    4    4    0    0 -0.22522957855E+03 -0.26939911735E+02 -0.79537603976E+02  0.25349100389E+03  0.80481902988E+02 0.  0.
         24    2    4    4    0    0 -0.22773508986E+03  0.60007744582E+03 -0.89620154791E+03  0.11051139415E+04  0.78379825125E+02 0.  0.
         11    1    3    3    0    0  0.34536274570E+03 -0.48274173504E+03  0.94218362178E+02  0.60099260281E+03  0.00000000000E+00 0. -1.
        -12    1    3    3    0    0  0.10760192272E+03 -0.90395799050E+02  0.38294757315E+02  0.14565734687E+03  0.00000000000E+00 0.  1.
         13    1    5    5    0    0 -0.19848313647E+03 -0.48835081234E+02 -0.78352281945E+02  0.21890523225E+03  0.00000000000E+00 0. -1.
        -14    1    5    5    0    0 -0.26746442082E+02  0.21895169499E+02 -0.11853220316E+01  0.34585771637E+02  0.00000000000E+00 0.  1.
          4    1    6    6  502    0 -0.15577839198E+03  0.46766235109E+03 -0.72911185531E+03  0.88010174389E+03  0.00000000000E+00 0. -1.
         -3    1    6    6    0  502 -0.71956697885E+02  0.13241509473E+03 -0.16708969260E+03  0.22501219757E+03  0.00000000000E+00 0.  1.
<mgrwt>
<rscale>  0 0.80834544E+03</rscale>
<asrwt>0</asrwt>
<pdfrwt beam="1">  1        1 0.22680622E+00 0.80834544E+03</pdfrwt>
<pdfrwt beam="2">  1       -2 0.97079145E-01 0.80834544E+03</pdfrwt>
<totfact> 0.54264423E+00</totfact>
</mgrwt>
</event>
<event>
12    3  0.2269558E-007  0.4830851E+03  0.7818608E-02  0.1018291E+00
          1   -1    0    0  501    0  0.00000000000E+00  0.00000000000E+00  0.91603022207E+03  0.91603022207E+03  0.00000000000E+00 0. -1.
         -2   -1    0    0    0  501 -0.00000000000E+00 -0.00000000000E+00 -0.41360412118E+03  0.41360412118E+03  0.00000000000E+00 0.  1.
        -24    2    1    2    0    0  0.32407251482E+03 -0.58472556261E+01  0.55282404628E+03  0.64577366579E+03  0.79699535867E+02 0.  0.
    5000000    2    1    2    0    0 -0.32407251482E+03  0.58472556261E+01 -0.50397945396E+02  0.68386067746E+03  0.60005690398E+03 0.  0.
        -24    2    4    4    0    0 -0.53193627595E+02 -0.25327527833E+03  0.74566797203E+02  0.28084210836E+03  0.79587398207E+02 0.  0.
         24    2    4    4    0    0 -0.27087888723E+03  0.25912253395E+03 -0.12496474260E+03  0.40301856910E+03  0.79296412287E+02 0.  0.
         11    1    5    5    0    0 -0.15321942516E+02 -0.10790715847E+03 -0.82576442344E+01  0.10930190053E+03  0.00000000000E+00 0. -1.
        -12    1    5    5    0    0 -0.37871685078E+02 -0.14536811985E+03  0.82824441437E+02  0.17154020782E+03  0.00000000000E+00 0.  1.
         11    1    3    3    0    0  0.90463978397E+02 -0.12202335346E+02  0.22820778772E+03  0.24578735271E+03  0.00000000000E+00 0. -1.
        -12    1    3    3    0    0  0.23360853643E+03  0.63550797196E+01  0.32461625856E+03  0.39998631308E+03  0.00000000000E+00 0.  1.
          2    1    6    6  502    0 -0.49182782580E+02  0.92105415929E+02 -0.48386607621E+02  0.11508091737E+03  0.00000000000E+00 0. -1.
         -1    1    6    6    0  502 -0.22169610465E+03  0.16701711802E+03 -0.76578134977E+02  0.28793765173E+03  0.00000000000E+00 0.  1.
<mgrwt>
<rscale>  0 0.48308510E+03</rscale>
<asrwt>0</asrwt>
<pdfrwt beam="1">  1        1 0.14092773E+00 0.48308510E+03</pdfrwt>
<pdfrwt beam="2">  1       -2 0.63631404E-01 0.48308510E+03</pdfrwt>
<totfact> 0.37222797E+01</totfact>
</mgrwt>
</event>
<event>
12    3  0.2269558E-007  0.7591949E+03  0.7818608E-02  0.9621034E-01
          1   -1    0    0  501    0  0.00000000000E+00  0.00000000000E+00  0.23469472504E+04  0.23469472504E+04  0.00000000000E+00 0. -1.
         -2   -1    0    0    0  501 -0.00000000000E+00 -0.00000000000E+00 -0.28614721662E+03  0.28614721662E+03  0.00000000000E+00 0.  1.
        -24    2    1    2    0    0 -0.24779571668E+03 -0.62105300260E+03  0.12639607405E+04  0.14321833958E+04  0.80268153571E+02 0.  0.
    5000000    2    1    2    0    0  0.24779571668E+03  0.62105300260E+03  0.79683929323E+03  0.12009110712E+04  0.60010415127E+03 0.  0.
        -24    2    4    4    0    0  0.25171926834E+03  0.69671960591E+03  0.53292827605E+03  0.91595510005E+03  0.78615511035E+02 0.  0.
         24    2    4    4    0    0 -0.39235516557E+01 -0.75666603315E+02  0.26391101718E+03  0.28495597112E+03  0.76223692987E+02 0.  0.
         13    1    5    5    0    0  0.16769052929E+03  0.42214035018E+03  0.28223297659E+03  0.53476914827E+03  0.00000000000E+00 0. -1.
        -14    1    5    5    0    0  0.84028739055E+02  0.27457925574E+03  0.25069529946E+03  0.38118595179E+03  0.00000000000E+00 0.  1.
         13    1    3    3    0    0 -0.13189614341E+03 -0.22723811598E+03  0.47611737123E+03  0.54380281829E+03  0.00000000000E+00 0. -1.
        -14    1    3    3    0    0 -0.11589957327E+03 -0.39381488662E+03  0.78784336931E+03  0.88838057756E+03  0.00000000000E+00 0.  1.
          4    1    6    6  502    0 -0.15609342669E+02  0.91792275881E+01  0.22996505914E+02  0.29270276424E+02  0.00000000000E+00 0. -1.
         -3    1    6    6    0  502  0.11685791014E+02 -0.84845830903E+02  0.24091451127E+03  0.25568569469E+03  0.00000000000E+00 0.  1.
<mgrwt>
<rscale>  0 0.75919487E+03</rscale>
<asrwt>0</asrwt>
<pdfrwt beam="1">  1        1 0.36106880E+00 0.75919487E+03</pdfrwt>
<pdfrwt beam="2">  1       -2 0.44022650E-01 0.75919487E+03</pdfrwt>
<totfact> 0.77790301E+00</totfact>
</mgrwt>
</event>
<event>
12    3  0.2269558E-007  0.8738407E+03  0.7818608E-02  0.9458886E-01
         -2   -1    0    0    0  501 -0.00000000000E+00  0.00000000000E+00  0.81650008709E+03  0.81650008709E+03  0.00000000000E+00 0.  1.
          1   -1    0    0  501    0  0.00000000000E+00 -0.00000000000E+00 -0.12560422974E+04  0.12560422974E+04  0.00000000000E+00 0. -1.
        -24    2    1    2    0    0  0.41593132803E+03 -0.75858079096E+03 -0.52683350600E+03  0.10161079916E+04  0.80487399303E+02 0.  0.
    5000000    2    1    2    0    0 -0.41593132803E+03  0.75858079096E+03  0.87291295675E+02  0.10564343929E+04  0.59999180847E+03 0.  0.
        -24    2    4    4    0    0 -0.79853687457E+02  0.22574140719E+03  0.29498530036E+03  0.38840214421E+03  0.80648024632E+02 0.  0.
         24    2    4    4    0    0 -0.33607764057E+03  0.53283938377E+03 -0.20769400469E+03  0.66803224873E+03  0.79147308032E+02 0.  0.
         13    1    3    3    0    0  0.21386752505E+03 -0.36679171820E+03 -0.21331195965E+03  0.47516047283E+03  0.00000000000E+00 0. -1.
        -14    1    3    3    0    0  0.20206380298E+03 -0.39178907276E+03 -0.31352154635E+03  0.54094751875E+03  0.00000000000E+00 0.  1.
         13    1    5    5    0    0 -0.95666129716E+02  0.19084460830E+03  0.26102041473E+03  0.33720220906E+03  0.00000000000E+00 0. -1.
        -14    1    5    5    0    0  0.15812442259E+02  0.34896798895E+02  0.33964885634E+02  0.51199935151E+02  0.00000000000E+00 0.  1.
          4    1    6    6  502    0 -0.29953557904E+03  0.45904960149E+03 -0.15266435190E+03  0.56899429178E+03  0.00000000000E+00 0. -1.
         -3    1    6    6    0  502 -0.36542061534E+02  0.73789782273E+02 -0.55029652792E+02  0.99037956943E+02  0.00000000000E+00 0.  1.
<mgrwt>
<rscale>  0 0.87384072E+03</rscale>
<asrwt>0</asrwt>
<pdfrwt beam="1">  1        1 0.19323728E+00 0.87384072E+03</pdfrwt>
<pdfrwt beam="2">  1       -2 0.12561540E+00 0.87384072E+03</pdfrwt>
<totfact> 0.40901895E+00</totfact>
</mgrwt>
</event>
<event>
12    3  0.2269558E-007  0.1091015E+04  0.7818608E-02  0.9213994E-01
          3   -1    0    0  501    0  0.00000000000E+00  0.00000000000E+00  0.83124273583E+03  0.83124273583E+03  0.00000000000E+00 0. -1.
         -4   -1    0    0    0  501 -0.00000000000E+00 -0.00000000000E+00 -0.16958347465E+04  0.16958347465E+04  0.00000000000E+00 0.  1.
        -24    2    1    2    0    0 -0.83660221378E+03  0.56523754664E+03  0.85442928659E+02  0.10164836740E+04  0.80881501570E+02 0.  0.
    5000000    2    1    2    0    0  0.83660221378E+03 -0.56523754664E+03 -0.95003493937E+03  0.15105938083E+04  0.59994209679E+03 0.  0.
        -24    2    4    4    0    0 -0.24146957339E+02  0.70712716083E+02 -0.71325411188E+02  0.12346783402E+03  0.67628603348E+02 0.  0.
         24    2    4    4    0    0  0.86074917112E+03 -0.63595026272E+03 -0.87870952818E+03  0.13871259743E+04  0.81646564224E+02 0.  0.
         11    1    5    5    0    0 -0.34201635840E+02  0.89340345281E+01 -0.40307562404E+02  0.53612204339E+02  0.00000000000E+00 0. -1.
        -12    1    5    5    0    0  0.10054678501E+02  0.61778681555E+02 -0.31017848784E+02  0.69855629677E+02  0.00000000000E+00 0.  1.
         13    1    3    3    0    0 -0.40226282392E+03  0.31096871391E+03  0.67130867113E+02  0.51285814204E+03  0.00000000000E+00 0. -1.
        -14    1    3    3    0    0 -0.43433938986E+03  0.25426883273E+03  0.18312061546E+02  0.50362553200E+03  0.00000000000E+00 0.  1.
          2    1    6    6  502    0  0.42979699809E+03 -0.35973285349E+03 -0.48847398149E+03  0.74346487210E+03  0.00000000000E+00 0. -1.
         -1    1    6    6    0  502  0.43095217303E+03 -0.27621740923E+03 -0.39023554669E+03  0.64366110221E+03  0.00000000000E+00 0.  1.
<mgrwt>
<rscale>  0 0.10910148E+04</rscale>
<asrwt>0</asrwt>
<pdfrwt beam="1">  1        3 0.12788350E+00 0.10910148E+04</pdfrwt>
<pdfrwt beam="2">  1       -4 0.26089765E+00 0.10910148E+04</pdfrwt>
<totfact> 0.57681136E-02</totfact>
</mgrwt>
</event>
<event>
12    3  0.2269558E-007  0.4322336E+03  0.7818608E-02  0.1033157E+00
         -2   -1    0    0    0  501 -0.00000000000E+00  0.00000000000E+00  0.13504829564E+04  0.13504829564E+04  0.00000000000E+00 0.  1.
          1   -1    0    0  501    0  0.00000000000E+00 -0.00000000000E+00 -0.25111047076E+03  0.25111047076E+03  0.00000000000E+00 0. -1.
        -24    2    1    2    0    0  0.33684345023E+03  0.19584491302E+03  0.63366908019E+03  0.74797596731E+03  0.78184426574E+02 0.  0.
    5000000    2    1    2    0    0 -0.33684345023E+03 -0.19584491302E+03  0.46570340548E+03  0.85361745989E+03  0.59997030429E+03 0.  0.
        -24    2    4    4    0    0  0.22288937336E+02 -0.16532006697E+02  0.43359293243E+03  0.44177114385E+03  0.79930022563E+02 0.  0.
         24    2    4    4    0    0 -0.35913238756E+03 -0.17931290632E+03  0.32110473048E+02  0.41184631604E+03  0.86354590984E+02 0.  0.
         13    1    3    3    0    0  0.29058964274E+03  0.17066773803E+03  0.48778532603E+03  0.59287801575E+03  0.00000000000E+00 0. -1.
        -14    1    3    3    0    0  0.46253807488E+02  0.25177174987E+02  0.14588375416E+03  0.15509795155E+03  0.00000000000E+00 0.  1.
         13    1    5    5    0    0 -0.41033427185E+00 -0.37410667125E+02  0.36052458719E+03  0.36246062456E+03  0.00000000000E+00 0. -1.
        -14    1    5    5    0    0  0.22699271608E+02  0.20878660427E+02  0.73068345242E+02  0.79310519285E+02  0.00000000000E+00 0.  1.
          4    1    6    6  502    0 -0.18372363186E+03 -0.12756309324E+03  0.46317949603E+02  0.22841205772E+03  0.00000000000E+00 0. -1.
         -3    1    6    6    0  502 -0.17540875571E+03 -0.51749813088E+02 -0.14207476555E+02  0.18343425832E+03  0.00000000000E+00 0.  1.
<mgrwt>
<rscale>  0 0.43223360E+03</rscale>
<asrwt>0</asrwt>
<pdfrwt beam="1">  1        1 0.38632381E-01 0.43223360E+03</pdfrwt>
<pdfrwt beam="2">  1       -2 0.20776660E+00 0.43223360E+03</pdfrwt>
<totfact> 0.12143168E+01</totfact>
</mgrwt>
</event>
<event>
12    3  0.2269558E-007  0.1489864E+04  0.7818608E-02  0.8891221E-01
          1   -1    0    0  501    0  0.00000000000E+00  0.00000000000E+00  0.32132940786E+04  0.32132940786E+04  0.00000000000E+00 0. -1.
         -2   -1    0    0    0  501 -0.00000000000E+00 -0.00000000000E+00 -0.12607610206E+04  0.12607610206E+04  0.00000000000E+00 0.  1.
        -24    2    1    2    0    0  0.14208386654E+04 -0.38360708150E+03 -0.49588941348E+03  0.15550240958E+04  0.79099443627E+02 0.  0.
    5000000    2    1    2    0    0 -0.14208386654E+04  0.38360708150E+03  0.24484224715E+04  0.29190310034E+04  0.60002707746E+03 0.  0.
        -24    2    4    4    0    0 -0.12959853234E+04  0.35948507412E+03  0.17861906384E+04  0.22373385654E+04  0.79996139901E+02 0.  0.
         24    2    4    4    0    0 -0.12485334195E+03  0.24122007388E+02  0.66223183306E+03  0.68169243795E+03  0.99916720359E+02 0.  0.
         11    1    5    5    0    0 -0.39966145059E+03  0.13358443811E+03  0.60981619797E+03  0.74124886003E+03  0.00000000000E+00 0. -1.
        -12    1    5    5    0    0 -0.89632387285E+03  0.22590063600E+03  0.11763744405E+04  0.14960897054E+04  0.00000000000E+00 0.  1.
         11    1    3    3    0    0  0.13131741832E+03 -0.48310474902E+02 -0.26829107427E+02  0.14247093509E+03  0.00000000000E+00 0. -1.
        -12    1    3    3    0    0  0.12895212471E+04 -0.33529660660E+03 -0.46906030605E+03  0.14125531607E+04  0.00000000000E+00 0.  1.
          4    1    6    6  502    0 -0.58802594236E+02  0.62054879196E+02  0.35964230152E+03  0.36966354725E+03  0.00000000000E+00 0. -1.
         -3    1    6    6    0  502 -0.66050747712E+02 -0.37932871808E+02  0.30258953154E+03  0.31202889071E+03  0.00000000000E+00 0.  1.
<mgrwt>
<rscale>  0 0.14898640E+04</rscale>
<asrwt>0</asrwt>
<pdfrwt beam="1">  1        1 0.49435293E+00 0.14898640E+04</pdfrwt>
<pdfrwt beam="2">  1       -2 0.19396323E+00 0.14898640E+04</pdfrwt>
<totfact> 0.50311559E-02</totfact>
</mgrwt>
</event>
<event>
12    3  0.2269558E-007  0.1171464E+04  0.7818608E-02  0.9138208E-01
          1   -1    0    0  501    0  0.00000000000E+00  0.00000000000E+00  0.11694063401E+04  0.11694063401E+04  0.00000000000E+00 0. -1.
         -2   -1    0    0    0  501 -0.00000000000E+00 -0.00000000000E+00 -0.12652445225E+04  0.12652445225E+04  0.00000000000E+00 0.  1.
        -24    2    1    2    0    0 -0.15367666190E+03  0.11257644553E+04  0.59551374213E+02  0.11404001471E+04  0.77485508708E+02 0.  0.
    5000000    2    1    2    0    0  0.15367666190E+03 -0.11257644553E+04 -0.15538955662E+03  0.12942507154E+04  0.59998072860E+03 0.  0.
        -24    2    4    4    0    0 -0.11483018077E+03 -0.60949892762E+03  0.13694715303E+03  0.64018175590E+03  0.80020276664E+02 0.  0.
         24    2    4    4    0    0  0.26850684267E+03 -0.51626552771E+03 -0.29233670965E+03  0.65406895950E+03  0.60987148678E+02 0.  0.
         11    1    5    5    0    0 -0.11442136462E+03 -0.43044129944E+03  0.81934785463E+02  0.45286341209E+03  0.00000000000E+00 0. -1.
        -12    1    5    5    0    0 -0.40881614688E+00 -0.17905762819E+03  0.55012367565E+02  0.18731834381E+03  0.00000000000E+00 0.  1.
         11    1    3    3    0    0 -0.69686977779E+02  0.55892436164E+03  0.67756362203E+02  0.56731264883E+03  0.00000000000E+00 0. -1.
        -12    1    3    3    0    0 -0.83989684124E+02  0.56684009370E+03 -0.82049879902E+01  0.57308749828E+03  0.00000000000E+00 0.  1.
          2    1    6    6  502    0  0.21975701657E+03 -0.40661664826E+03 -0.25762781082E+03  0.52915246752E+03  0.00000000000E+00 0. -1.
         -1    1    6    6    0  502  0.48749826105E+02 -0.10964887946E+03 -0.34708898831E+02  0.12491649199E+03  0.00000000000E+00 0.  1.
<mgrwt>
<rscale>  0 0.11714638E+04</rscale>
<asrwt>0</asrwt>
<pdfrwt beam="1">  1        1 0.17990867E+00 0.11714638E+04</pdfrwt>
<pdfrwt beam="2">  1       -2 0.19465300E+00 0.11714638E+04</pdfrwt>
<totfact> 0.13917158E+00</totfact>
</mgrwt>
</event>
<event>
12    3  0.2269558E-007  0.6114496E+03  0.7818608E-02  0.9881933E-01
          1   -1    0    0  501    0  0.00000000000E+00  0.00000000000E+00  0.80834887795E+03  0.80834887795E+03  0.00000000000E+00 0. -1.
         -2   -1    0    0    0  501 -0.00000000000E+00 -0.00000000000E+00 -0.61488277237E+03  0.61488277237E+03  0.00000000000E+00 0.  1.
        -24    2    1    2    0    0 -0.57040125862E+03 -0.61003077677E+02  0.78046361368E+02  0.58488712146E+03  0.83202998792E+02 0.  0.
    5000000    2    1    2    0    0  0.57040125862E+03  0.61003077677E+02  0.11541974421E+03  0.83834452887E+03  0.60035061456E+03 0.  0.
        -24    2    4    4    0    0  0.52292818616E+03  0.12384890929E+03  0.30134566018E+03  0.62117350642E+03  0.79087786416E+02 0.  0.
         24    2    4    4    0    0  0.47473072465E+02 -0.62845831612E+02 -0.18592591597E+03  0.21717102244E+03  0.79946954909E+02 0.  0.
         11    1    3    3    0    0 -0.43976797805E+03 -0.66793234771E+02  0.30891060433E+02  0.44588279664E+03  0.00000000000E+00 0. -1.
        -12    1    3    3    0    0 -0.13063328057E+03  0.57901570937E+01  0.47155300934E+02  0.13900432482E+03  0.00000000000E+00 0.  1.
         13    1    5    5    0    0  0.78433800727E+02  0.10108716574E+02  0.77265034406E+02  0.11056189574E+03  0.00000000000E+00 0. -1.
        -14    1    5    5    0    0  0.44449438543E+03  0.11374019272E+03  0.22408062578E+03  0.51061161068E+03  0.00000000000E+00 0.  1.
          2    1    6    6  502    0 -0.17214197420E+02 -0.34994727868E+02 -0.90713609569E+02  0.98741675763E+02  0.00000000000E+00 0. -1.
         -1    1    6    6    0  502  0.64687269884E+02 -0.27851103744E+02 -0.95212306403E+02  0.11842934668E+03  0.00000000000E+00 0.  1.
<mgrwt>
<rscale>  0 0.61144956E+03</rscale>
<asrwt>0</asrwt>
<pdfrwt beam="1">  1        1 0.12436137E+00 0.61144956E+03</pdfrwt>
<pdfrwt beam="2">  1       -2 0.94597350E-01 0.61144956E+03</pdfrwt>
<totfact> 0.18594866E+01</totfact>
</mgrwt>
</event>
<event>
12    3  0.2269558E-007  0.4019973E+03  0.7818608E-02  0.1043090E+00
          1   -1    0    0  501    0  0.00000000000E+00  0.00000000000E+00  0.36423701616E+04  0.36423701616E+04  0.00000000000E+00 0. -1.
         -4   -1    0    0    0  501 -0.00000000000E+00 -0.00000000000E+00 -0.52401955381E+02  0.52401955381E+02  0.00000000000E+00 0.  1.
        -24    2    1    2    0    0  0.19815730666E+03 -0.34151455181E+01  0.55656661305E+03  0.59626454273E+03  0.80542093024E+02 0.  0.
    5000000    2    1    2    0    0 -0.19815730666E+03  0.34151455181E+01  0.30334015932E+04  0.30985075742E+04  0.59995498238E+03 0.  0.
        -24    2    4    4    0    0 -0.23608988057E+03 -0.24976411037E+03  0.20082411667E+04  0.20390526262E+04  0.81132521084E+02 0.  0.
         24    2    4    4    0    0  0.37932573911E+02  0.25317925588E+03  0.10251604264E+04  0.10594549481E+04  0.77150964546E+02 0.  0.
         13    1    5    5    0    0 -0.89651040777E+02 -0.54288752916E+02  0.47020960409E+03  0.48174853355E+03  0.00000000000E+00 0. -1.
        -14    1    5    5    0    0 -0.14643883979E+03 -0.19547535745E+03  0.15380315627E+04  0.15573040926E+04  0.00000000000E+00 0.  1.
         13    1    3    3    0    0  0.40095209433E+02  0.21929956561E+01  0.22922902267E+03  0.23271953052E+03  0.00000000000E+00 0. -1.
        -14    1    3    3    0    0  0.15806209722E+03 -0.56081411742E+01  0.32733759038E+03  0.36354501221E+03  0.00000000000E+00 0.  1.
          4    1    6    6  502    0  0.16199483308E+02  0.16563934688E+03  0.79537587395E+03  0.81260174585E+03  0.00000000000E+00 0. -1.
         -3    1    6    6    0  502  0.21733090603E+02  0.87539909005E+02  0.22978455246E+03  0.24685320222E+03  0.00000000000E+00 0.  1.
<mgrwt>
<rscale>  0 0.40199731E+03</rscale>
<asrwt>0</asrwt>
<pdfrwt beam="1">  1        1 0.56036444E+00 0.40199731E+03</pdfrwt>
<pdfrwt beam="2">  1       -4 0.80618422E-02 0.40199731E+03</pdfrwt>
<totfact> 0.12472017E+01</totfact>
</mgrwt>
</event>
<event>
12    3  0.2269558E-007  0.1662383E+04  0.7818608E-02  0.8783114E-01
          1   -1    0    0  501    0  0.00000000000E+00  0.00000000000E+00  0.26681604308E+04  0.26681604308E+04  0.00000000000E+00 0. -1.
         -2   -1    0    0    0  501 -0.00000000000E+00 -0.00000000000E+00 -0.11984208449E+04  0.11984208449E+04  0.00000000000E+00 0.  1.
        -24    2    1    2    0    0  0.30960511830E+03 -0.15867365293E+04  0.14010567449E+04  0.21407986855E+04  0.80441697032E+02 0.  0.
    5000000    2    1    2    0    0 -0.30960511830E+03  0.15867365293E+04  0.68682840988E+02  0.17257825902E+04  0.60001672746E+03 0.  0.
        -24    2    4    4    0    0  0.75082365805E+02  0.96723330406E+03 -0.82264492792E+02  0.97689140549E+03  0.79823212209E+02 0.  0.
         24    2    4    4    0    0 -0.38468748410E+03  0.61950322527E+03  0.15094733378E+03  0.74889118472E+03  0.79272961527E+02 0.  0.
         13    1    3    3    0    0  0.19607591435E+03 -0.11787771555E+04  0.10187018915E+04  0.15702594978E+04  0.00000000000E+00 0. -1.
        -14    1    3    3    0    0  0.11352920394E+03 -0.40795937385E+03  0.38235485340E+03  0.57053918777E+03  0.00000000000E+00 0.  1.
         13    1    5    5    0    0  0.78061518813E+02  0.52917907157E+03 -0.60022552366E+02  0.53826275861E+03  0.00000000000E+00 0. -1.
        -14    1    5    5    0    0 -0.29791530080E+01  0.43805423249E+03 -0.22241940426E+02  0.43862864689E+03  0.00000000000E+00 0.  1.
          4    1    6    6  502    0 -0.86420832043E+02  0.84698314522E+02  0.30730416470E+02  0.12484679888E+03  0.00000000000E+00 0. -1.
         -3    1    6    6    0  502 -0.29826665206E+03  0.53480491075E+03  0.12021691731E+03  0.62404438584E+03  0.00000000000E+00 0.  1.
<mgrwt>
<rscale>  0 0.16623831E+04</rscale>
<asrwt>0</asrwt>
<pdfrwt beam="1">  1        1 0.41048622E+00 0.16623831E+04</pdfrwt>
<pdfrwt beam="2">  1       -2 0.18437244E+00 0.16623831E+04</pdfrwt>
<totfact> 0.14212730E-01</totfact>
</mgrwt>
</event>
<event>
12    3  0.2269558E-007  0.4923449E+03  0.7818608E-02  0.1015797E+00
          1   -1    0    0  501    0  0.00000000000E+00  0.00000000000E+00  0.39358901810E+03  0.39358901810E+03  0.00000000000E+00 0. -1.
         -2   -1    0    0    0  501 -0.00000000000E+00 -0.00000000000E+00 -0.67252314794E+03  0.67252314794E+03  0.00000000000E+00 0.  1.
        -24    2    1    2    0    0 -0.31248879912E+03 -0.11547192989E+03 -0.85085330613E+02  0.35298881630E+03  0.79865980150E+02 0.  0.
    5000000    2    1    2    0    0  0.31248879912E+03  0.11547192989E+03 -0.19384879922E+03  0.71312334973E+03  0.59998711554E+03 0.  0.
        -24    2    4    4    0    0  0.19917529008E+03 -0.21123307509E+03  0.14015754917E+02  0.30180971545E+03  0.81255490684E+02 0.  0.
         24    2    4    4    0    0  0.11331350904E+03  0.32670500498E+03 -0.20786455414E+03  0.41131363428E+03  0.79969502094E+02 0.  0.
         11    1    3    3    0    0 -0.26123300640E+03 -0.12456093927E+03 -0.61660340745E+02  0.29590557420E+03  0.00000000000E+00 0. -1.
        -12    1    3    3    0    0 -0.51255792720E+02  0.90890093785E+01 -0.23424989869E+02  0.57083242105E+02  0.00000000000E+00 0.  1.
         13    1    5    5    0    0  0.74041467655E+02 -0.12556150972E+03  0.31570014052E+02  0.14914589315E+03  0.00000000000E+00 0. -1.
        -14    1    5    5    0    0  0.12513382242E+03 -0.85671565371E+02 -0.17554259135E+02  0.15266382230E+03  0.00000000000E+00 0.  1.
          2    1    6    6  502    0  0.37661289114E+02  0.11221030263E+03 -0.11688308947E+03  0.16634656990E+03  0.00000000000E+00 0. -1.
         -1    1    6    6    0  502  0.75652219927E+02  0.21449470235E+03 -0.90981464674E+02  0.24496706438E+03  0.00000000000E+00 0.  1.
<mgrwt>
<rscale>  0 0.49234489E+03</rscale>
<asrwt>0</asrwt>
<pdfrwt beam="1">  1        1 0.60552157E-01 0.49234489E+03</pdfrwt>
<pdfrwt beam="2">  1       -2 0.10346510E+00 0.49234489E+03</pdfrwt>
<totfact> 0.42347202E+01</totfact>
</mgrwt>
</event>
<event>
12    3  0.2269558E-007  0.8477948E+03  0.7818608E-02  0.9493301E-01
         -2   -1    0    0    0  501 -0.00000000000E+00  0.00000000000E+00  0.34543793632E+03  0.34543793632E+03  0.00000000000E+00 0.  1.
          1   -1    0    0  501    0  0.00000000000E+00 -0.00000000000E+00 -0.27033618289E+04  0.27033618289E+04  0.00000000000E+00 0. -1.
        -24    2    1    2    0    0  0.44085236366E+03  0.70699618541E+03 -0.66605436827E+03  0.10697623855E+04  0.81047685429E+02 0.  0.
    5000000    2    1    2    0    0 -0.44085236366E+03 -0.70699618541E+03 -0.16918695243E+04  0.19790373797E+04  0.59997670799E+03 0.  0.
        -24    2    4    4    0    0 -0.34005872228E+03 -0.40346230272E+03 -0.15115037129E+04  0.16031015094E+04  0.82880703174E+02 0.  0.
         24    2    4    4    0    0 -0.10079364139E+03 -0.30353388268E+03 -0.18036581140E+03  0.37593587028E+03  0.80645995321E+02 0.  0.
         11    1    3    3    0    0  0.30056562474E+03  0.54129515650E+03 -0.47153874510E+03  0.77826019386E+03  0.00000000000E+00 0. -1.
        -12    1    3    3    0    0  0.14028673892E+03  0.16570102891E+03 -0.19451562317E+03  0.29150219168E+03  0.00000000000E+00 0.  1.
         13    1    5    5    0    0 -0.90219815665E+02 -0.16810735476E+03 -0.55514559357E+03  0.58701475954E+03  0.00000000000E+00 0. -1.
        -14    1    5    5    0    0 -0.24983890661E+03 -0.23535494796E+03 -0.95635811937E+03  0.10160867499E+04  0.00000000000E+00 0.  1.
          2    1    6    6  502    0 -0.10319689902E+03 -0.30533766027E+03 -0.18407196460E+03  0.37116461967E+03  0.00000000000E+00 0. -1.
         -3    1    6    6    0  502  0.24032576345E+01  0.18037775849E+01  0.37061531989E+01  0.47712506083E+01  0.00000000000E+00 0.  1.
<mgrwt>
<rscale>  0 0.84779480E+03</rscale>
<asrwt>0</asrwt>
<pdfrwt beam="1">  1        1 0.41590183E+00 0.84779480E+03</pdfrwt>
<pdfrwt beam="2">  1       -2 0.53144296E-01 0.84779480E+03</pdfrwt>
<totfact> 0.29847127E+00</totfact>
</mgrwt>
</event>
<event>
12    3  0.2269558E-007  0.6115862E+03  0.7818608E-02  0.9881656E-01
         -2   -1    0    0    0  501 -0.00000000000E+00  0.00000000000E+00  0.11987554588E+04  0.11987554588E+04  0.00000000000E+00 0.  1.
          1   -1    0    0  501    0  0.00000000000E+00 -0.00000000000E+00 -0.45697301442E+03  0.45697301442E+03  0.00000000000E+00 0. -1.
        -24    2    1    2    0    0 -0.40885481794E+03 -0.43126072217E+03  0.13165731084E+03  0.61393227399E+03  0.80194244904E+02 0.  0.
    5000000    2    1    2    0    0  0.40885481794E+03  0.43126072217E+03  0.61012513357E+03  0.10417961993E+04  0.59994880579E+03 0.  0.
        -24    2    4    4    0    0  0.26743155291E+03  0.16658228199E+03  0.65201145829E+03  0.72853678934E+03  0.79859999468E+02 0.  0.
         24    2    4    4    0    0  0.14142326502E+03  0.26467844017E+03 -0.41886324718E+02  0.31325940993E+03  0.79509604002E+02 0.  0.
         13    1    3    3    0    0 -0.24234621011E+03 -0.20034439386E+03  0.56258240120E+02  0.31942847601E+03  0.00000000000E+00 0. -1.
        -14    1    3    3    0    0 -0.16650860783E+03 -0.23091632830E+03  0.75399070724E+02  0.29450379798E+03  0.00000000000E+00 0.  1.
         13    1    5    5    0    0  0.20447329024E+03  0.11631939176E+03  0.55254759114E+03  0.60054006344E+03  0.00000000000E+00 0. -1.
        -14    1    5    5    0    0  0.62958262670E+02  0.50262890237E+02  0.99463867156E+02  0.12799672591E+03  0.00000000000E+00 0.  1.
          2    1    6    6  502    0  0.10454264010E+03  0.12099531006E+03 -0.31067650203E+01  0.15993336314E+03  0.00000000000E+00 0. -1.
         -1    1    6    6    0  502  0.36880624920E+02  0.14368313011E+03 -0.38779559698E+02  0.15332604679E+03  0.00000000000E+00 0.  1.
<mgrwt>
<rscale>  0 0.61158624E+03</rscale>
<asrwt>0</asrwt>
<pdfrwt beam="1">  1        1 0.70303541E-01 0.61158624E+03</pdfrwt>
<pdfrwt beam="2">  1       -2 0.18442392E+00 0.61158624E+03</pdfrwt>
<totfact> 0.77104445E+00</totfact>
</mgrwt>
</event>
<event>
12    3  0.2269558E-007  0.7894689E+03  0.7818608E-02  0.9575387E-01
          1   -1    0    0  501    0  0.00000000000E+00  0.00000000000E+00  0.29518222492E+04  0.29518222492E+04  0.00000000000E+00 0. -1.
         -2   -1    0    0    0  501 -0.00000000000E+00 -0.00000000000E+00 -0.26396881302E+03  0.26396881302E+03  0.00000000000E+00 0.  1.
        -24    2    1    2    0    0 -0.31278170700E+03  0.70294770585E+03  0.14103496187E+04  0.16082778191E+04  0.74186407004E+02 0.  0.
    5000000    2    1    2    0    0  0.31278170700E+03 -0.70294770585E+03  0.12775038174E+04  0.16075132431E+04  0.60009578385E+03 0.  0.
        -24    2    4    4    0    0  0.63761758337E+02 -0.76541758467E+02 -0.29048087404E+02  0.13515738945E+03  0.86599803260E+02 0.  0.
         24    2    4    4    0    0  0.24901994867E+03 -0.62640594738E+03  0.13065519048E+04  0.14723558537E+04  0.79740416375E+02 0.  0.
         11    1    5    5    0    0  0.33825366621E+02  0.13581688480E+02 -0.13802849260E+02  0.38976099558E+02  0.00000000000E+00 0. -1.
        -12    1    5    5    0    0  0.29936391716E+02 -0.90123446947E+02 -0.15245238144E+02  0.96181289889E+02  0.00000000000E+00 0.  1.
         11    1    3    3    0    0 -0.35186391306E+02  0.54895569531E+02  0.85505436740E+02  0.10753039291E+03  0.00000000000E+00 0. -1.
        -12    1    3    3    0    0 -0.27759531570E+03  0.64805213632E+03  0.13248441820E+04  0.15007474262E+04  0.00000000000E+00 0.  1.
          2    1    6    6  502    0 -0.42931139775E+01 -0.94934762164E+01  0.35180562494E+02  0.36690992024E+02  0.00000000000E+00 0. -1.
         -1    1    6    6    0  502  0.25331306264E+03 -0.61691247116E+03  0.12713713423E+04  0.14356648616E+04  0.00000000000E+00 0.  1.
<mgrwt>
<rscale>  0 0.78946886E+03</rscale>
<asrwt>0</asrwt>
<pdfrwt beam="1">  1        1 0.45412648E+00 0.78946886E+03</pdfrwt>
<pdfrwt beam="2">  1       -2 0.40610589E-01 0.78946886E+03</pdfrwt>
<totfact> 0.34584239E+00</totfact>
</mgrwt>
</event>
<event>
12    3  0.2269558E-007  0.3775645E+03  0.7818608E-02  0.1051838E+00
          3   -1    0    0  501    0  0.00000000000E+00  0.00000000000E+00  0.10331604662E+04  0.10331604662E+04  0.00000000000E+00 0. -1.
         -4   -1    0    0    0  501 -0.00000000000E+00 -0.00000000000E+00 -0.24861692400E+03  0.24861692400E+03  0.00000000000E+00 0.  1.
        -24    2    1    2    0    0 -0.15629628076E+03  0.25531404079E+03  0.10431565743E+03  0.32661488043E+03  0.78624022597E+02 0.  0.
    5000000    2    1    2    0    0  0.15629628076E+03 -0.25531404079E+03  0.68022788475E+03  0.95516250976E+03  0.60000971497E+03 0.  0.
        -24    2    4    4    0    0  0.22849101733E+03 -0.10679188783E+03  0.14693170860E+02  0.26488037690E+03  0.79580603749E+02 0.  0.
         24    2    4    4    0    0 -0.72194736565E+02 -0.14852215296E+03  0.66553471389E+03  0.69028213286E+03  0.79259432503E+02 0.  0.
         11    1    3    3    0    0 -0.37772139769E+02  0.13636535087E+03  0.43791603872E+02  0.14812139626E+03  0.00000000000E+00 0. -1.
        -12    1    3    3    0    0 -0.11852414100E+03  0.11894868992E+03  0.60524053563E+02  0.17849348417E+03  0.00000000000E+00 0.  1.
         13    1    5    5    0    0  0.86086020502E+02 -0.11850075035E+01  0.16086732533E+02  0.87584188825E+02  0.00000000000E+00 0. -1.
        -14    1    5    5    0    0  0.14240499683E+03 -0.10560688032E+03 -0.13935616730E+01  0.17729618808E+03  0.00000000000E+00 0.  1.
          4    1    6    6  502    0  0.15050673653E+02 -0.83295380209E+01  0.84871327136E+02  0.86597033153E+02  0.00000000000E+00 0. -1.
         -3    1    6    6    0  502 -0.87245410218E+02 -0.14019261494E+03  0.58066338676E+03  0.60368509971E+03  0.00000000000E+00 0.  1.
<mgrwt>
<rscale>  0 0.37756451E+03</rscale>
<asrwt>0</asrwt>
<pdfrwt beam="1">  1        3 0.15894776E+00 0.37756451E+03</pdfrwt>
<pdfrwt beam="2">  1       -4 0.38248758E-01 0.37756451E+03</pdfrwt>
<totfact> 0.41937758E+00</totfact>
</mgrwt>
</event>
<event>
12    3  0.2269558E-007  0.5484111E+03  0.7818608E-02  0.1001862E+00
          1   -1    0    0  501    0  0.00000000000E+00  0.00000000000E+00  0.51626442554E+03  0.51626442554E+03  0.00000000000E+00 0. -1.
         -2   -1    0    0    0  501 -0.00000000000E+00 -0.00000000000E+00 -0.65786818327E+03  0.65786818327E+03  0.00000000000E+00 0.  1.
        -24    2    1    2    0    0 -0.32809010532E+03 -0.22574831988E+03 -0.19737801929E+03  0.45185917659E+03  0.81321656580E+02 0.  0.
    5000000    2    1    2    0    0  0.32809010532E+03  0.22574831988E+03  0.55774261556E+02  0.72227343222E+03  0.59996893378E+03 0.  0.
        -24    2    4    4    0    0  0.35075383400E+03 -0.98615692742E+02 -0.35029855170E+02  0.37508599947E+03  0.81909152870E+02 0.  0.
         24    2    4    4    0    0 -0.22663728674E+02  0.32436401262E+03  0.90804116725E+02  0.34718743275E+03  0.81043621383E+02 0.  0.
         11    1    3    3    0    0 -0.83283904969E+02 -0.98779787356E+02 -0.81280904576E+02  0.15264416355E+03  0.00000000000E+00 0. -1.
        -12    1    3    3    0    0 -0.24480620036E+03 -0.12696853252E+03 -0.11609711472E+03  0.29921501304E+03  0.00000000000E+00 0.  1.
         11    1    5    5    0    0  0.31332858600E+03 -0.83030654667E+02 -0.56780849052E+02  0.32907895289E+03  0.00000000000E+00 0. -1.
        -12    1    5    5    0    0  0.37425247999E+02 -0.15585038074E+02  0.21750993882E+02  0.46007046574E+02  0.00000000000E+00 0.  1.
          4    1    6    6  502    0  0.17152632252E+01  0.21924352549E+03  0.24694554711E+02  0.22063654872E+03  0.00000000000E+00 0. -1.
         -3    1    6    6    0  502 -0.24378991899E+02  0.10512048713E+03  0.66109562014E+02  0.12655088403E+03  0.00000000000E+00 0.  1.
<mgrwt>
<rscale>  0 0.54841106E+03</rscale>
<asrwt>0</asrwt>
<pdfrwt beam="1">  1        1 0.79425297E-01 0.54841106E+03</pdfrwt>
<pdfrwt beam="2">  1       -2 0.10121049E+00 0.54841106E+03</pdfrwt>
<totfact> 0.30865983E+01</totfact>
</mgrwt>
</event>
<event>
12    3  0.2269558E-007  0.4297201E+03  0.7818608E-02  0.1033948E+00
          1   -1    0    0  501    0  0.00000000000E+00  0.00000000000E+00  0.15329557054E+04  0.15329557054E+04  0.00000000000E+00 0. -1.
         -2   -1    0    0    0  501 -0.00000000000E+00 -0.00000000000E+00 -0.26754065315E+03  0.26754065315E+03  0.00000000000E+00 0.  1.
        -24    2    1    2    0    0  0.46656531500E+02 -0.24672411361E+03 -0.10467291401E+03  0.28391953100E+03  0.81266604388E+02 0.  0.
    5000000    2    1    2    0    0 -0.46656531500E+02  0.24672411361E+03  0.13700879662E+04  0.15165768275E+04  0.59984549543E+03 0.  0.
        -24    2    4    4    0    0  0.20618717490E+03  0.25997552113E+03  0.10289922719E+04  0.10839483912E+04  0.77579613039E+02 0.  0.
         24    2    4    4    0    0 -0.25284370640E+03 -0.13251407519E+02  0.34109569432E+03  0.43262843636E+03  0.81948469148E+02 0.  0.
         11    1    5    5    0    0  0.15708579436E+03  0.13810731743E+03  0.65039346096E+03  0.68319926228E+03  0.00000000000E+00 0. -1.
        -12    1    5    5    0    0  0.49101380541E+02  0.12186820370E+03  0.37859881095E+03  0.40074912887E+03  0.00000000000E+00 0.  1.
         13    1    3    3    0    0  0.45670451893E+02 -0.61699045348E+02 -0.47453564312E+02  0.90246346956E+02  0.00000000000E+00 0. -1.
        -14    1    3    3    0    0  0.98607960692E+00 -0.18502506827E+03 -0.57219349693E+02  0.19367318405E+03  0.00000000000E+00 0.  1.
          2    1    6    6  502    0 -0.21098437425E+03 -0.27743026986E+02  0.23164096024E+03  0.31454986279E+03  0.00000000000E+00 0. -1.
         -1    1    6    6    0  502 -0.41859332157E+02  0.14491619467E+02  0.10945473408E+03  0.11807857356E+03  0.00000000000E+00 0.  1.
<mgrwt>
<rscale>  0 0.42972006E+03</rscale>
<asrwt>0</asrwt>
<pdfrwt beam="1">  1        1 0.23583933E+00 0.42972006E+03</pdfrwt>
<pdfrwt beam="2">  1       -2 0.41160101E-01 0.42972006E+03</pdfrwt>
<totfact> 0.32862856E+01</totfact>
</mgrwt>
</event>
<event>
12    3  0.2269558E-007  0.9058104E+03  0.7818608E-02  0.9418347E-01
         -2   -1    0    0    0  501 -0.00000000000E+00  0.00000000000E+00  0.45371588453E+03  0.45371588453E+03  0.00000000000E+00 0.  1.
          1   -1    0    0  501    0  0.00000000000E+00 -0.00000000000E+00 -0.23965377640E+04  0.23965377640E+04  0.00000000000E+00 0. -1.
        -24    2    1    2    0    0 -0.63852014118E+03 -0.61225023240E+03 -0.40221159058E+03  0.97512903133E+03  0.80895898366E+02 0.  0.
    5000000    2    1    2    0    0  0.63852014118E+03  0.61225023240E+03 -0.15406102889E+04  0.18751246172E+04  0.60004495669E+03 0.  0.
        -24    2    4    4    0    0  0.24845532438E+03  0.78333427806E+02 -0.93768897150E+03  0.97672027245E+03  0.82799210220E+02 0.  0.
         24    2    4    4    0    0  0.39006481680E+03  0.53391680460E+03 -0.60292131741E+03  0.89840434477E+03  0.79990850647E+02 0.  0.
         11    1    5    5    0    0  0.16460530964E+03  0.62211584702E+02 -0.48237960425E+03  0.51347373042E+03  0.00000000000E+00 0. -1.
        -12    1    5    5    0    0  0.83850014742E+02  0.16121843105E+02 -0.45530936726E+03  0.46324654204E+03  0.00000000000E+00 0.  1.
         11    1    3    3    0    0 -0.19573625576E+03 -0.16991384465E+03 -0.15630393122E+03  0.30267856769E+03  0.00000000000E+00 0. -1.
        -12    1    3    3    0    0 -0.44278388542E+03 -0.44233638775E+03 -0.24590765936E+03  0.67245046364E+03  0.00000000000E+00 0.  1.
          2    1    6    6  502    0  0.98514914956E+02  0.86124901319E+02 -0.13714085797E+03  0.18955290032E+03  0.00000000000E+00 0. -1.
         -1    1    6    6    0  502  0.29154990184E+03  0.44779190328E+03 -0.46578045944E+03  0.70885144445E+03  0.00000000000E+00 0.  1.
<mgrwt>
<rscale>  0 0.90581037E+03</rscale>
<asrwt>0</asrwt>
<pdfrwt beam="1">  1        1 0.36869812E+00 0.90581037E+03</pdfrwt>
<pdfrwt beam="2">  1       -2 0.69802444E-01 0.90581037E+03</pdfrwt>
<totfact> 0.26950782E+00</totfact>
</mgrwt>
</event>
<event>
12    3  0.2269558E-007  0.7309032E+03  0.7818608E-02  0.9665796E-01
         -2   -1    0    0    0  501 -0.00000000000E+00  0.00000000000E+00  0.47305207584E+03  0.47305207584E+03  0.00000000000E+00 0.  1.
          1   -1    0    0  501    0  0.00000000000E+00 -0.00000000000E+00 -0.13793395834E+04  0.13793395834E+04  0.00000000000E+00 0. -1.
        -24    2    1    2    0    0  0.26530670907E+03  0.62905688305E+03 -0.25121783379E+03  0.73202971191E+03  0.81589748809E+02 0.  0.
    5000000    2    1    2    0    0 -0.26530670907E+03 -0.62905688305E+03 -0.65506967376E+03  0.11203619473E+04  0.59999533626E+03 0.  0.
        -24    2    4    4    0    0  0.82864977326E+02 -0.11278115571E+03  0.57114775694E+02  0.17084441949E+03  0.79621131098E+02 0.  0.
         24    2    4    4    0    0 -0.34817168640E+03 -0.51627572734E+03 -0.71218444945E+03  0.94951752783E+03  0.81318483579E+02 0.  0.
         13    1    5    5    0    0  0.48839080759E+02 -0.13983154554E+02  0.40647905660E+02  0.65061791054E+02  0.00000000000E+00 0. -1.
        -14    1    5    5    0    0  0.34025896568E+02 -0.98798001160E+02  0.16466870034E+02  0.10578262844E+03  0.00000000000E+00 0.  1.
         13    1    3    3    0    0  0.47304856607E+02  0.80158257093E+02 -0.62075671779E+02  0.11187709625E+03  0.00000000000E+00 0. -1.
        -14    1    3    3    0    0  0.21800185246E+03  0.54889862596E+03 -0.18914216201E+03  0.62015261566E+03  0.00000000000E+00 0.  1.
          2    1    6    6  502    0 -0.86267777215E+02 -0.11849996153E+03 -0.22240049729E+03  0.26635756318E+03  0.00000000000E+00 0. -1.
         -1    1    6    6    0  502 -0.26190390918E+03 -0.39777576581E+03 -0.48978395217E+03  0.68315996465E+03  0.00000000000E+00 0.  1.
<mgrwt>
<rscale>  0 0.73090318E+03</rscale>
<asrwt>0</asrwt>
<pdfrwt beam="1">  1        1 0.21220609E+00 0.73090318E+03</pdfrwt>
<pdfrwt beam="2">  1       -2 0.72777243E-01 0.73090318E+03</pdfrwt>
<totfact> 0.12280923E+01</totfact>
</mgrwt>
</event>
<event>
12    3  0.2269558E-007  0.3818800E+03  0.7818608E-02  0.1050241E+00
          1   -1    0    0  501    0  0.00000000000E+00  0.00000000000E+00  0.13857059364E+04  0.13857059364E+04  0.00000000000E+00 0. -1.
         -2   -1    0    0    0  501 -0.00000000000E+00 -0.00000000000E+00 -0.12798888902E+03  0.12798888902E+03  0.00000000000E+00 0.  1.
        -24    2    1    2    0    0  0.19697618763E+01 -0.19393740602E+03  0.30448675608E+03  0.37084032899E+03  0.84821975710E+02 0.  0.
    5000000    2    1    2    0    0 -0.19697618763E+01  0.19393740602E+03  0.95323029130E+03  0.11428544964E+04  0.59987733273E+03 0.  0.
        -24    2    4    4    0    0 -0.14998391369E+03  0.32239035923E+03  0.35653638062E+03  0.50976801759E+03  0.79463972719E+02 0.  0.
         24    2    4    4    0    0  0.14801415181E+03 -0.12845295321E+03  0.59669391068E+03  0.63308647883E+03  0.79665025668E+02 0.  0.
         11    1    3    3    0    0 -0.28241929862E+02 -0.14352971344E+03  0.25514857030E+03  0.29410742624E+03  0.00000000000E+00 0. -1.
        -12    1    3    3    0    0  0.30211691738E+02 -0.50407692580E+02  0.49338185780E+02  0.76732902754E+02  0.00000000000E+00 0.  1.
         11    1    5    5    0    0 -0.15188936960E+03  0.32266320654E+03  0.33871584967E+03  0.49184382915E+03  0.00000000000E+00 0. -1.
        -12    1    5    5    0    0  0.19054559083E+01 -0.27284731401E+00  0.17820530951E+02  0.17924188440E+02  0.00000000000E+00 0.  1.
          2    1    6    6  502    0  0.11492083474E+03 -0.11968221588E+03  0.39385309009E+03  0.42737675139E+03  0.00000000000E+00 0. -1.
         -1    1    6    6    0  502  0.33093317073E+02 -0.87707373362E+01  0.20284082058E+03  0.20570972744E+03  0.00000000000E+00 0.  1.
<mgrwt>
<rscale>  0 0.38187998E+03</rscale>
<asrwt>0</asrwt>
<pdfrwt beam="1">  1        1 0.21318552E+00 0.38187998E+03</pdfrwt>
<pdfrwt beam="2">  1       -2 0.19690599E-01 0.38187998E+03</pdfrwt>
<totfact> 0.16013282E+02</totfact>
</mgrwt>
</event>
<event>
12    3  0.3499263E-007  0.1989979E+04  0.7818608E-02  0.8611320E-01
         -2   -1    0    0    0  501 -0.00000000000E+00  0.00000000000E+00  0.17353153900E+04  0.17353153900E+04  0.00000000000E+00 0.  1.
          1   -1    0    0  501    0  0.00000000000E+00 -0.00000000000E+00 -0.23647977691E+04  0.23647977691E+04  0.00000000000E+00 0. -1.
        -24    2    1    2    0    0 -0.12950244486E+04  0.14756797174E+04 -0.57125614766E+03  0.20463252201E+04  0.79964800744E+02 0.  0.
    5000000    2    1    2    0    0  0.12950244486E+04 -0.14756797174E+04 -0.58226231436E+02  0.20537879389E+04  0.59994637505E+03 0.  0.
        -24    2    4    4    0    0  0.67236268393E+03 -0.44543743635E+03  0.16410286084E+03  0.82705097919E+03  0.81224902543E+02 0.  0.
         24    2    4    4    0    0  0.62266176469E+03 -0.10302422811E+04 -0.22232909227E+03  0.12267369597E+04  0.79664999173E+02 0.  0.
         11    1    5    5    0    0  0.26658191319E+03 -0.21882456849E+03  0.50186927005E+02  0.34852379525E+03  0.00000000000E+00 0. -1.
        -12    1    5    5    0    0  0.40578077075E+03 -0.22661286786E+03  0.11391593383E+03  0.47852718394E+03  0.00000000000E+00 0.  1.
         13    1    3    3    0    0 -0.34961268771E+03  0.34649500374E+03 -0.14867132830E+03  0.51418963708E+03  0.00000000000E+00 0. -1.
        -14    1    3    3    0    0 -0.94541176092E+03  0.11291847137E+04 -0.42258481936E+03  0.15321355831E+04  0.00000000000E+00 0.  1.
          4    1    6    6  502    0  0.36677249573E+03 -0.54757290058E+03 -0.95971747717E+02  0.66600955056E+03  0.00000000000E+00 0. -1.
         -3    1    6    6    0  502  0.25588926896E+03 -0.48266938051E+03 -0.12635734456E+03  0.56072740915E+03  0.00000000000E+00 0.  1.
<mgrwt>
<rscale>  0 0.19899790E+04</rscale>
<asrwt>0</asrwt>
<pdfrwt beam="1">  1        1 0.36381504E+00 0.19899790E+04</pdfrwt>
<pdfrwt beam="2">  1       -2 0.26697160E+00 0.19899790E+04</pdfrwt>
<totfact> 0.66361717E-02</totfact>
</mgrwt>
</event>
<event>
12    3  0.2269558E-007  0.7305134E+03  0.7818608E-02  0.9666428E-01
          1   -1    0    0  501    0  0.00000000000E+00  0.00000000000E+00  0.65000258225E+03  0.65000258225E+03  0.00000000000E+00 0. -1.
         -2   -1    0    0    0  501 -0.00000000000E+00 -0.00000000000E+00 -0.92804040849E+03  0.92804040849E+03  0.00000000000E+00 0.  1.
        -24    2    1    2    0    0  0.58355237497E+03 -0.28387557947E+03 -0.10178764497E+02  0.65419310868E+03  0.82135846286E+02 0.  0.
    5000000    2    1    2    0    0 -0.58355237497E+03  0.28387557947E+03 -0.26785906175E+03  0.92384988206E+03  0.60052594338E+03 0.  0.
        -24    2    4    4    0    0  0.51400455375E+02  0.11919546609E+03 -0.21064853443E+03  0.26039472098E+03  0.81135933514E+02 0.  0.
         24    2    4    4    0    0 -0.63495283034E+03  0.16468011337E+03 -0.57210527321E+02  0.66345516108E+03  0.81333079562E+02 0.  0.
         11    1    3    3    0    0  0.18398101910E+03 -0.51209527936E+02  0.11398297252E+02  0.19131479901E+03  0.00000000000E+00 0. -1.
        -12    1    3    3    0    0  0.39957135587E+03 -0.23266605153E+03 -0.21577061749E+02  0.46287830966E+03  0.00000000000E+00 0.  1.
         13    1    5    5    0    0  0.63196181060E+02  0.47790463930E+02 -0.92000785536E+02  0.12141593916E+03  0.00000000000E+00 0. -1.
        -14    1    5    5    0    0 -0.11795725685E+02  0.71405002161E+02 -0.11864774889E+03  0.13897878182E+03  0.00000000000E+00 0.  1.
          4    1    6    6  502    0 -0.54219261521E+03  0.14500932209E+03 -0.20039194532E+02  0.56160671720E+03  0.00000000000E+00 0. -1.
         -3    1    6    6    0  502 -0.92760215131E+02  0.19670791286E+02 -0.37171332789E+02  0.10184844389E+03  0.00000000000E+00 0.  1.
<mgrwt>
<rscale>  0 0.73051337E+03</rscale>
<asrwt>0</asrwt>
<pdfrwt beam="1">  1        1 0.10000040E+00 0.73051337E+03</pdfrwt>
<pdfrwt beam="2">  1       -2 0.14277545E+00 0.73051337E+03</pdfrwt>
<totfact> 0.93097979E+00</totfact>
</mgrwt>
</event>
<event>
12    3  0.2269558E-007  0.6100756E+03  0.7818608E-02  0.9884720E-01
         -2   -1    0    0    0  501 -0.00000000000E+00  0.00000000000E+00  0.38417870552E+03  0.38417870552E+03  0.00000000000E+00 0.  1.
          1   -1    0    0  501    0  0.00000000000E+00 -0.00000000000E+00 -0.99834605210E+03  0.99834605210E+03  0.00000000000E+00 0. -1.
        -24    2    1    2    0    0  0.63005841359E+02  0.46061308791E+03 -0.31176116150E+03  0.56544299460E+03  0.79978781676E+02 0.  0.
    5000000    2    1    2    0    0 -0.63005841359E+02 -0.46061308791E+03 -0.30240618508E+03  0.81708176303E+03  0.60003246070E+03 0.  0.
        -24    2    4    4    0    0  0.24304036950E+03 -0.31440231056E+03 -0.11390689623E+03  0.42092174697E+03  0.79264758691E+02 0.  0.
         24    2    4    4    0    0 -0.30604621086E+03 -0.14621077735E+03 -0.18849928885E+03  0.39616001606E+03  0.79805399734E+02 0.  0.
         11    1    3    3    0    0  0.60965621110E+02  0.27054841110E+03 -0.22198110734E+03  0.35523071618E+03  0.00000000000E+00 0. -1.
        -12    1    3    3    0    0  0.20402202489E+01  0.19006467681E+03 -0.89780054162E+02  0.21021227841E+03  0.00000000000E+00 0.  1.
         13    1    5    5    0    0  0.24652231245E+03 -0.29140646882E+03 -0.10375920247E+03  0.39554639766E+03  0.00000000000E+00 0. -1.
        -14    1    5    5    0    0 -0.34819429456E+01 -0.22995841739E+02 -0.10147693753E+02  0.25375349307E+02  0.00000000000E+00 0.  1.
          4    1    6    6  502    0 -0.23498389992E+03 -0.14615379942E+03 -0.15953977946E+03  0.31942339855E+03  0.00000000000E+00 0. -1.
         -3    1    6    6    0  502 -0.71062310939E+02 -0.56977927921E-01 -0.28959509392E+02  0.76736617509E+02  0.00000000000E+00 0.  1.
<mgrwt>
<rscale>  0 0.61007557E+03</rscale>
<asrwt>0</asrwt>
<pdfrwt beam="1">  1        1 0.15359170E+00 0.61007557E+03</pdfrwt>
<pdfrwt beam="2">  1       -2 0.59104416E-01 0.61007557E+03</pdfrwt>
<totfact> 0.36896776E+01</totfact>
</mgrwt>
</event>
<event>
12    3  0.2269558E-007  0.6359362E+03  0.7818608E-02  0.9833533E-01
         -2   -1    0    0    0  501 -0.00000000000E+00  0.00000000000E+00  0.81366968864E+03  0.81366968864E+03  0.00000000000E+00 0.  1.
          1   -1    0    0  501    0  0.00000000000E+00 -0.00000000000E+00 -0.21074348149E+04  0.21074348149E+04  0.00000000000E+00 0. -1.
        -24    2    1    2    0    0  0.42897080465E+03 -0.46484190390E+03 -0.18024889208E+04  0.19118845874E+04  0.79008980462E+02 0.  0.
    5000000    2    1    2    0    0 -0.42897080465E+03  0.46484190390E+03  0.50872379461E+03  0.10092199161E+04  0.59969241530E+03 0.  0.
        -24    2    4    4    0    0 -0.39932454126E+03  0.42705639504E+03  0.62451316064E+03  0.85919759334E+03  0.79790743780E+02 0.  0.
         24    2    4    4    0    0 -0.29646263390E+02  0.37785508858E+02 -0.11578936603E+03  0.15002232275E+03  0.82418896046E+02 0.  0.
         11    1    5    5    0    0 -0.62973997992E+02  0.66299926638E+02  0.59062272170E+02  0.10885658772E+03  0.00000000000E+00 0. -1.
        -12    1    5    5    0    0 -0.33635054327E+03  0.36075646840E+03  0.56545088847E+03  0.75034100563E+03  0.00000000000E+00 0.  1.
         13    1    3    3    0    0  0.19892633881E+03 -0.26753048260E+03 -0.99725118575E+03  0.10515009153E+04  0.00000000000E+00 0. -1.
        -14    1    3    3    0    0  0.23004446584E+03 -0.19731142130E+03 -0.80523773508E+03  0.86038367211E+03  0.00000000000E+00 0.  1.
          4    1    6    6  502    0 -0.19877859289E+02  0.35542597469E+02 -0.76701489281E+01  0.41439554888E+02  0.00000000000E+00 0. -1.
         -3    1    6    6    0  502 -0.97684041014E+01  0.22429113891E+01 -0.10811921710E+03  0.10858276786E+03  0.00000000000E+00 0.  1.
<mgrwt>
<rscale>  0 0.63593617E+03</rscale>
<asrwt>0</asrwt>
<pdfrwt beam="1">  1        1 0.32422074E+00 0.63593617E+03</pdfrwt>
<pdfrwt beam="2">  1       -2 0.12517995E+00 0.63593617E+03</pdfrwt>
<totfact> 0.11338596E+00</totfact>
</mgrwt>
</event>
<event>
12    3  0.2269558E-007  0.7142393E+03  0.7818608E-02  0.9693186E-01
         -2   -1    0    0    0  501 -0.00000000000E+00  0.00000000000E+00  0.44418350432E+03  0.44418350432E+03  0.00000000000E+00 0.  1.
          1   -1    0    0  501    0  0.00000000000E+00 -0.00000000000E+00 -0.15414693071E+04  0.15414693071E+04  0.00000000000E+00 0. -1.
        -24    2    1    2    0    0  0.63181759851E+03 -0.25941623028E+03 -0.73713923593E+03  0.10080957069E+04  0.79952753157E+02 0.  0.
    5000000    2    1    2    0    0 -0.63181759851E+03  0.25941623028E+03 -0.36014656682E+03  0.97755710452E+03  0.59951821047E+03 0.  0.
        -24    2    4    4    0    0 -0.29418198848E+02 -0.55589845135E+00  0.12946911318E+03  0.15525708125E+03  0.80478385699E+02 0.  0.
         24    2    4    4    0    0 -0.60239939966E+03  0.25997212873E+03 -0.48961568000E+03  0.82230002327E+03  0.77351598146E+02 0.  0.
         13    1    3    3    0    0  0.39434116789E+03 -0.12458254968E+03 -0.47070735337E+03  0.62657097036E+03  0.00000000000E+00 0. -1.
        -14    1    3    3    0    0  0.23747643061E+03 -0.13483368061E+03 -0.26643188256E+03  0.38152473651E+03  0.00000000000E+00 0.  1.
         13    1    5    5    0    0  0.11211736055E+02 -0.32035942430E+02  0.44748097044E+02  0.56164017144E+02  0.00000000000E+00 0. -1.
        -14    1    5    5    0    0 -0.40629934903E+02  0.31480043978E+02  0.84721016138E+02  0.99093064109E+02  0.00000000000E+00 0.  1.
          2    1    6    6  502    0 -0.35112854148E+03  0.13920621230E+03 -0.32670066176E+03  0.49940258768E+03  0.00000000000E+00 0. -1.
         -1    1    6    6    0  502 -0.25127085818E+03  0.12076591643E+03 -0.16291501824E+03  0.32289743559E+03  0.00000000000E+00 0.  1.
<mgrwt>
<rscale>  0 0.71423933E+03</rscale>
<asrwt>0</asrwt>
<pdfrwt beam="1">  1        1 0.23714913E+00 0.71423933E+03</pdfrwt>
<pdfrwt beam="2">  1       -2 0.68335923E-01 0.71423933E+03</pdfrwt>
<totfact> 0.10925960E+01</totfact>
</mgrwt>
</event>
<event>
12    3  0.2269558E-007  0.9919034E+03  0.7818608E-02  0.9317470E-01
         -2   -1    0    0    0  501 -0.00000000000E+00  0.00000000000E+00  0.11538636148E+04  0.11538636148E+04  0.00000000000E+00 0.  1.
          1   -1    0    0  501    0  0.00000000000E+00 -0.00000000000E+00 -0.13528158240E+04  0.13528158240E+04  0.00000000000E+00 0. -1.
        -24    2    1    2    0    0  0.94143428176E+03 -0.24792931325E+03  0.56722701779E+03  0.11301629666E+04  0.88059014941E+02 0.  0.
    5000000    2    1    2    0    0 -0.94143428176E+03  0.24792931325E+03 -0.76617922702E+03  0.13765164723E+04  0.59999961606E+03 0.  0.
        -24    2    4    4    0    0 -0.48039860727E+03  0.26023215148E+03 -0.97569672315E+02  0.56051861000E+03  0.78470865072E+02 0.  0.
         24    2    4    4    0    0 -0.46103567448E+03 -0.12302838227E+02 -0.66860955471E+03  0.81599786227E+03  0.78157031765E+02 0.  0.
         11    1    5    5    0    0 -0.17441560565E+03  0.95165055412E+02  0.26089704140E+01  0.19870580765E+03  0.00000000000E+00 0. -1.
        -12    1    5    5    0    0 -0.30598300162E+03  0.16506709607E+03 -0.10017864273E+03  0.36181280235E+03  0.00000000000E+00 0.  1.
         13    1    3    3    0    0  0.60230346031E+03 -0.18610165699E+03  0.40404842441E+03  0.74877126968E+03  0.00000000000E+00 0. -1.
        -14    1    3    3    0    0  0.33913082145E+03 -0.61827656261E+02  0.16317859338E+03  0.38139169691E+03  0.00000000000E+00 0.  1.
          4    1    6    6  502    0 -0.27089931928E+03  0.86901366049E+01 -0.45179565246E+03  0.52685982125E+03  0.00000000000E+00 0. -1.
         -3    1    6    6    0  502 -0.19013635520E+03 -0.20992974832E+02 -0.21681390225E+03  0.28913804103E+03  0.00000000000E+00 0.  1.
<mgrwt>
<rscale>  0 0.99190336E+03</rscale>
<asrwt>0</asrwt>
<pdfrwt beam="1">  1        1 0.20812551E+00 0.99190336E+03</pdfrwt>
<pdfrwt beam="2">  1       -2 0.17751748E+00 0.99190336E+03</pdfrwt>
<totfact> 0.13703184E+00</totfact>
</mgrwt>
</event>
<event>
12    3  0.2269558E-007  0.5388120E+03  0.7818608E-02  0.1004117E+00
         -2   -1    0    0    0  501 -0.00000000000E+00  0.00000000000E+00  0.74732915748E+03  0.74732915748E+03  0.00000000000E+00 0.  1.
          1   -1    0    0  501    0  0.00000000000E+00 -0.00000000000E+00 -0.20847086167E+04  0.20847086167E+04  0.00000000000E+00 0. -1.
        -24    2    1    2    0    0  0.16194454255E+03 -0.46014373507E+03  0.58149960309E+03  0.76320137945E+03  0.79851521032E+02 0.  0.
    5000000    2    1    2    0    0 -0.16194454255E+03  0.46014373507E+03 -0.19188790623E+04  0.20688363947E+04  0.60002406668E+03 0.  0.
        -24    2    4    4    0    0  0.64016273817E+02  0.29235354190E+03 -0.32853824912E+03  0.45156272811E+03  0.80017744961E+02 0.  0.
         24    2    4    4    0    0 -0.22596081636E+03  0.16779019317E+03 -0.15903408132E+04  0.16172736666E+04  0.84725268926E+02 0.  0.
         11    1    5    5    0    0  0.15174219881E+02  0.19254841816E+02 -0.62712300689E+02  0.67333784537E+02  0.00000000000E+00 0. -1.
        -12    1    5    5    0    0  0.48842053936E+02  0.27309870008E+03 -0.26582594843E+03  0.38422894357E+03  0.00000000000E+00 0.  1.
         11    1    3    3    0    0  0.22300371302E+02 -0.17473294936E+02  0.50655345832E+02  0.58039526682E+02  0.00000000000E+00 0. -1.
        -12    1    3    3    0    0  0.13964417124E+03 -0.44267044014E+03  0.53084425725E+03  0.70516185276E+03  0.00000000000E+00 0.  1.
          4    1    6    6  502    0 -0.57244288658E+02  0.26377422626E+02 -0.56880449476E+03  0.57228596896E+03  0.00000000000E+00 0. -1.
         -3    1    6    6    0  502 -0.16871652770E+03  0.14141277055E+03 -0.10215363184E+04  0.10449876976E+04  0.00000000000E+00 0.  1.
<mgrwt>
<rscale>  0 0.53881198E+03</rscale>
<asrwt>0</asrwt>
<pdfrwt beam="1">  1        1 0.32072440E+00 0.53881198E+03</pdfrwt>
<pdfrwt beam="2">  1       -2 0.11497372E+00 0.53881198E+03</pdfrwt>
<totfact> 0.14833120E+00</totfact>
</mgrwt>
</event>
<event>
12    3  0.2269558E-007  0.1029200E+04  0.7818608E-02  0.9277086E-01
          1   -1    0    0  501    0  0.00000000000E+00  0.00000000000E+00  0.78806065450E+03  0.78806065450E+03  0.00000000000E+00 0. -1.
         -2   -1    0    0    0  501 -0.00000000000E+00 -0.00000000000E+00 -0.17673595464E+04  0.17673595464E+04  0.00000000000E+00 0.  1.
        -24    2    1    2    0    0  0.52765931206E+03 -0.82755313888E+03 -0.10018474989E+04  0.14045587220E+04  0.76277422756E+02 0.  0.
    5000000    2    1    2    0    0 -0.52765931206E+03  0.82755313888E+03  0.22548607087E+02  0.11508614788E+04  0.60058734293E+03 0.  0.
        -24    2    4    4    0    0 -0.44916685188E+03  0.31563069496E+03  0.21179307775E+03  0.59361995100E+03  0.78452163862E+02 0.  0.
         24    2    4    4    0    0 -0.78492460179E+02  0.51192244392E+03 -0.18924447066E+03  0.55724152782E+03  0.80492209302E+02 0.  0.
         11    1    5    5    0    0 -0.17629069400E+03  0.94373333614E+02  0.46137339324E+02  0.20521546961E+03  0.00000000000E+00 0. -1.
        -12    1    5    5    0    0 -0.27287615788E+03  0.22125736135E+03  0.16565573843E+03  0.38840448139E+03  0.00000000000E+00 0.  1.
         13    1    3    3    0    0  0.34534583413E+03 -0.48467299856E+03 -0.63640169408E+03  0.87130865765E+03  0.00000000000E+00 0. -1.
        -14    1    3    3    0    0  0.18231347794E+03 -0.34288014033E+03 -0.36544580486E+03  0.53325006437E+03  0.00000000000E+00 0.  1.
          4    1    6    6  502    0 -0.40072560099E+02  0.74744812954E+02 -0.39278907168E+02  0.93463520610E+02  0.00000000000E+00 0. -1.
         -3    1    6    6    0  502 -0.38419900080E+02  0.43717763097E+03 -0.14996556350E+03  0.46377800721E+03  0.00000000000E+00 0.  1.
<mgrwt>
<rscale>  0 0.10291997E+04</rscale>
<asrwt>0</asrwt>
<pdfrwt beam="1">  1        1 0.12124010E+00 0.10291997E+04</pdfrwt>
<pdfrwt beam="2">  1       -2 0.27190146E+00 0.10291997E+04</pdfrwt>
<totfact> 0.93727141E-01</totfact>
</mgrwt>
</event>
<event>
12    3  0.2269558E-007  0.5683617E+03  0.7818608E-02  0.9973310E-01
          1   -1    0    0  501    0  0.00000000000E+00  0.00000000000E+00  0.51817629579E+03  0.51817629579E+03  0.00000000000E+00 0. -1.
         -2   -1    0    0    0  501 -0.00000000000E+00 -0.00000000000E+00 -0.77807182221E+03  0.77807182221E+03  0.00000000000E+00 0.  1.
        -24    2    1    2    0    0 -0.16338608303E+03 -0.37655573688E+03 -0.37345714004E+03  0.56041371649E+03  0.78128503549E+02 0.  0.
    5000000    2    1    2    0    0  0.16338608303E+03  0.37655573688E+03  0.11356161362E+03  0.73583440152E+03  0.60005565680E+03 0.  0.
        -24    2    4    4    0    0 -0.43939767330E+02 -0.13747720950E+03 -0.36630133118E+01  0.16447565229E+03  0.78791726998E+02 0.  0.
         24    2    4    4    0    0  0.20732585036E+03  0.51403294639E+03  0.11722462694E+03  0.57135874923E+03  0.74130486017E+02 0.  0.
         11    1    5    5    0    0  0.16789390824E+02 -0.76608631281E+02 -0.30354119452E+00  0.78427406997E+02  0.00000000000E+00 0. -1.
        -12    1    5    5    0    0 -0.60729158154E+02 -0.60868578224E+02 -0.33594721172E+01  0.86048245293E+02  0.00000000000E+00 0.  1.
         13    1    3    3    0    0 -0.14754006252E+01 -0.36063668876E+02 -0.11805712215E+02  0.37975516596E+02  0.00000000000E+00 0. -1.
        -14    1    3    3    0    0 -0.16191068241E+03 -0.34049206801E+03 -0.36165142783E+03  0.52243819989E+03  0.00000000000E+00 0.  1.
          2    1    6    6  502    0  0.12302572704E+03  0.20702407936E+03  0.52312137726E+02  0.24643631774E+03  0.00000000000E+00 0. -1.
         -1    1    6    6    0  502  0.84300123318E+02  0.30700886703E+03  0.64912489210E+02  0.32492243149E+03  0.00000000000E+00 0.  1.
<mgrwt>
<rscale>  0 0.56836172E+03</rscale>
<asrwt>0</asrwt>
<pdfrwt beam="1">  1        1 0.79719431E-01 0.56836172E+03</pdfrwt>
<pdfrwt beam="2">  1       -2 0.11970336E+00 0.56836172E+03</pdfrwt>
<totfact> 0.20443076E+01</totfact>
</mgrwt>
</event>
<event>
12    3  0.2269558E-007  0.6849338E+03  0.7818608E-02  0.9743350E-01
         -2   -1    0    0    0  501 -0.00000000000E+00  0.00000000000E+00  0.87048758207E+03  0.87048758207E+03  0.00000000000E+00 0.  1.
          1   -1    0    0  501    0  0.00000000000E+00 -0.00000000000E+00 -0.96711671856E+03  0.96711671856E+03  0.00000000000E+00 0. -1.
        -24    2    1    2    0    0 -0.46785547457E+03 -0.32460896625E+03 -0.63009959094E+03  0.85344750460E+03  0.84186831180E+02 0.  0.
    5000000    2    1    2    0    0  0.46785547457E+03  0.32460896625E+03  0.53347045445E+03  0.98415679603E+03  0.59976174214E+03 0.  0.
        -24    2    4    4    0    0  0.51899722535E+03  0.68483902051E+02  0.23491183156E+03  0.57937101109E+03  0.80243598587E+02 0.  0.
         24    2    4    4    0    0 -0.51141750787E+02  0.25612506420E+03  0.29855862289E+03  0.40478578494E+03  0.80614844792E+02 0.  0.
         11    1    5    5    0    0  0.51924883431E+03  0.66561124558E+02  0.23851968179E+03  0.57527504190E+03  0.00000000000E+00 0. -1.
        -12    1    5    5    0    0 -0.25160895049E+00  0.19227774929E+01 -0.36078502259E+01  0.40959691897E+01  0.00000000000E+00 0.  1.
         13    1    3    3    0    0 -0.22764057333E+03 -0.18737227410E+03 -0.27388335605E+03  0.40241855381E+03  0.00000000000E+00 0. -1.
        -14    1    3    3    0    0 -0.24021490124E+03 -0.13723669215E+03 -0.35621623490E+03  0.45102895079E+03  0.00000000000E+00 0.  1.
          2    1    6    6  502    0 -0.69815876462E+02  0.23290077015E+03  0.27244940090E+03  0.36516530694E+03  0.00000000000E+00 0. -1.
         -1    1    6    6    0  502  0.18674125675E+02  0.23224294057E+02  0.26109221996E+02  0.39620478005E+02  0.00000000000E+00 0.  1.
<mgrwt>
<rscale>  0 0.68493376E+03</rscale>
<asrwt>0</asrwt>
<pdfrwt beam="1">  1        1 0.14878719E+00 0.68493376E+03</pdfrwt>
<pdfrwt beam="2">  1       -2 0.13392117E+00 0.68493376E+03</pdfrwt>
<totfact> 0.58605437E+00</totfact>
</mgrwt>
</event>
<event>
12    3  0.2269558E-007  0.4181344E+03  0.7818608E-02  0.1037675E+00
          1   -1    0    0  501    0  0.00000000000E+00  0.00000000000E+00  0.25710317417E+03  0.25710317417E+03  0.00000000000E+00 0. -1.
         -2   -1    0    0    0  501 -0.00000000000E+00 -0.00000000000E+00 -0.11646336165E+04  0.11646336165E+04  0.00000000000E+00 0.  1.
        -24    2    1    2    0    0 -0.12037612105E+03 -0.17844266822E+03  0.82530030603E+02  0.24417278919E+03  0.80479492229E+02 0.  0.
    5000000    2    1    2    0    0  0.12037612105E+03  0.17844266822E+03 -0.99006047296E+03  0.11775640015E+04  0.60008752790E+03 0.  0.
        -24    2    4    4    0    0  0.31793889787E+02 -0.20688388868E+03 -0.45794192942E+03  0.50974401954E+03  0.79475530263E+02 0.  0.
         24    2    4    4    0    0  0.88582231265E+02  0.38532655690E+03 -0.53211854354E+03  0.66781998196E+03  0.80684674958E+02 0.  0.
         13    1    3    3    0    0 -0.86702557363E+01 -0.73991910805E+02  0.43772891348E+02  0.86406262598E+02  0.00000000000E+00 0. -1.
        -14    1    3    3    0    0 -0.11170586531E+03 -0.10445075742E+03  0.38757139255E+02  0.15776652659E+03  0.00000000000E+00 0.  1.
         13    1    5    5    0    0  0.13866048277E+02 -0.37966896484E+02 -0.33241621174E+02  0.52333143434E+02  0.00000000000E+00 0. -1.
        -14    1    5    5    0    0  0.17927841510E+02 -0.16891699220E+03 -0.42470030824E+03  0.45741087610E+03  0.00000000000E+00 0.  1.
          4    1    6    6  502    0  0.88538700124E+02  0.28972116532E+03 -0.35624943098E+03  0.46764421533E+03  0.00000000000E+00 0. -1.
         -3    1    6    6    0  502  0.43531140733E-01  0.95605391589E+02 -0.17586911256E+03  0.20017576663E+03  0.00000000000E+00 0.  1.
<mgrwt>
<rscale>  0 0.41813440E+03</rscale>
<asrwt>0</asrwt>
<pdfrwt beam="1">  1        1 0.39554335E-01 0.41813440E+03</pdfrwt>
<pdfrwt beam="2">  1       -2 0.17917440E+00 0.41813440E+03</pdfrwt>
<totfact> 0.18150378E+01</totfact>
</mgrwt>
</event>
<event>
12    3  0.2269558E-007  0.7436533E+03  0.7818608E-02  0.9645360E-01
         -2   -1    0    0    0  501 -0.00000000000E+00  0.00000000000E+00  0.69083091851E+03  0.69083091851E+03  0.00000000000E+00 0.  1.
          1   -1    0    0  501    0  0.00000000000E+00 -0.00000000000E+00 -0.85057032240E+03  0.85057032240E+03  0.00000000000E+00 0. -1.
        -24    2    1    2    0    0  0.63234256677E+03 -0.30279767532E+02 -0.19702148165E+03  0.66824478945E+03  0.83424506740E+02 0.  0.
    5000000    2    1    2    0    0 -0.63234256677E+03  0.30279767532E+02  0.37282077767E+02  0.87315645146E+03  0.60019850827E+03 0.  0.
        -24    2    4    4    0    0 -0.47733872313E+03 -0.24284087232E+03  0.76156635762E+02  0.54679427188E+03  0.79750841459E+02 0.  0.
         24    2    4    4    0    0 -0.15500384364E+03  0.27312063986E+03 -0.38874557995E+02  0.32636217958E+03  0.79874686495E+02 0.  0.
         13    1    3    3    0    0  0.20506732668E+03 -0.37908934300E+02 -0.93490497793E+02  0.22853920659E+03  0.00000000000E+00 0. -1.
        -14    1    3    3    0    0  0.42727524010E+03  0.76291667676E+01 -0.10353098386E+03  0.43970558287E+03  0.00000000000E+00 0.  1.
         13    1    5    5    0    0 -0.73824878559E+01  0.16017882069E+01  0.10613621936E+02  0.13027502562E+02  0.00000000000E+00 0. -1.
        -14    1    5    5    0    0 -0.46995623528E+03 -0.24444266053E+03  0.65543013826E+02  0.53376676931E+03  0.00000000000E+00 0.  1.
          4    1    6    6  502    0 -0.21270997032E+02  0.32211389682E+02  0.21644778170E+02  0.44255229770E+02  0.00000000000E+00 0. -1.
         -3    1    6    6    0  502 -0.13373284661E+03  0.24090925017E+03 -0.60519336165E+02  0.28210694981E+03  0.00000000000E+00 0.  1.
<mgrwt>
<rscale>  0 0.74365335E+03</rscale>
<asrwt>0</asrwt>
<pdfrwt beam="1">  1        1 0.13085697E+00 0.74365335E+03</pdfrwt>
<pdfrwt beam="2">  1       -2 0.10628168E+00 0.74365335E+03</pdfrwt>
<totfact> 0.12800620E+01</totfact>
</mgrwt>
</event>
<event>
12    3  0.2269558E-007  0.6275164E+03  0.7818608E-02  0.9849907E-01
         -2   -1    0    0    0  501 -0.00000000000E+00  0.00000000000E+00  0.28475043001E+03  0.28475043001E+03  0.00000000000E+00 0.  1.
          1   -1    0    0  501    0  0.00000000000E+00 -0.00000000000E+00 -0.17036897333E+04  0.17036897333E+04  0.00000000000E+00 0. -1.
        -24    2    1    2    0    0 -0.33280797833E+03 -0.36512243498E+03 -0.96914326572E+03  0.10904544099E+04  0.76003997340E+02 0.  0.
    5000000    2    1    2    0    0  0.33280797833E+03  0.36512243498E+03 -0.44979603754E+03  0.89798575339E+03  0.59998866235E+03 0.  0.
        -24    2    4    4    0    0  0.20875878135E+03 -0.12339522082E+03 -0.22497082438E+03  0.34036364218E+03  0.80180594791E+02 0.  0.
         24    2    4    4    0    0  0.12404919698E+03  0.48851765580E+03 -0.22482521316E+03  0.55762211121E+03  0.79739194512E+02 0.  0.
         11    1    5    5    0    0  0.19539186237E+03 -0.83049396651E+02 -0.17837888546E+03  0.27729805074E+03  0.00000000000E+00 0. -1.
        -12    1    5    5    0    0  0.13366918976E+02 -0.40345824173E+02 -0.46591938918E+02  0.63065591437E+02  0.00000000000E+00 0.  1.
         13    1    3    3    0    0 -0.21327879142E+03 -0.25055896861E+03 -0.71583753035E+03  0.78783945666E+03  0.00000000000E+00 0. -1.
        -14    1    3    3    0    0 -0.11952918690E+03 -0.11456346637E+03 -0.25330573537E+03  0.30261495323E+03  0.00000000000E+00 0.  1.
          4    1    6    6  502    0  0.44280138050E+02  0.10615456911E+03 -0.83953814296E+02  0.14240002143E+03  0.00000000000E+00 0. -1.
         -3    1    6    6    0  502  0.79769058930E+02  0.38236308669E+03 -0.14087139886E+03  0.41522208978E+03  0.00000000000E+00 0.  1.
<mgrwt>
<rscale>  0 0.62751638E+03</rscale>
<asrwt>0</asrwt>
<pdfrwt beam="1">  1        1 0.26210612E+00 0.62751638E+03</pdfrwt>
<pdfrwt beam="2">  1       -2 0.43807758E-01 0.62751638E+03</pdfrwt>
<totfact> 0.21595687E+01</totfact>
</mgrwt>
</event>
<event>
12    3  0.2269558E-007  0.3466970E+03  0.7818608E-02  0.1063979E+00
         -2   -1    0    0    0  501 -0.00000000000E+00  0.00000000000E+00  0.11829251217E+03  0.11829251217E+03  0.00000000000E+00 0.  1.
          1   -1    0    0  501    0  0.00000000000E+00 -0.00000000000E+00 -0.28134810459E+04  0.28134810459E+04  0.00000000000E+00 0. -1.
        -24    2    1    2    0    0  0.15993524774E+01  0.25086026272E+03 -0.18331604252E+04  0.18519624318E+04  0.79713707106E+02 0.  0.
    5000000    2    1    2    0    0 -0.15993524774E+01 -0.25086026272E+03 -0.86202810857E+03  0.10798111263E+04  0.59997181525E+03 0.  0.
        -24    2    4    4    0    0  0.80708446772E+02  0.65342611256E+02 -0.68932208052E+03  0.70158219501E+03  0.79177872149E+02 0.  0.
         24    2    4    4    0    0 -0.82307799250E+02 -0.31620287397E+03 -0.17270602805E+03  0.37822893125E+03  0.80442034916E+02 0.  0.
         11    1    3    3    0    0  0.30040099497E+02  0.13415629003E+03 -0.11657699416E+04  0.11738483183E+04  0.00000000000E+00 0. -1.
        -12    1    3    3    0    0 -0.28440747020E+02  0.11670397269E+03 -0.66739048363E+03  0.67811411353E+03  0.00000000000E+00 0.  1.
         13    1    5    5    0    0  0.49395718123E+02  0.20547407931E+02 -0.14555658769E+03  0.15507692660E+03  0.00000000000E+00 0. -1.
        -14    1    5    5    0    0  0.31312728649E+02  0.44795203324E+02 -0.54376549283E+03  0.54650526841E+03  0.00000000000E+00 0.  1.
          2    1    6    6  502    0 -0.44525601614E+02 -0.21627739879E+03 -0.74286783866E+02  0.23297418030E+03  0.00000000000E+00 0. -1.
         -1    1    6    6    0  502 -0.37782197636E+02 -0.99925475179E+02 -0.98419244180E+02  0.14525475095E+03  0.00000000000E+00 0.  1.
<mgrwt>
<rscale>  0 0.34669703E+03</rscale>
<asrwt>0</asrwt>
<pdfrwt beam="1">  1        1 0.43284318E+00 0.34669703E+03</pdfrwt>
<pdfrwt beam="2">  1       -2 0.18198851E-01 0.34669703E+03</pdfrwt>
<totfact> 0.20704790E+01</totfact>
</mgrwt>
</event>
<event>
12    3  0.2269558E-007  0.8056211E+03  0.7818608E-02  0.9551916E-01
          1   -1    0    0  501    0  0.00000000000E+00  0.00000000000E+00  0.11811722174E+04  0.11811722174E+04  0.00000000000E+00 0. -1.
         -2   -1    0    0    0  501 -0.00000000000E+00 -0.00000000000E+00 -0.58087634538E+03  0.58087634538E+03  0.00000000000E+00 0.  1.
        -24    2    1    2    0    0  0.65245602848E+03 -0.27433581151E+03  0.38324355485E+03  0.80914155673E+03  0.82918212156E+02 0.  0.
    5000000    2    1    2    0    0 -0.65245602848E+03  0.27433581151E+03  0.21705231714E+03  0.95290700603E+03  0.59996753845E+03 0.  0.
        -24    2    4    4    0    0 -0.65869926831E+03  0.43242156739E+02  0.71962841708E+02  0.66874383937E+03  0.79278382407E+02 0.  0.
         24    2    4    4    0    0  0.62432398292E+01  0.23109365477E+03  0.14508947543E+03  0.28416316666E+03  0.79085359493E+02 0.  0.
         11    1    3    3    0    0  0.33329300163E+03 -0.13414800499E+03  0.24112471054E+03  0.43269046466E+03  0.00000000000E+00 0. -1.
        -12    1    3    3    0    0  0.31916302685E+03 -0.14018780652E+03  0.14211884431E+03  0.37645109206E+03  0.00000000000E+00 0.  1.
         13    1    5    5    0    0 -0.38233989470E+03  0.85995408446E+01  0.58443245006E+01  0.38248124570E+03  0.00000000000E+00 0. -1.
        -14    1    5    5    0    0 -0.27635937361E+03  0.34642615894E+02  0.66118517208E+02  0.28626259368E+03  0.00000000000E+00 0.  1.
          2    1    6    6  502    0 -0.13189080064E+02  0.21926906560E+03  0.12003281744E+03  0.25032129798E+03  0.00000000000E+00 0. -1.
         -1    1    6    6    0  502  0.19432319893E+02  0.11824589168E+02  0.25056657999E+02  0.33841868676E+02  0.00000000000E+00 0.  1.
<mgrwt>
<rscale>  0 0.80562107E+03</rscale>
<asrwt>0</asrwt>
<pdfrwt beam="1">  1        1 0.18171880E+00 0.80562107E+03</pdfrwt>
<pdfrwt beam="2">  1       -2 0.89365592E-01 0.80562107E+03</pdfrwt>
<totfact> 0.10600418E+01</totfact>
</mgrwt>
</event>
<event>
12    3  0.2269558E-007  0.6644524E+03  0.7818608E-02  0.9780032E-01
          1   -1    0    0  501    0  0.00000000000E+00  0.00000000000E+00  0.59730791951E+03  0.59730791951E+03  0.00000000000E+00 0. -1.
         -2   -1    0    0    0  501 -0.00000000000E+00 -0.00000000000E+00 -0.78922632046E+03  0.78922632046E+03  0.00000000000E+00 0.  1.
        -24    2    1    2    0    0 -0.24404462342E+02  0.54620269672E+03 -0.15514647367E+03  0.57393088303E+03  0.79957904661E+02 0.  0.
    5000000    2    1    2    0    0  0.24404462342E+02 -0.54620269672E+03 -0.36771927284E+02  0.81260335694E+03  0.60003256361E+03 0.  0.
        -24    2    4    4    0    0  0.15994587095E+03  0.35489991664E+02 -0.98889999170E+02  0.20684064240E+03  0.78495848762E+02 0.  0.
         24    2    4    4    0    0 -0.13554140860E+03 -0.58169268838E+03  0.62118071886E+02  0.60576271454E+03  0.79699148700E+02 0.  0.
         13    1    5    5    0    0  0.56816857847E+02  0.46661135620E+02 -0.63770209628E+02  0.97324491003E+02  0.00000000000E+00 0. -1.
        -14    1    5    5    0    0  0.10312901310E+03 -0.11171143956E+02 -0.35119789541E+02  0.10951615140E+03  0.00000000000E+00 0.  1.
         13    1    3    3    0    0 -0.42188562281E+02  0.15976570772E+03 -0.57389596911E+02  0.17492433217E+03  0.00000000000E+00 0. -1.
        -14    1    3    3    0    0  0.17784099939E+02  0.38643698900E+03 -0.97756876756E+02  0.39900655086E+03  0.00000000000E+00 0.  1.
          2    1    6    6  502    0 -0.83272032103E+02 -0.24326793962E+03 -0.32299631031E+01  0.25714578441E+03  0.00000000000E+00 0. -1.
         -1    1    6    6    0  502 -0.52269376502E+02 -0.33842474876E+03  0.65348034989E+02  0.34861693012E+03  0.00000000000E+00 0.  1.
<mgrwt>
<rscale>  0 0.66445243E+03</rscale>
<asrwt>0</asrwt>
<pdfrwt beam="1">  1        1 0.91893527E-01 0.66445243E+03</pdfrwt>
<pdfrwt beam="2">  1       -2 0.12141943E+00 0.66445243E+03</pdfrwt>
<totfact> 0.15998152E+01</totfact>
</mgrwt>
</event>
<event>
12    3  0.2269558E-007  0.6666687E+03  0.7818608E-02  0.9775995E-01
         -2   -1    0    0    0  501 -0.00000000000E+00  0.00000000000E+00  0.38842979916E+03  0.38842979916E+03  0.00000000000E+00 0.  1.
          1   -1    0    0  501    0  0.00000000000E+00 -0.00000000000E+00 -0.22702196017E+04  0.22702196017E+04  0.00000000000E+00 0. -1.
        -24    2    1    2    0    0 -0.53684846678E+03 -0.44518082439E+02  0.67959694986E+02  0.54871126634E+03  0.79230030413E+02 0.  0.
    5000000    2    1    2    0    0  0.53684846678E+03  0.44518082439E+02 -0.19497494975E+04  0.21099381345E+04  0.60010640092E+03 0.  0.
        -24    2    4    4    0    0 -0.18891924955E+02 -0.18032487945E+03 -0.40310312474E+03  0.44924587565E+03  0.80347748221E+02 0.  0.
         24    2    4    4    0    0  0.55574039174E+03  0.22484296189E+03 -0.15466463728E+04  0.16606922588E+04  0.79887643981E+02 0.  0.
         13    1    3    3    0    0 -0.17830286525E+03 -0.52425285316E+02  0.24121333790E+02  0.18740907406E+03  0.00000000000E+00 0. -1.
        -14    1    3    3    0    0 -0.35854560153E+03  0.79072028771E+01  0.43838361196E+02  0.36130219228E+03  0.00000000000E+00 0.  1.
         13    1    5    5    0    0  0.15917347527E+02 -0.75552704588E+02 -0.97871481275E+02  0.12466114058E+03  0.00000000000E+00 0. -1.
        -14    1    5    5    0    0 -0.34809272483E+02 -0.10477217486E+03 -0.30523164346E+03  0.32458473508E+03  0.00000000000E+00 0.  1.
          2    1    6    6  502    0  0.25552410365E+03  0.78887835530E+02 -0.59950668239E+03  0.65644810942E+03  0.00000000000E+00 0. -1.
         -1    1    6    6    0  502  0.30021628809E+03  0.14595512636E+03 -0.94713969038E+03  0.10042441494E+04  0.00000000000E+00 0.  1.
<mgrwt>
<rscale>  0 0.66666874E+03</rscale>
<asrwt>0</asrwt>
<pdfrwt beam="1">  1        1 0.34926455E+00 0.66666874E+03</pdfrwt>
<pdfrwt beam="2">  1       -2 0.59758431E-01 0.66666874E+03</pdfrwt>
<totfact> 0.47659102E+00</totfact>
</mgrwt>
</event>
<event>
12    3  0.2269558E-007  0.6310302E+03  0.7818608E-02  0.9843041E-01
         -2   -1    0    0    0  501 -0.00000000000E+00  0.00000000000E+00  0.63272791881E+03  0.63272791881E+03  0.00000000000E+00 0.  1.
          1   -1    0    0  501    0  0.00000000000E+00 -0.00000000000E+00 -0.18419993101E+04  0.18419993101E+04  0.00000000000E+00 0. -1.
        -24    2    1    2    0    0 -0.39651764740E+03 -0.29053385103E+03 -0.15496621941E+04  0.16277324051E+04  0.80148009302E+02 0.  0.
    5000000    2    1    2    0    0  0.39651764740E+03  0.29053385103E+03  0.34039080277E+03  0.84699482389E+03  0.59991513549E+03 0.  0.
        -24    2    4    4    0    0 -0.12984731363E+03 -0.27877902823E+02  0.77861799336E+02  0.17363491301E+03  0.80306418788E+02 0.  0.
         24    2    4    4    0    0  0.52636496103E+03  0.31841175385E+03  0.26252900343E+03  0.67335991087E+03  0.77755866242E+02 0.  0.
         13    1    3    3    0    0 -0.33820425955E+03 -0.24262778035E+03 -0.12036883680E+04  0.12736231971E+04  0.00000000000E+00 0. -1.
        -14    1    3    3    0    0 -0.58313387849E+02 -0.47906070674E+02 -0.34597382608E+03  0.35410920793E+03  0.00000000000E+00 0.  1.
         13    1    5    5    0    0 -0.71498767336E+02  0.22311352090E+02  0.56324086330E+02  0.93713781610E+02  0.00000000000E+00 0. -1.
        -14    1    5    5    0    0 -0.58348546295E+02 -0.50189254913E+02  0.21537713006E+02  0.79921131405E+02  0.00000000000E+00 0.  1.
          2    1    6    6  502    0  0.40600907433E+03  0.27577297676E+03  0.18847499746E+03  0.52575367599E+03  0.00000000000E+00 0. -1.
         -1    1    6    6    0  502  0.12035588670E+03  0.42638777090E+02  0.74054005974E+02  0.14760623489E+03  0.00000000000E+00 0.  1.
<mgrwt>
<rscale>  0 0.63103017E+03</rscale>
<asrwt>0</asrwt>
<pdfrwt beam="1">  1        1 0.28338450E+00 0.63103017E+03</pdfrwt>
<pdfrwt beam="2">  1       -2 0.97342760E-01 0.63103017E+03</pdfrwt>
<totfact> 0.31340975E+00</totfact>
</mgrwt>
</event>
<event>
12    3  0.2269558E-007  0.9745404E+03  0.7818608E-02  0.9336918E-01
          1   -1    0    0  501    0  0.00000000000E+00  0.00000000000E+00  0.18620599909E+04  0.18620599909E+04  0.00000000000E+00 0. -1.
         -2   -1    0    0    0  501 -0.00000000000E+00 -0.00000000000E+00 -0.53627772631E+03  0.53627772631E+03  0.00000000000E+00 0.  1.
        -24    2    1    2    0    0 -0.39060223658E+03 -0.79480914467E+03  0.84042447215E+03  0.12234597420E+04  0.79049118917E+02 0.  0.
    5000000    2    1    2    0    0  0.39060223658E+03  0.79480914467E+03  0.48535779240E+03  0.11748779752E+04  0.60039519174E+03 0.  0.
        -24    2    4    4    0    0 -0.11910224794E+03  0.38496315297E+03  0.17280547523E+03  0.44570817343E+03  0.80075395671E+02 0.  0.
         24    2    4    4    0    0  0.50970448452E+03  0.40984599170E+03  0.31255231717E+03  0.72916980175E+03  0.78912929003E+02 0.  0.
         13    1    3    3    0    0 -0.17267688962E+02 -0.88199293761E+02  0.89887296972E+02  0.12711024608E+03  0.00000000000E+00 0. -1.
        -14    1    3    3    0    0 -0.37333454762E+03 -0.70660985091E+03  0.75053717517E+03  0.10963494959E+04  0.00000000000E+00 0.  1.
         13    1    5    5    0    0 -0.10729322749E+03  0.27583828776E+03  0.15631842877E+03  0.33471487692E+03  0.00000000000E+00 0. -1.
        -14    1    5    5    0    0 -0.11809020449E+02  0.10912486520E+03  0.16487046461E+02  0.11099329651E+03  0.00000000000E+00 0.  1.
          4    1    6    6  502    0  0.23601406003E+03  0.17801446434E+03  0.18368983768E+03  0.34804273087E+03  0.00000000000E+00 0. -1.
         -3    1    6    6    0  502  0.27369042449E+03  0.23183152736E+03  0.12886247949E+03  0.38112707088E+03  0.00000000000E+00 0.  1.
<mgrwt>
<rscale>  0 0.97454042E+03</rscale>
<asrwt>0</asrwt>
<pdfrwt beam="1">  1        1 0.28647077E+00 0.97454042E+03</pdfrwt>
<pdfrwt beam="2">  1       -2 0.82504266E-01 0.97454042E+03</pdfrwt>
<totfact> 0.42203985E+00</totfact>
</mgrwt>
</event>
<event>
12    3  0.2269558E-007  0.1029713E+04  0.7818608E-02  0.9276543E-01
          1   -1    0    0  501    0  0.00000000000E+00  0.00000000000E+00  0.10184629695E+04  0.10184629695E+04  0.00000000000E+00 0. -1.
         -2   -1    0    0    0  501 -0.00000000000E+00 -0.00000000000E+00 -0.11994222916E+04  0.11994222916E+04  0.00000000000E+00 0.  1.
        -24    2    1    2    0    0 -0.86152724007E+03  0.50699444516E+03 -0.29746874285E+03  0.10460480632E+04  0.80351383448E+02 0.  0.
    5000000    2    1    2    0    0  0.86152724007E+03 -0.50699444516E+03  0.11650942072E+03  0.11718371978E+04  0.60029611050E+03 0.  0.
        -24    2    4    4    0    0  0.70294170990E+03 -0.52323861017E+03  0.28570002447E+03  0.92462955496E+03  0.73550113743E+02 0.  0.
         24    2    4    4    0    0  0.15858553017E+03  0.16244165002E+02 -0.16919060375E+03  0.24720764287E+03  0.84100624379E+02 0.  0.
         11    1    5    5    0    0  0.22142318343E+03 -0.17707731628E+03  0.58050831595E+02  0.28940369927E+03  0.00000000000E+00 0. -1.
        -12    1    5    5    0    0  0.48151852647E+03 -0.34616129389E+03  0.22764919288E+03  0.63522585569E+03  0.00000000000E+00 0.  1.
         13    1    3    3    0    0 -0.64649916038E+03  0.34052517743E+03 -0.20685796971E+03  0.75941344501E+03  0.00000000000E+00 0. -1.
        -14    1    3    3    0    0 -0.21502807969E+03  0.16646926774E+03 -0.90610773144E+02  0.28663461823E+03  0.00000000000E+00 0.  1.
          4    1    6    6  502    0 -0.48322899070E+01 -0.13319263948E+02 -0.13297475733E+02  0.19431332398E+02  0.00000000000E+00 0. -1.
         -3    1    6    6    0  502  0.16341782008E+03  0.29563428950E+02 -0.15589312801E+03  0.22777631048E+03  0.00000000000E+00 0.  1.
<mgrwt>
<rscale>  0 0.10297134E+04</rscale>
<asrwt>0</asrwt>
<pdfrwt beam="1">  1        1 0.15668661E+00 0.10297134E+04</pdfrwt>
<pdfrwt beam="2">  1       -2 0.18452651E+00 0.10297134E+04</pdfrwt>
<totfact> 0.21505900E+00</totfact>
</mgrwt>
</event>
<event>
12    3  0.2269558E-007  0.7904732E+03  0.7818608E-02  0.9573910E-01
          1   -1    0    0  501    0  0.00000000000E+00  0.00000000000E+00  0.27017953812E+03  0.27017953812E+03  0.00000000000E+00 0. -1.
         -2   -1    0    0    0  501 -0.00000000000E+00 -0.00000000000E+00 -0.43034030172E+04  0.43034030172E+04  0.00000000000E+00 0.  1.
        -24    2    1    2    0    0 -0.48765492545E+03  0.51883803347E+03 -0.33314939082E+04  0.34076878088E+04  0.80525214091E+02 0.  0.
    5000000    2    1    2    0    0  0.48765492545E+03 -0.51883803347E+03 -0.70172957083E+03  0.11658947465E+04  0.59990494092E+03 0.  0.
        -24    2    4    4    0    0  0.60475177959E+02  0.93978156755E+02 -0.12110778542E+00  0.13768427406E+03  0.80422655757E+02 0.  0.
         24    2    4    4    0    0  0.42717974749E+03 -0.61281619023E+03 -0.70160846305E+03  0.10282104725E+04  0.83283375550E+02 0.  0.
         11    1    3    3    0    0 -0.25522611386E+03  0.28816684851E+03 -0.16155692062E+04  0.16607963035E+04  0.00000000000E+00 0. -1.
        -12    1    3    3    0    0 -0.23242881159E+03  0.23067118496E+03 -0.17159247021E+04  0.17468915053E+04  0.00000000000E+00 0.  1.
         13    1    5    5    0    0  0.22387554899E+02  0.70735815161E+02 -0.34046119070E+02  0.81632691886E+02  0.00000000000E+00 0. -1.
        -14    1    5    5    0    0  0.38087623059E+02  0.23242341595E+02  0.33925011284E+02  0.56051582170E+02  0.00000000000E+00 0.  1.
          4    1    6    6  502    0  0.14703631224E+03 -0.16037029112E+03 -0.17107234322E+03  0.27677437382E+03  0.00000000000E+00 0. -1.
         -3    1    6    6    0  502  0.28014343525E+03 -0.45244589911E+03 -0.53053611983E+03  0.75143609867E+03  0.00000000000E+00 0.  1.
<mgrwt>
<rscale>  0 0.79047321E+03</rscale>
<asrwt>0</asrwt>
<pdfrwt beam="1">  1        1 0.41566086E-01 0.79047321E+03</pdfrwt>
<pdfrwt beam="2">  1       -2 0.66206195E+00 0.79047321E+03</pdfrwt>
<totfact> 0.27750429E-02</totfact>
</mgrwt>
</event>
<event>
12    3  0.2269558E-007  0.1882537E+04  0.7818608E-02  0.8663598E-01
         -2   -1    0    0    0  501 -0.00000000000E+00  0.00000000000E+00  0.10607343206E+04  0.10607343206E+04  0.00000000000E+00 0.  1.
          1   -1    0    0  501    0  0.00000000000E+00 -0.00000000000E+00 -0.34381089948E+04  0.34381089948E+04  0.00000000000E+00 0. -1.
        -24    2    1    2    0    0 -0.10891196947E+04 -0.15007828778E+04 -0.96608106385E+03  0.20925097248E+04  0.82178895553E+02 0.  0.
    5000000    2    1    2    0    0  0.10891196947E+04  0.15007828778E+04 -0.14112936104E+04  0.24063335906E+04  0.60013393411E+03 0.  0.
        -24    2    4    4    0    0  0.61676979743E+03  0.11833285734E+04 -0.75870885842E+03  0.15366401825E+04  0.70373454346E+02 0.  0.
         24    2    4    4    0    0  0.47234989724E+03  0.31745430443E+03 -0.65258475194E+03  0.86969340806E+03  0.81290249967E+02 0.  0.
         13    1    3    3    0    0 -0.61736045002E+03 -0.88656363117E+03 -0.60161486059E+03  0.12365554730E+04  0.00000000000E+00 0. -1.
        -14    1    3    3    0    0 -0.47175924465E+03 -0.61421924666E+03 -0.36446620326E+03  0.85595425181E+03  0.00000000000E+00 0.  1.
         13    1    5    5    0    0  0.60997203829E+03  0.11790765695E+04 -0.75778320104E+03  0.15285688810E+04  0.00000000000E+00 0. -1.
        -14    1    5    5    0    0  0.67977591417E+01  0.42520039009E+01 -0.92565737698E+00  0.80713015123E+01  0.00000000000E+00 0.  1.
          4    1    6    6  502    0  0.41861429941E+03  0.30904793625E+03 -0.58453694916E+03  0.78258034955E+03  0.00000000000E+00 0. -1.
         -3    1    6    6    0  502  0.53735597826E+02  0.84063681807E+01 -0.68047802777E+02  0.87113058508E+02  0.00000000000E+00 0.  1.
<mgrwt>
<rscale>  0 0.18825366E+04</rscale>
<asrwt>0</asrwt>
<pdfrwt beam="1">  1        1 0.52893985E+00 0.18825366E+04</pdfrwt>
<pdfrwt beam="2">  1       -2 0.16318989E+00 0.18825366E+04</pdfrwt>
<totfact> 0.53217811E-02</totfact>
</mgrwt>
</event>
<event>
12    3  0.2269558E-007  0.1278400E+04  0.7818608E-02  0.9046872E-01
         -2   -1    0    0    0  501 -0.00000000000E+00  0.00000000000E+00  0.13978909468E+04  0.13978909468E+04  0.00000000000E+00 0.  1.
          1   -1    0    0  501    0  0.00000000000E+00 -0.00000000000E+00 -0.14437528261E+04  0.14437528261E+04  0.00000000000E+00 0. -1.
        -24    2    1    2    0    0  0.90493793081E+03 -0.86153828329E+03  0.50511041373E+03  0.13501037971E+04  0.80516213080E+02 0.  0.
    5000000    2    1    2    0    0 -0.90493793081E+03  0.86153828329E+03 -0.55097229301E+03  0.14915399758E+04  0.59996679866E+03 0.  0.
        -24    2    4    4    0    0  0.65929048555E+00  0.55120864618E+02  0.77128937951E+02  0.12364358513E+03  0.79373287037E+02 0.  0.
         24    2    4    4    0    0 -0.90559722129E+03  0.80641741868E+03 -0.62810123096E+03  0.13678963906E+04  0.78828921467E+02 0.  0.
         11    1    3    3    0    0  0.13177364332E+03 -0.90258521495E+02  0.55576472177E+02  0.16911427508E+03  0.00000000000E+00 0. -1.
        -12    1    3    3    0    0  0.77316428749E+03 -0.77127976180E+03  0.44953394155E+03  0.11809895220E+04  0.00000000000E+00 0.  1.
         11    1    5    5    0    0  0.35836831144E+02  0.24624139471E+02  0.59864471727E+02  0.73989064640E+02  0.00000000000E+00 0. -1.
        -12    1    5    5    0    0 -0.35177540658E+02  0.30496725147E+02  0.17264466223E+02  0.49654520493E+02  0.00000000000E+00 0.  1.
          4    1    6    6  502    0 -0.49455720144E+03  0.38989858754E+03 -0.31277092982E+03  0.70315957549E+03  0.00000000000E+00 0. -1.
         -3    1    6    6    0  502 -0.41104001985E+03  0.41651883113E+03 -0.31533030114E+03  0.66473681515E+03  0.00000000000E+00 0.  1.
<mgrwt>
<rscale>  0 0.12784001E+04</rscale>
<asrwt>0</asrwt>
<pdfrwt beam="1">  1        1 0.22211582E+00 0.12784001E+04</pdfrwt>
<pdfrwt beam="2">  1       -2 0.21506015E+00 0.12784001E+04</pdfrwt>
<totfact> 0.64396338E-01</totfact>
</mgrwt>
</event>
<event>
12    3  0.2269558E-007  0.5404399E+03  0.7818608E-02  0.1003731E+00
          1   -1    0    0  501    0  0.00000000000E+00  0.00000000000E+00  0.24088045765E+04  0.24088045765E+04  0.00000000000E+00 0. -1.
         -2   -1    0    0    0  501 -0.00000000000E+00 -0.00000000000E+00 -0.18485442789E+03  0.18485442789E+03  0.00000000000E+00 0.  1.
        -24    2    1    2    0    0 -0.85050385618E+01 -0.51929236173E+03  0.10850164229E+04  0.12055173742E+04  0.79212428932E+02 0.  0.
    5000000    2    1    2    0    0  0.85050385618E+01  0.51929236173E+03  0.11389337257E+04  0.13881416302E+04  0.60002521720E+03 0.  0.
        -24    2    4    4    0    0  0.85861897041E+02  0.32531509806E+03  0.11093469010E+04  0.11620493800E+04  0.80660005188E+02 0.  0.
         24    2    4    4    0    0 -0.77356858479E+02  0.19397726368E+03  0.29586824700E+02  0.22609225017E+03  0.81431339267E+02 0.  0.
         11    1    5    5    0    0  0.10027106693E+03  0.25607411307E+03  0.86380049387E+03  0.90652056317E+03  0.00000000000E+00 0. -1.
        -12    1    5    5    0    0 -0.14409169893E+02  0.69240984989E+02  0.24554640713E+03  0.25552881684E+03  0.00000000000E+00 0.  1.
         11    1    3    3    0    0 -0.19579497054E+02 -0.38308934661E+03  0.72087422857E+03  0.81657850670E+03  0.00000000000E+00 0. -1.
        -12    1    3    3    0    0  0.11074458493E+02 -0.13620301512E+03  0.36414219429E+03  0.38893886746E+03  0.00000000000E+00 0.  1.
          4    1    6    6  502    0 -0.68752332177E+02  0.10494493823E+03  0.48778650918E+02  0.13460936084E+03  0.00000000000E+00 0. -1.
         -3    1    6    6    0  502 -0.86045263021E+01  0.89032325446E+02 -0.19191826218E+02  0.91482889333E+02  0.00000000000E+00 0.  1.
<mgrwt>
<rscale>  0 0.54043987E+03</rscale>
<asrwt>0</asrwt>
<pdfrwt beam="1">  1        1 0.37058530E+00 0.54043987E+03</pdfrwt>
<pdfrwt beam="2">  1       -2 0.28439144E-01 0.54043987E+03</pdfrwt>
<totfact> 0.16889436E+01</totfact>
</mgrwt>
</event>
<event>
12    3  0.2269558E-007  0.2563503E+04  0.7818608E-02  0.8380705E-01
         -2   -1    0    0    0  501 -0.00000000000E+00  0.00000000000E+00  0.24745561326E+04  0.24745561326E+04  0.00000000000E+00 0.  1.
          1   -1    0    0  501    0  0.00000000000E+00 -0.00000000000E+00 -0.28750657445E+04  0.28750657445E+04  0.00000000000E+00 0. -1.
        -24    2    1    2    0    0  0.25466572419E+04 -0.21001999567E+03 -0.83416719245E+03  0.26891792337E+04  0.79237236782E+02 0.  0.
    5000000    2    1    2    0    0 -0.25466572419E+04  0.21001999567E+03  0.43365758055E+03  0.26604426435E+04  0.60027048568E+03 0.  0.
        -24    2    4    4    0    0 -0.18493581864E+04  0.36955336328E+02  0.54208383103E+03  0.19292051125E+04  0.80536252635E+02 0.  0.
         24    2    4    4    0    0 -0.69729905548E+03  0.17306465934E+03 -0.10842625048E+03  0.73123753094E+03  0.82308722325E+02 0.  0.
         13    1    5    5    0    0 -0.12245523354E+04 -0.10722683661E+02  0.37381437483E+03  0.12803829837E+04  0.00000000000E+00 0. -1.
        -14    1    5    5    0    0 -0.62480585094E+03  0.47678019990E+02  0.16826945620E+03  0.64882212883E+03  0.00000000000E+00 0.  1.
         13    1    3    3    0    0  0.20532111302E+04 -0.17346278230E+03 -0.63974523081E+03  0.21575539952E+04  0.00000000000E+00 0. -1.
        -14    1    3    3    0    0  0.49344611170E+03 -0.36557213370E+02 -0.19442196164E+03  0.53162523846E+03  0.00000000000E+00 0.  1.
          4    1    6    6  502    0 -0.67909647828E+03  0.15901357646E+03 -0.11596206735E+03  0.70703928135E+03  0.00000000000E+00 0. -1.
         -3    1    6    6    0  502 -0.18202577202E+02  0.14051082884E+02  0.75358168769E+01  0.24198249586E+02  0.00000000000E+00 0.  1.
<mgrwt>
<rscale>  0 0.25635027E+04</rscale>
<asrwt>0</asrwt>
<pdfrwt beam="1">  1        1 0.44231781E+00 0.25635027E+04</pdfrwt>
<pdfrwt beam="2">  1       -2 0.38070094E+00 0.25635027E+04</pdfrwt>
<totfact> 0.53191993E-03</totfact>
</mgrwt>
</event>
<event>
12    3  0.2269558E-007  0.2733579E+03  0.7818608E-02  0.1099373E+00
          1   -1    0    0  501    0  0.00000000000E+00  0.00000000000E+00  0.32602166152E+03  0.32602166152E+03  0.00000000000E+00 0. -1.
         -2   -1    0    0    0  501 -0.00000000000E+00 -0.00000000000E+00 -0.50106922930E+03  0.50106922930E+03  0.00000000000E+00 0.  1.
        -24    2    1    2    0    0  0.29949043880E+02  0.15799451309E+03  0.73403650606E+01  0.17965778281E+03  0.79773595699E+02 0.  0.
    5000000    2    1    2    0    0 -0.29949043880E+02 -0.15799451309E+03 -0.18238793284E+03  0.64743310801E+03  0.60003754875E+03 0.  0.
        -24    2    4    4    0    0  0.14263268612E+03 -0.30633617694E+02 -0.33418978854E+03  0.37386957944E+03  0.82541783267E+02 0.  0.
         24    2    4    4    0    0 -0.17258173000E+03 -0.12736089539E+03  0.15180185570E+03  0.27356352857E+03  0.76078574953E+02 0.  0.
         11    1    3    3    0    0  0.21364061139E+02  0.56646632488E+02  0.40313866899E+02  0.72735630505E+02  0.00000000000E+00 0. -1.
        -12    1    3    3    0    0  0.85849827413E+01  0.10134788060E+03 -0.32973501838E+02  0.10692215231E+03  0.00000000000E+00 0.  1.
         13    1    5    5    0    0  0.19111807534E+02 -0.38699542702E+02 -0.10170806674E+03  0.11048731435E+03  0.00000000000E+00 0. -1.
        -14    1    5    5    0    0  0.12352087859E+03  0.80659250087E+01 -0.23248172180E+03  0.26338226509E+03  0.00000000000E+00 0.  1.
          2    1    6    6  502    0 -0.10982606559E+03 -0.58813537232E+02  0.46155430696E+02  0.13285752002E+03  0.00000000000E+00 0. -1.
         -1    1    6    6    0  502 -0.62755664418E+02 -0.68547358161E+02  0.10564642500E+03  0.14070600855E+03  0.00000000000E+00 0.  1.
<mgrwt>
<rscale>  0 0.27335787E+03</rscale>
<asrwt>0</asrwt>
<pdfrwt beam="1">  1        1 0.50157179E-01 0.27335787E+03</pdfrwt>
<pdfrwt beam="2">  1       -2 0.77087574E-01 0.27335787E+03</pdfrwt>
<totfact> 0.10804650E+02</totfact>
</mgrwt>
</event>
<event>
12    3  0.2269558E-007  0.7467701E+03  0.7818608E-02  0.9640431E-01
          1   -1    0    0  501    0  0.00000000000E+00  0.00000000000E+00  0.11421847958E+04  0.11421847958E+04  0.00000000000E+00 0. -1.
         -2   -1    0    0    0  501 -0.00000000000E+00 -0.00000000000E+00 -0.86519324936E+03  0.86519324936E+03  0.00000000000E+00 0.  1.
        -24    2    1    2    0    0  0.73381574423E+03 -0.56727322302E+02  0.65194299887E+03  0.98639831358E+03  0.79046971346E+02 0.  0.
    5000000    2    1    2    0    0 -0.73381574423E+03  0.56727322302E+02 -0.37495145243E+03  0.10209797316E+04  0.60008956419E+03 0.  0.
        -24    2    4    4    0    0 -0.28987648449E+03 -0.11933490468E+02  0.14084692478E+03  0.33259058674E+03  0.81288730562E+02 0.  0.
         24    2    4    4    0    0 -0.44393925975E+03  0.68660812770E+02 -0.51579837721E+03  0.68838914484E+03  0.77687033982E+02 0.  0.
         11    1    5    5    0    0 -0.12524802589E+03 -0.44864770686E+02  0.54170117638E+02  0.14364650112E+03  0.00000000000E+00 0. -1.
        -12    1    5    5    0    0 -0.16462845859E+03  0.32931280217E+02  0.86676807143E+02  0.18894408562E+03  0.00000000000E+00 0.  1.
         13    1    3    3    0    0  0.25798790503E+03 -0.55882830362E+02  0.21647396584E+03  0.34138193825E+03  0.00000000000E+00 0. -1.
        -14    1    3    3    0    0  0.47582783920E+03 -0.84449193939E+00  0.43546903303E+03  0.64501637533E+03  0.00000000000E+00 0.  1.
          4    1    6    6  502    0 -0.46519521227E+02 -0.10240651278E+02 -0.81761677391E+02  0.94625095422E+02  0.00000000000E+00 0. -1.
         -3    1    6    6    0  502 -0.39741973852E+03  0.78901464048E+02 -0.43403669982E+03  0.59376404942E+03  0.00000000000E+00 0.  1.
<mgrwt>
<rscale>  0 0.74677006E+03</rscale>
<asrwt>0</asrwt>
<pdfrwt beam="1">  1        1 0.17572074E+00 0.74677006E+03</pdfrwt>
<pdfrwt beam="2">  1       -2 0.13310665E+00 0.74677006E+03</pdfrwt>
<totfact> 0.43459622E+00</totfact>
</mgrwt>
</event>
<event>
12    3  0.2269558E-007  0.1027905E+04  0.7818608E-02  0.9278457E-01
         -2   -1    0    0    0  501 -0.00000000000E+00  0.00000000000E+00  0.80469565351E+03  0.80469565351E+03  0.00000000000E+00 0.  1.
          1   -1    0    0  501    0  0.00000000000E+00 -0.00000000000E+00 -0.14753572460E+04  0.14753572460E+04  0.00000000000E+00 0. -1.
        -24    2    1    2    0    0 -0.45658633611E+03 -0.89432653680E+03 -0.25883373995E+03  0.10399114000E+04  0.78292899207E+02 0.  0.
    5000000    2    1    2    0    0  0.45658633611E+03  0.89432653680E+03 -0.41182785258E+03  0.12401414996E+04  0.60004809983E+03 0.  0.
        -24    2    4    4    0    0 -0.18535621790E+02  0.14555717964E+03  0.11756643447E+03  0.20421331082E+03  0.79691580365E+02 0.  0.
         24    2    4    4    0    0  0.47512195790E+03  0.74876935716E+03 -0.52939428705E+03  0.10359281888E+04  0.80575902348E+02 0.  0.
         11    1    3    3    0    0 -0.38432243956E+03 -0.73404638459E+03 -0.18356671161E+03  0.84866045619E+03  0.00000000000E+00 0. -1.
        -12    1    3    3    0    0 -0.72263896548E+02 -0.16028015221E+03 -0.75267028339E+02  0.19125094377E+03  0.00000000000E+00 0.  1.
         13    1    5    5    0    0  0.28194161129E+02  0.73573651736E+02  0.73450646760E+02  0.10771717811E+03  0.00000000000E+00 0. -1.
        -14    1    5    5    0    0 -0.46729782920E+02  0.71983527907E+02  0.44115787710E+02  0.96496132704E+02  0.00000000000E+00 0.  1.
          2    1    6    6  502    0  0.32547774627E+03  0.50755165277E+03 -0.31553320972E+03  0.68051866248E+03  0.00000000000E+00 0. -1.
         -3    1    6    6    0  502  0.14964421163E+03  0.24121770439E+03 -0.21386107733E+03  0.35540952630E+03  0.00000000000E+00 0.  1.
<mgrwt>
<rscale>  0 0.10279055E+04</rscale>
<asrwt>0</asrwt>
<pdfrwt beam="1">  1        1 0.22697804E+00 0.10279055E+04</pdfrwt>
<pdfrwt beam="2">  1       -2 0.12379933E+00 0.10279055E+04</pdfrwt>
<totfact> 0.29202996E+00</totfact>
</mgrwt>
</event>
<event>
12    3  0.2269558E-007  0.6376759E+03  0.7818608E-02  0.9830183E-01
          1   -1    0    0  501    0  0.00000000000E+00  0.00000000000E+00  0.15426700445E+04  0.15426700445E+04  0.00000000000E+00 0. -1.
         -2   -1    0    0    0  501 -0.00000000000E+00 -0.00000000000E+00 -0.39157234192E+03  0.39157234192E+03  0.00000000000E+00 0.  1.
        -24    2    1    2    0    0  0.49590264352E+03 -0.31590913734E+03  0.12179718807E+03  0.60562439949E+03  0.78919853859E+02 0.  0.
    5000000    2    1    2    0    0 -0.49590264352E+03  0.31590913734E+03  0.10293005145E+04  0.13286179869E+04  0.60004015793E+03 0.  0.
        -24    2    4    4    0    0 -0.11597447283E+03  0.26480259663E+03  0.93144822887E+02  0.31385254503E+03  0.79101001613E+02 0.  0.
         24    2    4    4    0    0 -0.37992817069E+03  0.51106540704E+02  0.93615569160E+03  0.10147654419E+04  0.80025806777E+02 0.  0.
         11    1    3    3    0    0  0.33331857848E+03 -0.22206793096E+03  0.11921265937E+03  0.41788407349E+03  0.00000000000E+00 0. -1.
        -12    1    3    3    0    0  0.16258406504E+03 -0.93841206377E+02  0.25845287043E+01  0.18774032600E+03  0.00000000000E+00 0.  1.
         11    1    5    5    0    0 -0.10706712186E+03  0.26800161942E+03  0.95697859905E+02  0.30404985937E+03  0.00000000000E+00 0. -1.
        -12    1    5    5    0    0 -0.89073509670E+01 -0.31990227822E+01 -0.25530370181E+01  0.98026856537E+01  0.00000000000E+00 0.  1.
          4    1    6    6  502    0 -0.21522049510E+03  0.62024576306E+02  0.48071259537E+03  0.53033150851E+03  0.00000000000E+00 0. -1.
         -3    1    6    6    0  502 -0.16470767559E+03 -0.10918035602E+02  0.45544309624E+03  0.48443393338E+03  0.00000000000E+00 0.  1.
<mgrwt>
<rscale>  0 0.63767588E+03</rscale>
<asrwt>0</asrwt>
<pdfrwt beam="1">  1        1 0.23733385E+00 0.63767588E+03</pdfrwt>
<pdfrwt beam="2">  1       -2 0.60241900E-01 0.63767588E+03</pdfrwt>
<totfact> 0.14442656E+01</totfact>
</mgrwt>
</event>
<event>
12    3  0.3668232E-007  0.1518044E+04  0.7818608E-02  0.8872542E-01
          1   -1    0    0  501    0  0.00000000000E+00  0.00000000000E+00  0.24841070219E+04  0.24841070219E+04  0.00000000000E+00 0. -1.
         -2   -1    0    0    0  501 -0.00000000000E+00 -0.00000000000E+00 -0.10653943530E+04  0.10653943530E+04  0.00000000000E+00 0.  1.
        -24    2    1    2    0    0  0.12952369006E+04  0.77263589739E+03  0.11633130575E+04  0.19063746997E+04  0.79764449818E+02 0.  0.
    5000000    2    1    2    0    0 -0.12952369006E+04 -0.77263589739E+03  0.25539961140E+03  0.16431266752E+04  0.60002620820E+03 0.  0.
        -24    2    4    4    0    0 -0.21216489411E+03 -0.47562649160E+02  0.24517113683E+03  0.33724026490E+03  0.79661546849E+02 0.  0.
         24    2    4    4    0    0 -0.10830720065E+04 -0.72507324823E+03  0.10228474578E+02  0.13058864103E+04  0.80364844949E+02 0.  0.
         11    1    3    3    0    0  0.82559327313E+03  0.52650369225E+03  0.72364324334E+03  0.12175672196E+04  0.00000000000E+00 0. -1.
        -12    1    3    3    0    0  0.46964362746E+03  0.24613220514E+03  0.43966981412E+03  0.68880748011E+03  0.00000000000E+00 0.  1.
         11    1    5    5    0    0 -0.20584626652E+02  0.10214919858E+02  0.61381814143E+02  0.65542341655E+02  0.00000000000E+00 0. -1.
        -12    1    5    5    0    0 -0.19158026746E+03 -0.57777569018E+02  0.18378932268E+03  0.27169792324E+03  0.00000000000E+00 0.  1.
          4    1    6    6  502    0 -0.46953383060E+03 -0.32840690032E+03 -0.33638988597E+02  0.57397272741E+03  0.00000000000E+00 0. -1.
         -3    1    6    6    0  502 -0.61353817588E+03 -0.39666634791E+03  0.43867463175E+02  0.73191368285E+03  0.00000000000E+00 0.  1.
<mgrwt>
<rscale>  0 0.15180439E+04</rscale>
<asrwt>0</asrwt>
<pdfrwt beam="1">  1        1 0.38217031E+00 0.15180439E+04</pdfrwt>
<pdfrwt beam="2">  1       -2 0.16390682E+00 0.15180439E+04</pdfrwt>
<totfact> 0.27105925E-01</totfact>
</mgrwt>
</event>
<event>
12    3  0.2269558E-007  0.8496611E+03  0.7818608E-02  0.9490792E-01
         -2   -1    0    0    0  501 -0.00000000000E+00  0.00000000000E+00  0.12549472112E+04  0.12549472112E+04  0.00000000000E+00 0.  1.
          1   -1    0    0  501    0  0.00000000000E+00 -0.00000000000E+00 -0.71584894100E+03  0.71584894100E+03  0.00000000000E+00 0. -1.
        -24    2    1    2    0    0  0.68079753649E+03 -0.49143496123E+03  0.38680151138E+03  0.92768370718E+03  0.77382456339E+02 0.  0.
    5000000    2    1    2    0    0 -0.68079753649E+03  0.49143496123E+03  0.15229675886E+03  0.10431124451E+04  0.59991304658E+03 0.  0.
        -24    2    4    4    0    0 -0.15414889390E+03  0.13360069613E+03  0.31200024425E+03  0.38172871749E+03  0.82229154486E+02 0.  0.
         24    2    4    4    0    0 -0.52664864259E+03  0.35783426510E+03 -0.15970348539E+03  0.66138372757E+03  0.80740806436E+02 0.  0.
         11    1    3    3    0    0  0.34600940457E+03 -0.29692658053E+03  0.21465576477E+03  0.50394940185E+03  0.00000000000E+00 0. -1.
        -12    1    3    3    0    0  0.33478813191E+03 -0.19450838070E+03  0.17214574662E+03  0.42373430533E+03  0.00000000000E+00 0.  1.
         11    1    5    5    0    0 -0.45294193979E+02  0.86022291859E+02  0.17667350715E+03  0.20165546567E+03  0.00000000000E+00 0. -1.
        -12    1    5    5    0    0 -0.10885469992E+03  0.47578404270E+02  0.13532673710E+03  0.18007325182E+03  0.00000000000E+00 0.  1.
          2    1    6    6  502    0 -0.43485095720E+03  0.32419714613E+03 -0.15209182630E+03  0.56332146077E+03  0.00000000000E+00 0. -1.
         -1    1    6    6    0  502 -0.91797685389E+02  0.33637118973E+02 -0.76116590891E+01  0.98062266798E+02  0.00000000000E+00 0.  1.
<mgrwt>
<rscale>  0 0.84966113E+03</rscale>
<asrwt>0</asrwt>
<pdfrwt beam="1">  1        1 0.11013061E+00 0.84966113E+03</pdfrwt>
<pdfrwt beam="2">  1       -2 0.19306880E+00 0.84966113E+03</pdfrwt>
<totfact> 0.34560672E+00</totfact>
</mgrwt>
</event>
<event>
12    3  0.2269558E-007  0.4471990E+03  0.7818608E-02  0.1028561E+00
          1   -1    0    0  501    0  0.00000000000E+00  0.00000000000E+00  0.83659153978E+03  0.83659153978E+03  0.00000000000E+00 0. -1.
         -2   -1    0    0    0  501 -0.00000000000E+00 -0.00000000000E+00 -0.51369197874E+03  0.51369197874E+03  0.00000000000E+00 0.  1.
        -24    2    1    2    0    0  0.11781025165E+02  0.41655692909E+03 -0.18298764379E+03  0.46170608404E+03  0.77650257792E+02 0.  0.
    5000000    2    1    2    0    0 -0.11781025165E+02 -0.41655692909E+03  0.50588720483E+03  0.88857743448E+03  0.59999127105E+03 0.  0.
        -24    2    4    4    0    0 -0.55849776544E+02 -0.36727806626E+03  0.62470547130E+03  0.73108599436E+03  0.78850680274E+02 0.  0.
         24    2    4    4    0    0  0.44068751379E+02 -0.49278862833E+02 -0.11881826647E+03  0.15749144013E+03  0.79468937936E+02 0.  0.
         11    1    3    3    0    0 -0.23810093479E+02  0.13304786888E+03 -0.84854088283E+02  0.15958969974E+03  0.00000000000E+00 0. -1.
        -12    1    3    3    0    0  0.35591118645E+02  0.28350906020E+03 -0.98133555510E+02  0.30211638430E+03  0.00000000000E+00 0.  1.
         13    1    5    5    0    0 -0.12671268397E+02 -0.55062360287E+02  0.15905928312E+03  0.16879656427E+03  0.00000000000E+00 0. -1.
        -14    1    5    5    0    0 -0.43178508147E+02 -0.31221570597E+03  0.46564618818E+03  0.56228943009E+03  0.00000000000E+00 0.  1.
          2    1    6    6  502    0  0.66401119539E+02 -0.32808146629E+02 -0.73445966046E+02  0.10430624665E+03  0.00000000000E+00 0. -1.
         -1    1    6    6    0  502 -0.22332368160E+02 -0.16470716204E+02 -0.45372300420E+02  0.53185193478E+02  0.00000000000E+00 0.  1.
<mgrwt>
<rscale>  0 0.44719902E+03</rscale>
<asrwt>0</asrwt>
<pdfrwt beam="1">  1        1 0.12870639E+00 0.44719902E+03</pdfrwt>
<pdfrwt beam="2">  1       -2 0.79029535E-01 0.44719902E+03</pdfrwt>
<totfact> 0.27109620E+01</totfact>
</mgrwt>
</event>
<event>
12    3  0.2269558E-007  0.8809736E+03  0.7818608E-02  0.9449683E-01
          1   -1    0    0  501    0  0.00000000000E+00  0.00000000000E+00  0.34212661758E+03  0.34212661758E+03  0.00000000000E+00 0. -1.
         -4   -1    0    0    0  501 -0.00000000000E+00 -0.00000000000E+00 -0.26928070762E+04  0.26928070762E+04  0.00000000000E+00 0.  1.
        -24    2    1    2    0    0  0.21868795261E+03  0.75626281688E+03 -0.50003933416E+03  0.93620676995E+03  0.81767423737E+02 0.  0.
    5000000    2    1    2    0    0 -0.21868795261E+03 -0.75626281688E+03 -0.18506411244E+04  0.20987269238E+04  0.60002021667E+03 0.  0.
        -24    2    4    4    0    0 -0.40879306215E+03 -0.53743006558E+03 -0.14010469634E+04  0.15574001887E+04  0.81362836253E+02 0.  0.
         24    2    4    4    0    0  0.19010510954E+03 -0.21883275130E+03 -0.44959416109E+03  0.54132673512E+03  0.82897519637E+02 0.  0.
         11    1    5    5    0    0 -0.28408365748E+03 -0.41131849059E+03 -0.10942735987E+04  0.12030466050E+04  0.00000000000E+00 0. -1.
        -12    1    5    5    0    0 -0.12470940467E+03 -0.12611157499E+03 -0.30677336469E+03  0.35435358365E+03  0.00000000000E+00 0.  1.
         13    1    3    3    0    0  0.16073095908E+03  0.62694952947E+03 -0.43808075737E+03  0.78154648210E+03  0.00000000000E+00 0. -1.
        -14    1    3    3    0    0  0.57956993529E+02  0.12931328740E+03 -0.61958576789E+02  0.15466028784E+03  0.00000000000E+00 0.  1.
          4    1    6    6  502    0  0.61936677095E+02 -0.33445806711E+02 -0.66395711090E+02  0.96763445615E+02  0.00000000000E+00 0. -1.
         -3    1    6    6    0  502  0.12816843245E+03 -0.18538694458E+03 -0.38319845000E+03  0.44456328951E+03  0.00000000000E+00 0.  1.
<mgrwt>
<rscale>  0 0.88097362E+03</rscale>
<asrwt>0</asrwt>
<pdfrwt beam="1">  1        1 0.52634862E-01 0.88097362E+03</pdfrwt>
<pdfrwt beam="2">  1       -4 0.41427803E+00 0.88097362E+03</pdfrwt>
<totfact> 0.19683734E-01</totfact>
</mgrwt>
</event>
<event>
12    3  0.2269558E-007  0.5177522E+03  0.7818608E-02  0.1009246E+00
         -2   -1    0    0    0  501 -0.00000000000E+00  0.00000000000E+00  0.94065409385E+03  0.94065409385E+03  0.00000000000E+00 0.  1.
          1   -1    0    0  501    0  0.00000000000E+00 -0.00000000000E+00 -0.33547633330E+03  0.33547633330E+03  0.00000000000E+00 0. -1.
        -24    2    1    2    0    0  0.12199581071E+03  0.32624346380E+03  0.43277837304E+03  0.56129285838E+03  0.80217063037E+02 0.  0.
    5000000    2    1    2    0    0 -0.12199581071E+03 -0.32624346380E+03  0.17239938751E+03  0.71483756876E+03  0.59996118658E+03 0.  0.
        -24    2    4    4    0    0 -0.35269743024E+03 -0.13240685151E+03  0.11476039195E+03  0.40170907934E+03  0.79203442087E+02 0.  0.
         24    2    4    4    0    0  0.23070161953E+03 -0.19383661229E+03  0.57638995558E+02  0.31312848942E+03  0.62700299510E+02 0.  0.
         11    1    3    3    0    0  0.10788107575E+03  0.29672105316E+03  0.34523863592E+03  0.46783696479E+03  0.00000000000E+00 0. -1.
        -12    1    3    3    0    0  0.14114734959E+02  0.29522410640E+02  0.87539737113E+02  0.93455893590E+02  0.00000000000E+00 0.  1.
         13    1    5    5    0    0 -0.51457346330E+02  0.80113480361E+01  0.22890831604E+02  0.56886117464E+02  0.00000000000E+00 0. -1.
        -14    1    5    5    0    0 -0.30124008391E+03 -0.14041819955E+03  0.91869560345E+02  0.34482296188E+03  0.00000000000E+00 0.  1.
          4    1    6    6  502    0  0.10532413774E+03 -0.10676964282E+03  0.33249138497E-01  0.14997643723E+03  0.00000000000E+00 0. -1.
         -3    1    6    6    0  502  0.12537748179E+03 -0.87066969469E+02  0.57605746420E+02  0.16315205219E+03  0.00000000000E+00 0.  1.
<mgrwt>
<rscale>  0 0.51775216E+03</rscale>
<asrwt>0</asrwt>
<pdfrwt beam="1">  1        1 0.51611744E-01 0.51775216E+03</pdfrwt>
<pdfrwt beam="2">  1       -2 0.14471601E+00 0.51775216E+03</pdfrwt>
<totfact> 0.22644208E+01</totfact>
</mgrwt>
</event>
<event>
12    3  0.2269558E-007  0.1160456E+04  0.7818608E-02  0.9148191E-01
         -2   -1    0    0    0  501 -0.00000000000E+00  0.00000000000E+00  0.61566824082E+03  0.61566824082E+03  0.00000000000E+00 0.  1.
          1   -1    0    0  501    0  0.00000000000E+00 -0.00000000000E+00 -0.42920260871E+04  0.42920260871E+04  0.00000000000E+00 0. -1.
        -24    2    1    2    0    0 -0.51449342857E+03  0.96884598986E+03 -0.34707597220E+04  0.36408722495E+04  0.80072773467E+02 0.  0.
    5000000    2    1    2    0    0  0.51449342857E+03 -0.96884598986E+03 -0.20559812423E+03  0.12668220784E+04  0.59933425526E+03 0.  0.
        -24    2    4    4    0    0  0.61958409193E+03 -0.87733890535E+03 -0.23765431591E+03  0.11029850300E+04  0.80550610253E+02 0.  0.
         24    2    4    4    0    0 -0.10509066336E+03 -0.91507084507E+02  0.32056191675E+02  0.16383704836E+03  0.79983654260E+02 0.  0.
         11    1    3    3    0    0 -0.16545193844E+03  0.26631902776E+03 -0.10906312572E+04  0.11348024972E+04  0.00000000000E+00 0. -1.
        -12    1    3    3    0    0 -0.34904149013E+03  0.70252696209E+03 -0.23801284649E+04  0.25060697523E+04  0.00000000000E+00 0.  1.
         11    1    5    5    0    0  0.37903895728E+03 -0.53509047346E+03 -0.10472804699E+03  0.66404842425E+03  0.00000000000E+00 0. -1.
        -12    1    5    5    0    0  0.24054513465E+03 -0.34224843189E+03 -0.13292626892E+03  0.43893660579E+03  0.00000000000E+00 0.  1.
          2    1    6    6  502    0 -0.11698381145E+01  0.61476576723E+01  0.19732709386E+02  0.20701256865E+02  0.00000000000E+00 0. -1.
         -1    1    6    6    0  502 -0.10392082525E+03 -0.97654742180E+02  0.12323482289E+02  0.14313579149E+03  0.00000000000E+00 0.  1.
<mgrwt>
<rscale>  0 0.11604559E+04</rscale>
<asrwt>0</asrwt>
<pdfrwt beam="1">  1        1 0.66031172E+00 0.11604559E+04</pdfrwt>
<pdfrwt beam="2">  1       -2 0.94718189E-01 0.11604559E+04</pdfrwt>
<totfact> 0.43808858E-02</totfact>
</mgrwt>
</event>
<event>
12    3  0.4346110E-007  0.7130046E+03  0.7818608E-02  0.9695248E-01
         -2   -1    0    0    0  501 -0.00000000000E+00  0.00000000000E+00  0.36836697306E+03  0.36836697306E+03  0.00000000000E+00 0.  1.
          1   -1    0    0  501    0  0.00000000000E+00 -0.00000000000E+00 -0.16488653362E+04  0.16488653362E+04  0.00000000000E+00 0. -1.
        -24    2    1    2    0    0 -0.62608246153E+03 -0.13801809729E+03 -0.75575866432E+03  0.99427414637E+03  0.79885390658E+02 0.  0.
    5000000    2    1    2    0    0  0.62608246153E+03  0.13801809729E+03 -0.52473969885E+03  0.10229581629E+04  0.60005283742E+03 0.  0.
        -24    2    4    4    0    0  0.16280916214E+03  0.24419621208E+03 -0.43641794839E+03  0.53216871979E+03  0.81266889820E+02 0.  0.
         24    2    4    4    0    0  0.46327329938E+03 -0.10617811479E+03 -0.88321750460E+02  0.49078944311E+03  0.84720740555E+02 0.  0.
         11    1    3    3    0    0 -0.41247429457E+03 -0.12712637281E+03 -0.52471648367E+03  0.67942883849E+03  0.00000000000E+00 0. -1.
        -12    1    3    3    0    0 -0.21360816696E+03 -0.10891724482E+02 -0.23104218065E+03  0.31484530788E+03  0.00000000000E+00 0.  1.
         13    1    5    5    0    0  0.34083553165E+02  0.98147122522E+02 -0.20443380727E+03  0.22932014262E+03  0.00000000000E+00 0. -1.
        -14    1    5    5    0    0  0.12872560898E+03  0.14604908956E+03 -0.23198414112E+03  0.30284857717E+03  0.00000000000E+00 0.  1.
          4    1    6    6  502    0  0.24090933605E+03 -0.95988432390E+02 -0.32989152669E+02  0.26141800157E+03  0.00000000000E+00 0. -1.
         -3    1    6    6    0  502  0.22236396333E+03 -0.10189682397E+02 -0.55332597791E+02  0.22937144154E+03  0.00000000000E+00 0.  1.
<mgrwt>
<rscale>  0 0.71300456E+03</rscale>
<asrwt>0</asrwt>
<pdfrwt beam="1">  1        1 0.25367159E+00 0.71300456E+03</pdfrwt>
<pdfrwt beam="2">  1       -2 0.56671841E-01 0.71300456E+03</pdfrwt>
<totfact> 0.13762169E+01</totfact>
</mgrwt>
</event>
<event>
12    3  0.2269558E-007  0.3634357E+03  0.7818608E-02  0.1057232E+00
          1   -1    0    0  501    0  0.00000000000E+00  0.00000000000E+00  0.83280205000E+03  0.83280205000E+03  0.00000000000E+00 0. -1.
         -2   -1    0    0    0  501 -0.00000000000E+00 -0.00000000000E+00 -0.18042577224E+03  0.18042577224E+03  0.00000000000E+00 0.  1.
        -24    2    1    2    0    0 -0.13520066216E+03  0.22117144392E+02  0.15321457249E+03  0.22084130501E+03  0.80794737771E+02 0.  0.
    5000000    2    1    2    0    0  0.13520066216E+03 -0.22117144392E+02  0.49916170527E+03  0.79238651723E+03  0.59995466292E+03 0.  0.
        -24    2    4    4    0    0 -0.22330609498E+03  0.33981884033E+02  0.24081550427E+03  0.33983311680E+03  0.80461541627E+02 0.  0.
         24    2    4    4    0    0  0.35850675714E+03 -0.56099028425E+02  0.25834620100E+03  0.45255340043E+03  0.79922617335E+02 0.  0.
         11    1    3    3    0    0 -0.11352932326E+02 -0.21558299497E+01  0.67026111899E+02  0.68014971524E+02  0.00000000000E+00 0. -1.
        -12    1    3    3    0    0 -0.12384772983E+03  0.24272974342E+02  0.86188460594E+02  0.15282633349E+03  0.00000000000E+00 0.  1.
         13    1    5    5    0    0 -0.82797184886E+02  0.15888537589E+02  0.14843018059E+03  0.17070248376E+03  0.00000000000E+00 0. -1.
        -14    1    5    5    0    0 -0.14050891010E+03  0.18093346443E+02  0.92385323676E+02  0.16913063304E+03  0.00000000000E+00 0.  1.
          2    1    6    6  502    0  0.78591490210E+02 -0.18135691225E+02  0.10084808166E+03  0.12913505026E+03  0.00000000000E+00 0. -1.
         -1    1    6    6    0  502  0.27991526693E+03 -0.37963337200E+02  0.15749811933E+03  0.32341835017E+03  0.00000000000E+00 0.  1.
<mgrwt>
<rscale>  0 0.36343573E+03</rscale>
<asrwt>0</asrwt>
<pdfrwt beam="1">  1        1 0.12812339E+00 0.36343573E+03</pdfrwt>
<pdfrwt beam="2">  1       -2 0.27757812E-01 0.36343573E+03</pdfrwt>
<totfact> 0.22361216E+02</totfact>
</mgrwt>
</event>
<event>
12    3  0.2269558E-007  0.6073588E+03  0.7818608E-02  0.9890255E-01
          1   -1    0    0  501    0  0.00000000000E+00  0.00000000000E+00  0.65969093218E+03  0.65969093218E+03  0.00000000000E+00 0. -1.
         -2   -1    0    0    0  501 -0.00000000000E+00 -0.00000000000E+00 -0.72177890343E+03  0.72177890343E+03  0.00000000000E+00 0.  1.
        -24    2    1    2    0    0 -0.36891945309E+02 -0.51470223963E+03  0.18243739688E+03  0.55311541629E+03  0.79836387982E+02 0.  0.
    5000000    2    1    2    0    0  0.36891945309E+02  0.51470223963E+03 -0.24452536813E+03  0.82835441932E+03  0.60008247536E+03 0.  0.
        -24    2    4    4    0    0 -0.20388204803E+03  0.18354554804E+03  0.82438842009E+02  0.29717674432E+03  0.79126461932E+02 0.  0.
         24    2    4    4    0    0  0.24077399334E+03  0.33115669159E+03 -0.32696421014E+03  0.53117767500E+03  0.87219593280E+02 0.  0.
         11    1    5    5    0    0 -0.15514850804E+03  0.94368965654E+02  0.34622935117E+02  0.18486565084E+03  0.00000000000E+00 0. -1.
        -12    1    5    5    0    0 -0.48733539995E+02  0.89176582386E+02  0.47815906893E+02  0.11231109348E+03  0.00000000000E+00 0.  1.
         13    1    3    3    0    0 -0.17066906099E+02 -0.17436017348E+02  0.62468710192E+01  0.25185658266E+02  0.00000000000E+00 0. -1.
        -14    1    3    3    0    0 -0.19825039210E+02 -0.49726622228E+03  0.17619052586E+03  0.52792975802E+03  0.00000000000E+00 0.  1.
          2    1    6    6  502    0  0.19002541353E+03  0.26268685585E+03 -0.20934438227E+03  0.38592630438E+03  0.00000000000E+00 0. -1.
         -3    1    6    6    0  502  0.50748579810E+02  0.68469835741E+02 -0.11761982787E+03  0.14525137062E+03  0.00000000000E+00 0.  1.
<mgrwt>
<rscale>  0 0.60735883E+03</rscale>
<asrwt>0</asrwt>
<pdfrwt beam="1">  1        1 0.10149091E+00 0.60735883E+03</pdfrwt>
<pdfrwt beam="2">  1       -2 0.11104291E+00 0.60735883E+03</pdfrwt>
<totfact> 0.17343714E+01</totfact>
</mgrwt>
</event>
<event>
12    3  0.2269558E-007  0.1147038E+04  0.7818608E-02  0.9160520E-01
         -2   -1    0    0    0  501 -0.00000000000E+00  0.00000000000E+00  0.71183422240E+03  0.71183422240E+03  0.00000000000E+00 0.  1.
          1   -1    0    0  501    0  0.00000000000E+00 -0.00000000000E+00 -0.19103574322E+04  0.19103574322E+04  0.00000000000E+00 0. -1.
        -24    2    1    2    0    0  0.75743680584E+03  0.75931435930E+03 -0.75936637413E+03  0.13171402420E+04  0.89175758157E+02 0.  0.
    5000000    2    1    2    0    0 -0.75743680584E+03 -0.75931435930E+03 -0.43915683563E+03  0.13050514126E+04  0.60002637615E+03 0.  0.
        -24    2    4    4    0    0 -0.35714006940E+02  0.80048585492E+02 -0.84812394460E+01  0.11459465561E+03  0.73326239097E+02 0.  0.
         24    2    4    4    0    0 -0.72172279890E+03 -0.83936294479E+03 -0.43067559618E+03  0.11904567570E+04  0.79321305418E+02 0.  0.
         11    1    5    5    0    0  0.61331802376E+01  0.67462336650E+02 -0.17522551617E+02  0.69970154933E+02  0.00000000000E+00 0. -1.
        -12    1    5    5    0    0 -0.41847187178E+02  0.12586248842E+02  0.90413121714E+01  0.44624500674E+02  0.00000000000E+00 0.  1.
         11    1    3    3    0    0  0.41762268097E+03  0.47153140960E+03 -0.47304808075E+03  0.78773413066E+03  0.00000000000E+00 0. -1.
        -12    1    3    3    0    0  0.33981412486E+03  0.28778294971E+03 -0.28631829338E+03  0.52940611134E+03  0.00000000000E+00 0.  1.
          2    1    6    6  502    0 -0.19366193587E+03 -0.24755561936E+03 -0.15768160314E+03  0.35164217331E+03  0.00000000000E+00 0. -1.
         -1    1    6    6    0  502 -0.52806086303E+03 -0.59180732543E+03 -0.27299399304E+03  0.83881458364E+03  0.00000000000E+00 0.  1.
<mgrwt>
<rscale>  0 0.11470383E+04</rscale>
<asrwt>0</asrwt>
<pdfrwt beam="1">  1        1 0.29390114E+00 0.11470383E+04</pdfrwt>
<pdfrwt beam="2">  1       -2 0.10951296E+00 0.11470383E+04</pdfrwt>
<totfact> 0.19713076E+00</totfact>
</mgrwt>
</event>
<event>
12    3  0.2269558E-007  0.9855254E+03  0.7818608E-02  0.9324564E-01
         -2   -1    0    0    0  501 -0.00000000000E+00  0.00000000000E+00  0.87418826082E+03  0.87418826082E+03  0.00000000000E+00 0.  1.
          1   -1    0    0  501    0  0.00000000000E+00 -0.00000000000E+00 -0.11454141997E+04  0.11454141997E+04  0.00000000000E+00 0. -1.
        -24    2    1    2    0    0  0.89671111723E+03 -0.14145272509E+03 -0.16164711416E+03  0.92601732784E+03  0.85314715849E+02 0.  0.
    5000000    2    1    2    0    0 -0.89671111723E+03  0.14145272509E+03 -0.10957882475E+03  0.10935851327E+04  0.59985100025E+03 0.  0.
        -24    2    4    4    0    0 -0.35396393574E+03  0.32963462137E+03  0.49948185567E+02  0.49211518064E+03  0.75717094247E+02 0.  0.
         24    2    4    4    0    0 -0.54274718149E+03 -0.18818189628E+03 -0.15952701032E+03  0.60146995209E+03  0.79563227378E+02 0.  0.
         11    1    3    3    0    0  0.54072318063E+03 -0.86482060953E+02 -0.13974225885E+03  0.56514476362E+03  0.00000000000E+00 0. -1.
        -12    1    3    3    0    0  0.35598793659E+03 -0.54970664139E+02 -0.21904855314E+02  0.36087256421E+03  0.00000000000E+00 0.  1.
         11    1    5    5    0    0 -0.14072878301E+03  0.10352964883E+03 -0.12331276319E+02  0.17514291002E+03  0.00000000000E+00 0. -1.
        -12    1    5    5    0    0 -0.21323515273E+03  0.22610497254E+03  0.62279461886E+02  0.31697227062E+03  0.00000000000E+00 0.  1.
          4    1    6    6  502    0 -0.41456362587E+03 -0.11533044669E+03 -0.95768459776E+02  0.44083524101E+03  0.00000000000E+00 0. -1.
         -3    1    6    6    0  502 -0.12818355561E+03 -0.72851449583E+02 -0.63758550545E+02  0.16063471108E+03  0.00000000000E+00 0.  1.
<mgrwt>
<rscale>  0 0.98552538E+03</rscale>
<asrwt>0</asrwt>
<pdfrwt beam="1">  1        1 0.17621757E+00 0.98552538E+03</pdfrwt>
<pdfrwt beam="2">  1       -2 0.13449050E+00 0.98552538E+03</pdfrwt>
<totfact> 0.40882469E+00</totfact>
</mgrwt>
</event>
<event>
12    3  0.2269558E-007  0.9094689E+03  0.7818608E-02  0.9413822E-01
          1   -1    0    0  501    0  0.00000000000E+00  0.00000000000E+00  0.17349160846E+04  0.17349160846E+04  0.00000000000E+00 0. -1.
         -2   -1    0    0    0  501 -0.00000000000E+00 -0.00000000000E+00 -0.49548944927E+03  0.49548944927E+03  0.00000000000E+00 0.  1.
        -24    2    1    2    0    0  0.80551783477E+03 -0.18081684498E+03  0.62989801223E+03  0.10416420473E+04  0.81810362325E+02 0.  0.
    5000000    2    1    2    0    0 -0.80551783477E+03  0.18081684498E+03  0.60952862310E+03  0.11887634865E+04  0.60006647215E+03 0.  0.
        -24    2    4    4    0    0  0.39996051970E+02  0.11607204050E+03  0.18900779127E+03  0.23894331981E+03  0.79357180932E+02 0.  0.
         24    2    4    4    0    0 -0.84551388674E+03  0.64744804483E+02  0.42052083183E+03  0.94982016673E+03  0.78961742259E+02 0.  0.
         13    1    3    3    0    0  0.68428254288E+03 -0.14427630742E+03  0.49606875109E+03  0.85740448867E+03  0.00000000000E+00 0. -1.
        -14    1    3    3    0    0  0.12123529189E+03 -0.36540537559E+02  0.13382926113E+03  0.18423755866E+03  0.00000000000E+00 0.  1.
         13    1    5    5    0    0 -0.19913527455E+02  0.56288998496E+02  0.59964822113E+02  0.84621391022E+02  0.00000000000E+00 0. -1.
        -14    1    5    5    0    0  0.59909579426E+02  0.59783042000E+02  0.12904296915E+03  0.15432192879E+03  0.00000000000E+00 0.  1.
          2    1    6    6  502    0 -0.32889056941E+03  0.88796684763E+01  0.20225881064E+03  0.38620782183E+03  0.00000000000E+00 0. -1.
         -1    1    6    6    0  502 -0.51662331733E+03  0.55865136007E+02  0.21826202119E+03  0.56361234490E+03  0.00000000000E+00 0.  1.
<mgrwt>
<rscale>  0 0.90946894E+03</rscale>
<asrwt>0</asrwt>
<pdfrwt beam="1">  1        1 0.26691016E+00 0.90946894E+03</pdfrwt>
<pdfrwt beam="2">  1       -2 0.76229147E-01 0.90946894E+03</pdfrwt>
<totfact> 0.61924304E+00</totfact>
</mgrwt>
</event>
<event>
12    3  0.2269558E-007  0.1036305E+04  0.7818608E-02  0.9269598E-01
          1   -1    0    0  501    0  0.00000000000E+00  0.00000000000E+00  0.11241872139E+04  0.11241872139E+04  0.00000000000E+00 0. -1.
         -2   -1    0    0    0  501 -0.00000000000E+00 -0.00000000000E+00 -0.11447396702E+04  0.11447396702E+04  0.00000000000E+00 0.  1.
        -24    2    1    2    0    0 -0.90187218542E+03 -0.49109230177E+03  0.22514182730E+03  0.10544563814E+04  0.81512760546E+02 0.  0.
    5000000    2    1    2    0    0  0.90187218542E+03  0.49109230177E+03 -0.24569428361E+03  0.12144705027E+04  0.60002319383E+03 0.  0.
        -24    2    4    4    0    0  0.22144173442E+03  0.10342571315E+03  0.17835517053E+03  0.31949852150E+03  0.10264218677E+03 0.  0.
         24    2    4    4    0    0  0.68043045100E+03  0.38766658862E+03 -0.42404945414E+03  0.89497198116E+03  0.88802730401E+02 0.  0.
         11    1    3    3    0    0 -0.68174623232E+03 -0.39561233155E+03  0.20004099374E+03  0.81320565746E+03  0.00000000000E+00 0. -1.
        -12    1    3    3    0    0 -0.22012595310E+03 -0.95479970222E+02  0.25100833551E+02  0.24125072391E+03  0.00000000000E+00 0.  1.
         11    1    5    5    0    0  0.11837467918E+03  0.97558025026E+02  0.66216884121E+02  0.16707725357E+03  0.00000000000E+00 0. -1.
        -12    1    5    5    0    0  0.10306705524E+03  0.58676881269E+01  0.11213828640E+03  0.15242126793E+03  0.00000000000E+00 0.  1.
          4    1    6    6  502    0  0.60185584744E+03  0.37248001054E+03 -0.38846026481E+03  0.80738664634E+03  0.00000000000E+00 0. -1.
         -3    1    6    6    0  502  0.78574603561E+02  0.15186578072E+02 -0.35589189330E+02  0.87585334820E+02  0.00000000000E+00 0.  1.
<mgrwt>
<rscale>  0 0.10363053E+04</rscale>
<asrwt>0</asrwt>
<pdfrwt beam="1">  1        1 0.17295188E+00 0.10363053E+04</pdfrwt>
<pdfrwt beam="2">  1       -2 0.17611379E+00 0.10363053E+04</pdfrwt>
<totfact> 0.20409614E+00</totfact>
</mgrwt>
</event>
<event>
12    3  0.2269558E-007  0.5164167E+03  0.7818608E-02  0.1009581E+00
         -2   -1    0    0    0  501 -0.00000000000E+00  0.00000000000E+00  0.25744956194E+03  0.25744956194E+03  0.00000000000E+00 0.  1.
          1   -1    0    0  501    0  0.00000000000E+00 -0.00000000000E+00 -0.13502378387E+04  0.13502378387E+04  0.00000000000E+00 0. -1.
        -24    2    1    2    0    0  0.34592657976E+03 -0.15082817738E+03 -0.11974621971E+03  0.40360482326E+03  0.78379579946E+02 0.  0.
    5000000    2    1    2    0    0 -0.34592657976E+03  0.15082817738E+03 -0.97304205700E+03  0.12040825773E+04  0.60049119117E+03 0.  0.
        -24    2    4    4    0    0 -0.46487064938E+03  0.66560650188E+01 -0.83321972211E+03  0.95745384452E+03  0.79459016049E+02 0.  0.
         24    2    4    4    0    0  0.11894406962E+03  0.14417211237E+03 -0.13982233490E+03  0.24662873281E+03  0.79637659622E+02 0.  0.
         11    1    5    5    0    0 -0.35861276295E+03 -0.64087390879E+01 -0.57204509063E+03  0.67518869319E+03  0.00000000000E+00 0. -1.
        -12    1    5    5    0    0 -0.10625788642E+03  0.13064804107E+02 -0.26117463148E+03  0.28226515134E+03  0.00000000000E+00 0.  1.
         13    1    3    3    0    0  0.43882372013E+02 -0.36992310653E+02 -0.43290459760E+02  0.71889898644E+02  0.00000000000E+00 0. -1.
        -14    1    3    3    0    0  0.30204420774E+03 -0.11383586673E+03 -0.76455759946E+02  0.33171492462E+03  0.00000000000E+00 0.  1.
          2    1    6    6  502    0  0.10084277339E+03  0.12385373694E+03 -0.75245894712E+02  0.17655298856E+03  0.00000000000E+00 0. -1.
         -1    1    6    6    0  502  0.18101296235E+02  0.20318375421E+02 -0.64576440183E+02  0.70075744248E+02  0.00000000000E+00 0.  1.
<mgrwt>
<rscale>  0 0.51641669E+03</rscale>
<asrwt>0</asrwt>
<pdfrwt beam="1">  1        1 0.20772889E+00 0.51641669E+03</pdfrwt>
<pdfrwt beam="2">  1       -2 0.39607627E-01 0.51641669E+03</pdfrwt>
<totfact> 0.46460809E+01</totfact>
</mgrwt>
</event>
<event>
12    3  0.2269558E-007  0.4305034E+03  0.7818608E-02  0.1033701E+00
         -2   -1    0    0    0  501 -0.00000000000E+00  0.00000000000E+00  0.69599234469E+03  0.69599234469E+03  0.00000000000E+00 0.  1.
          1   -1    0    0  501    0  0.00000000000E+00 -0.00000000000E+00 -0.60869614287E+03  0.60869614287E+03  0.00000000000E+00 0. -1.
        -24    2    1    2    0    0  0.39781635061E+03 -0.14458673643E+03  0.31750484080E+03  0.53519194360E+03  0.80361180960E+02 0.  0.
    5000000    2    1    2    0    0 -0.39781635061E+03  0.14458673643E+03 -0.23020863898E+03  0.76949654395E+03  0.59997144976E+03 0.  0.
        -24    2    4    4    0    0 -0.15316661946E+03  0.49411751486E+02  0.19473348778E+03  0.26422755223E+03  0.77417915207E+02 0.  0.
         24    2    4    4    0    0 -0.24464973115E+03  0.95174984940E+02 -0.42494212676E+03  0.50526899172E+03  0.76217938759E+02 0.  0.
         13    1    5    5    0    0 -0.11027798776E+02 -0.79527659097E+01  0.55537874298E+02  0.57177918054E+02  0.00000000000E+00 0. -1.
        -14    1    5    5    0    0 -0.14213882068E+03  0.57364517395E+02  0.13919561348E+03  0.20704963418E+03  0.00000000000E+00 0.  1.
         13    1    3    3    0    0  0.33839575013E+03 -0.13210086866E+03  0.30230556326E+03  0.47260022935E+03  0.00000000000E+00 0. -1.
        -14    1    3    3    0    0  0.59420600480E+02 -0.12485867769E+02  0.15199277540E+02  0.62591714253E+02  0.00000000000E+00 0.  1.
          2    1    6    6  502    0 -0.74397728206E+02 -0.14028672184E+01 -0.15382744225E+03  0.17087970034E+03  0.00000000000E+00 0. -1.
         -1    1    6    6    0  502 -0.17025200295E+03  0.96577852158E+02 -0.27111468451E+03  0.33438929138E+03  0.00000000000E+00 0.  1.
<mgrwt>
<rscale>  0 0.43050338E+03</rscale>
<asrwt>0</asrwt>
<pdfrwt beam="1">  1        1 0.93645560E-01 0.43050338E+03</pdfrwt>
<pdfrwt beam="2">  1       -2 0.10707575E+00 0.43050338E+03</pdfrwt>
<totfact> 0.21777388E+01</totfact>
</mgrwt>
</event>
<event>
12    3  0.2269558E-007  0.3270163E+03  0.7818608E-02  0.1072465E+00
          1   -1    0    0  501    0  0.00000000000E+00  0.00000000000E+00  0.95137750879E+03  0.95137750879E+03  0.00000000000E+00 0. -1.
         -2   -1    0    0    0  501 -0.00000000000E+00 -0.00000000000E+00 -0.57030697084E+03  0.57030697084E+03  0.00000000000E+00 0.  1.
        -24    2    1    2    0    0  0.29695473997E+03  0.68755749039E+02  0.70679763929E+03  0.77399902597E+03  0.81253422516E+02 0.  0.
    5000000    2    1    2    0    0 -0.29695473997E+03 -0.68755749039E+02 -0.32572710134E+03  0.74768545366E+03  0.60002160166E+03 0.  0.
        -24    2    4    4    0    0 -0.10858473009E+03 -0.46321130718E+02 -0.47253384385E+03  0.49479278168E+03  0.87151434043E+02 0.  0.
         24    2    4    4    0    0 -0.18837000987E+03 -0.22434618321E+02  0.14680674251E+03  0.25289267199E+03  0.80099383138E+02 0.  0.
         11    1    5    5    0    0 -0.12244234735E+03 -0.38163386269E+02 -0.38516592099E+03  0.40595733664E+03  0.00000000000E+00 0. -1.
        -12    1    5    5    0    0  0.13857617262E+02 -0.81577444490E+01 -0.87367922857E+02  0.88835445038E+02  0.00000000000E+00 0.  1.
         13    1    3    3    0    0  0.24865820665E+03  0.24958360922E+02  0.57485124570E+03  0.62682356226E+03  0.00000000000E+00 0. -1.
        -14    1    3    3    0    0  0.48296533312E+02  0.43797388117E+02  0.13194639359E+03  0.14717546371E+03  0.00000000000E+00 0.  1.
          4    1    6    6  502    0 -0.10004461278E+03 -0.33667718654E+02  0.37747784087E+02  0.11210412584E+03  0.00000000000E+00 0. -1.
         -3    1    6    6    0  502 -0.88325397089E+02  0.11233100333E+02  0.10905895842E+03  0.14078854615E+03  0.00000000000E+00 0.  1.
<mgrwt>
<rscale>  0 0.32701630E+03</rscale>
<asrwt>0</asrwt>
<pdfrwt beam="1">  1        1 0.14636577E+00 0.32701630E+03</pdfrwt>
<pdfrwt beam="2">  1       -2 0.87739534E-01 0.32701630E+03</pdfrwt>
<totfact> 0.17767057E+01</totfact>
</mgrwt>
</event>
<event>
12    3  0.2269558E-007  0.8873461E+03  0.7818608E-02  0.9441539E-01
         -2   -1    0    0    0  501 -0.00000000000E+00  0.00000000000E+00  0.17539783329E+04  0.17539783329E+04  0.00000000000E+00 0.  1.
          1   -1    0    0  501    0  0.00000000000E+00 -0.00000000000E+00 -0.51379944679E+03  0.51379944679E+03  0.00000000000E+00 0. -1.
        -24    2    1    2    0    0  0.74519490329E+03 -0.30729035046E+03  0.89117932190E+03  0.12042953486E+04  0.79899308749E+02 0.  0.
    5000000    2    1    2    0    0 -0.74519490329E+03  0.30729035046E+03  0.34899956421E+03  0.10634824311E+04  0.59954264401E+03 0.  0.
        -24    2    4    4    0    0 -0.65239481087E+03  0.44969950919E+03  0.19512470051E+03  0.81992640164E+03  0.79730907027E+02 0.  0.
         24    2    4    4    0    0 -0.92800092421E+02 -0.14240915873E+03  0.15387486371E+03  0.24355602943E+03  0.82157410779E+02 0.  0.
         11    1    5    5    0    0 -0.22296862089E+03  0.16212988482E+03  0.10662225311E+03  0.29558316988E+03  0.00000000000E+00 0. -1.
        -12    1    5    5    0    0 -0.42942618998E+03  0.28756962437E+03  0.88502447396E+02  0.52434323176E+03  0.00000000000E+00 0.  1.
         11    1    3    3    0    0  0.48296666340E+03 -0.23207629373E+03  0.55677613132E+03  0.77273272512E+03  0.00000000000E+00 0. -1.
        -12    1    3    3    0    0  0.26222823989E+03 -0.75214056729E+02  0.33440319059E+03  0.43156262350E+03  0.00000000000E+00 0.  1.
          4    1    6    6  502    0 -0.12152453586E+02 -0.47396880021E+02  0.46726102618E+01  0.49152615907E+02  0.00000000000E+00 0. -1.
         -3    1    6    6    0  502 -0.80647638835E+02 -0.95012278713E+02  0.14920225345E+03  0.19440341352E+03  0.00000000000E+00 0.  1.
<mgrwt>
<rscale>  0 0.88734609E+03</rscale>
<asrwt>0</asrwt>
<pdfrwt beam="1">  1        1 0.79046069E-01 0.88734609E+03</pdfrwt>
<pdfrwt beam="2">  1       -2 0.26984282E+00 0.88734609E+03</pdfrwt>
<totfact> 0.18504335E+00</totfact>
</mgrwt>
</event>
<event>
12    3  0.2269558E-007  0.1120098E+04  0.7818608E-02  0.9185821E-01
         -2   -1    0    0    0  501 -0.00000000000E+00  0.00000000000E+00  0.14010419142E+04  0.14010419142E+04  0.00000000000E+00 0.  1.
          1   -1    0    0  501    0  0.00000000000E+00 -0.00000000000E+00 -0.11853802921E+04  0.11853802921E+04  0.00000000000E+00 0. -1.
        -24    2    1    2    0    0 -0.10049781404E+04 -0.37109822780E+03  0.68251246556E+03  0.12727776126E+04  0.80278441523E+02 0.  0.
    5000000    2    1    2    0    0  0.10049781404E+04  0.37109822780E+03 -0.46685084340E+03  0.13136445937E+04  0.60001454254E+03 0.  0.
        -24    2    4    4    0    0  0.38060169664E+02 -0.66220214961E+02  0.61504101212E+02  0.12551397405E+03  0.78340984370E+02 0.  0.
         24    2    4    4    0    0  0.96691797073E+03  0.43731844276E+03 -0.52835494461E+03  0.11881306197E+04  0.79483579278E+02 0.  0.
         11    1    5    5    0    0 -0.19839136986E+02 -0.51921568121E+01 -0.12758339898E+01  0.20546960872E+02  0.00000000000E+00 0. -1.
        -12    1    5    5    0    0  0.57899306649E+02 -0.61028058148E+02  0.62779935202E+02  0.10496701318E+03  0.00000000000E+00 0.  1.
         11    1    3    3    0    0 -0.75216567065E+03 -0.31353516732E+03  0.50929634673E+03  0.96095799391E+03  0.00000000000E+00 0. -1.
        -12    1    3    3    0    0 -0.25281246974E+03 -0.57563060481E+02  0.17321611882E+03  0.31181961870E+03  0.00000000000E+00 0.  1.
          2    1    6    6  502    0  0.77010480471E+03  0.35664588662E+03 -0.45618338392E+03  0.96351490826E+03  0.00000000000E+00 0. -1.
         -1    1    6    6    0  502  0.19681316602E+03  0.80672556143E+02 -0.72171560696E+02  0.22461571140E+03  0.00000000000E+00 0.  1.
<mgrwt>
<rscale>  0 0.11200980E+04</rscale>
<asrwt>0</asrwt>
<pdfrwt beam="1">  1        1 0.18236620E+00 0.11200980E+04</pdfrwt>
<pdfrwt beam="2">  1       -2 0.21554491E+00 0.11200980E+04</pdfrwt>
<totfact> 0.99657646E-01</totfact>
</mgrwt>
</event>
<event>
12    3  0.2269558E-007  0.1277027E+04  0.7818608E-02  0.9047984E-01
         -2   -1    0    0    0  501 -0.00000000000E+00  0.00000000000E+00  0.13149354122E+04  0.13149354122E+04  0.00000000000E+00 0.  1.
          1   -1    0    0  501    0  0.00000000000E+00 -0.00000000000E+00 -0.17098788126E+04  0.17098788126E+04  0.00000000000E+00 0. -1.
        -24    2    1    2    0    0 -0.16553989929E+03  0.12586643613E+04  0.49210416098E+03  0.13640084002E+04  0.81932765745E+02 0.  0.
    5000000    2    1    2    0    0  0.16553989929E+03 -0.12586643613E+04 -0.88704756143E+03  0.16608058246E+04  0.59981928796E+03 0.  0.
        -24    2    4    4    0    0  0.15375514043E+03 -0.10836063290E+04 -0.45431531798E+03  0.11876990686E+04  0.79895869556E+02 0.  0.
         24    2    4    4    0    0  0.11784758855E+02 -0.17505803229E+03 -0.43273224345E+03  0.47310675601E+03  0.76082934046E+02 0.  0.
         11    1    5    5    0    0  0.15340210392E+03 -0.98369803069E+03 -0.39219121309E+03  0.10700504515E+04  0.00000000000E+00 0. -1.
        -12    1    5    5    0    0  0.35303650717E+00 -0.99908298268E+02 -0.62124104884E+02  0.11764861710E+03  0.00000000000E+00 0.  1.
         13    1    3    3    0    0 -0.67939989641E+02  0.39034141424E+03  0.19052087446E+03  0.43963674262E+03  0.00000000000E+00 0. -1.
        -14    1    3    3    0    0 -0.97599909644E+02  0.86832294702E+03  0.30158328652E+03  0.92437165761E+03  0.00000000000E+00 0.  1.
          2    1    6    6  502    0  0.38544641184E+02 -0.13490834407E+03 -0.35366742377E+03  0.38048205910E+03  0.00000000000E+00 0. -1.
         -1    1    6    6    0  502 -0.26759882329E+02 -0.40149688224E+02 -0.79064819681E+02  0.92624696912E+02  0.00000000000E+00 0.  1.
<mgrwt>
<rscale>  0 0.12770269E+04</rscale>
<asrwt>0</asrwt>
<pdfrwt beam="1">  1        1 0.26305828E+00 0.12770269E+04</pdfrwt>
<pdfrwt beam="2">  1       -2 0.20229776E+00 0.12770269E+04</pdfrwt>
<totfact> 0.51037162E-01</totfact>
</mgrwt>
</event>
<event>
12    3  0.2269558E-007  0.6663891E+03  0.7818608E-02  0.9776503E-01
         -2   -1    0    0    0  501 -0.00000000000E+00  0.00000000000E+00  0.22122783711E+03  0.22122783711E+03  0.00000000000E+00 0.  1.
          1   -1    0    0  501    0  0.00000000000E+00 -0.00000000000E+00 -0.24811721573E+04  0.24811721573E+04  0.00000000000E+00 0. -1.
        -24    2    1    2    0    0  0.60081345934E+03 -0.83220461824E+01 -0.11984447365E+04  0.13430415691E+04  0.80279513947E+02 0.  0.
    5000000    2    1    2    0    0 -0.60081345934E+03  0.83220461824E+01 -0.10614995836E+04  0.13593584253E+04  0.60002324376E+03 0.  0.
        -24    2    4    4    0    0  0.27895521380E+02  0.65612368651E+02 -0.49749387490E+03  0.50889944221E+03  0.79970892725E+02 0.  0.
         24    2    4    4    0    0 -0.62870898072E+03 -0.57290322469E+02 -0.56400570872E+03  0.85045898309E+03  0.81368783810E+02 0.  0.
         11    1    3    3    0    0  0.50330253835E+03  0.49766324755E+01 -0.10570917649E+04  0.11708036605E+04  0.00000000000E+00 0. -1.
        -12    1    3    3    0    0  0.97510920990E+02 -0.13298678658E+02 -0.14135297163E+03  0.17223790859E+03  0.00000000000E+00 0.  1.
         13    1    5    5    0    0  0.23225815082E+02  0.80672981598E+02 -0.32431313672E+03  0.33500235685E+03  0.00000000000E+00 0. -1.
        -14    1    5    5    0    0  0.46697062983E+01 -0.15060612946E+02 -0.17318073819E+03  0.17389708536E+03  0.00000000000E+00 0.  1.
          2    1    6    6  502    0 -0.61122603266E+03 -0.55246407456E+02 -0.56298493267E+03  0.83282739085E+03  0.00000000000E+00 0. -1.
         -1    1    6    6    0  502 -0.17482948055E+02 -0.20439150124E+01 -0.10207760469E+01  0.17631592242E+02  0.00000000000E+00 0.  1.
<mgrwt>
<rscale>  0 0.66638910E+03</rscale>
<asrwt>0</asrwt>
<pdfrwt beam="1">  1        1 0.38171883E+00 0.66638910E+03</pdfrwt>
<pdfrwt beam="2">  1       -2 0.34035049E-01 0.66638910E+03</pdfrwt>
<totfact> 0.10547912E+01</totfact>
</mgrwt>
</event>
<event>
12    3  0.2269558E-007  0.9380343E+03  0.7818608E-02  0.9379247E-01
          1   -1    0    0  501    0  0.00000000000E+00  0.00000000000E+00  0.90874904963E+03  0.90874904963E+03  0.00000000000E+00 0. -1.
         -2   -1    0    0    0  501 -0.00000000000E+00 -0.00000000000E+00 -0.11147272005E+04  0.11147272005E+04  0.00000000000E+00 0.  1.
        -24    2    1    2    0    0  0.78474906644E+03  0.44424041828E+03  0.62581590284E+02  0.90763478150E+03  0.81876703841E+02 0.  0.
    5000000    2    1    2    0    0 -0.78474906644E+03 -0.44424041828E+03 -0.26855974113E+03  0.11158414686E+04  0.59983097785E+03 0.  0.
        -24    2    4    4    0    0 -0.97972281990E+02 -0.22165250209E+03  0.13127641871E+03  0.28668158821E+03  0.78895089761E+02 0.  0.
         24    2    4    4    0    0 -0.68677678445E+03 -0.22258791619E+03 -0.39983615984E+03  0.82915988039E+03  0.80183666924E+02 0.  0.
         11    1    5    5    0    0 -0.14875255806E+02 -0.11855407581E+03  0.40600819017E+02  0.12619337792E+03  0.00000000000E+00 0. -1.
        -12    1    5    5    0    0 -0.83097026184E+02 -0.10309842628E+03  0.90675599698E+02  0.16048821029E+03  0.00000000000E+00 0.  1.
         11    1    3    3    0    0  0.67751031265E+03  0.37383280961E+03  0.81008271128E+02  0.77803183307E+03  0.00000000000E+00 0. -1.
        -12    1    3    3    0    0  0.10723875379E+03  0.70407608671E+02 -0.18426680843E+02  0.12960294842E+03  0.00000000000E+00 0.  1.
          4    1    6    6  502    0 -0.44128649449E+03 -0.14993708622E+03 -0.30054559308E+03  0.55456519325E+03  0.00000000000E+00 0. -1.
         -3    1    6    6    0  502 -0.24549028996E+03 -0.72650829971E+02 -0.99290566766E+02  0.27459468714E+03  0.00000000000E+00 0.  1.
<mgrwt>
<rscale>  0 0.93803433E+03</rscale>
<asrwt>0</asrwt>
<pdfrwt beam="1">  1        1 0.13980755E+00 0.93803433E+03</pdfrwt>
<pdfrwt beam="2">  1       -2 0.17149649E+00 0.93803433E+03</pdfrwt>
<totfact> 0.32712691E+00</totfact>
</mgrwt>
</event>
<event>
12    3  0.2269558E-007  0.9694245E+03  0.7818608E-02  0.9342730E-01
          1   -1    0    0  501    0  0.00000000000E+00  0.00000000000E+00  0.14666834626E+04  0.14666834626E+04  0.00000000000E+00 0. -1.
         -2   -1    0    0    0  501 -0.00000000000E+00 -0.00000000000E+00 -0.79399161070E+03  0.79399161070E+03  0.00000000000E+00 0.  1.
        -24    2    1    2    0    0 -0.92246976286E+03 -0.21540711677E+03  0.62647848908E+03  0.11385077383E+04  0.79836605116E+02 0.  0.
    5000000    2    1    2    0    0  0.92246976286E+03  0.21540711677E+03  0.46213362853E+02  0.11221673350E+04  0.59981093985E+03 0.  0.
        -24    2    4    4    0    0  0.40451048456E+03  0.21727142842E+03  0.28527827537E+03  0.54673466758E+03  0.81850452717E+02 0.  0.
         24    2    4    4    0    0  0.51795927830E+03 -0.18643116512E+01 -0.23906491251E+03  0.57543266746E+03  0.75401808631E+02 0.  0.
         11    1    3    3    0    0 -0.24724775701E+03 -0.90841601531E+02  0.19229906933E+03  0.32613276742E+03  0.00000000000E+00 0. -1.
        -12    1    3    3    0    0 -0.67522200585E+03 -0.12456551524E+03  0.43417941975E+03  0.81237497087E+03  0.00000000000E+00 0.  1.
         13    1    5    5    0    0  0.42463493545E+02 -0.17604261550E+01  0.35432420538E+02  0.55332664941E+02  0.00000000000E+00 0. -1.
        -14    1    5    5    0    0  0.36204699101E+03  0.21903185458E+03  0.24984585483E+03  0.49140200264E+03  0.00000000000E+00 0.  1.
          2    1    6    6  502    0  0.82324919802E+01 -0.10545142005E+02 -0.34376551017E+01  0.13812726621E+02  0.00000000000E+00 0. -1.
         -1    1    6    6    0  502  0.50972678632E+03  0.86808303537E+01 -0.23562725741E+03  0.56161994084E+03  0.00000000000E+00 0.  1.
<mgrwt>
<rscale>  0 0.96942446E+03</rscale>
<asrwt>0</asrwt>
<pdfrwt beam="1">  1        1 0.22564361E+00 0.96942446E+03</pdfrwt>
<pdfrwt beam="2">  1       -2 0.12215256E+00 0.96942446E+03</pdfrwt>
<totfact> 0.30831859E+00</totfact>
</mgrwt>
</event>
<event>
12    3  0.2269558E-007  0.1645690E+04  0.7818608E-02  0.8792960E-01
         -2   -1    0    0    0  501 -0.00000000000E+00  0.00000000000E+00  0.82474444571E+03  0.82474444571E+03  0.00000000000E+00 0.  1.
          1   -1    0    0  501    0  0.00000000000E+00 -0.00000000000E+00 -0.34944745995E+04  0.34944745995E+04  0.00000000000E+00 0. -1.
        -24    2    1    2    0    0 -0.94166263926E+03 -0.13444945000E+04 -0.14079389659E+04  0.21635710778E+04  0.65982499038E+02 0.  0.
    5000000    2    1    2    0    0  0.94166263926E+03  0.13444945000E+04 -0.12617911879E+04  0.21556479674E+04  0.60025592135E+03 0.  0.
        -24    2    4    4    0    0  0.62129656510E+03  0.78002338199E+03 -0.10898124948E+04  0.14796980297E+04  0.85843385798E+02 0.  0.
         24    2    4    4    0    0  0.32036607415E+03  0.56447111797E+03 -0.17197869304E+03  0.67594993776E+03  0.77907528540E+02 0.  0.
         11    1    3    3    0    0 -0.99903626981E+02 -0.13840467048E+03 -0.12092817660E+03  0.20918941510E+03  0.00000000000E+00 0. -1.
        -12    1    3    3    0    0 -0.84175901228E+03 -0.12060898295E+04 -0.12870107893E+04  0.19543816627E+04  0.00000000000E+00 0.  1.
         11    1    5    5    0    0  0.13884845813E+03  0.23247565346E+03 -0.31257789674E+03  0.41355624201E+03  0.00000000000E+00 0. -1.
        -12    1    5    5    0    0  0.48244810697E+03  0.54754772853E+03 -0.77723459808E+03  0.10661417877E+04  0.00000000000E+00 0.  1.
          2    1    6    6  502    0  0.24925207203E+03  0.45514908500E+03 -0.10541189759E+03  0.52952710331E+03  0.00000000000E+00 0. -1.
         -1    1    6    6    0  502  0.71114002128E+02  0.10932203297E+03 -0.66566795451E+02  0.14642283445E+03  0.00000000000E+00 0.  1.
<mgrwt>
<rscale>  0 0.16456900E+04</rscale>
<asrwt>0</asrwt>
<pdfrwt beam="1">  1        1 0.53761148E+00 0.16456900E+04</pdfrwt>
<pdfrwt beam="2">  1       -2 0.12688376E+00 0.16456900E+04</pdfrwt>
<totfact> 0.96143983E-02</totfact>
</mgrwt>
</event>
<event>
12    3  0.2269558E-007  0.8774008E+03  0.7818608E-02  0.9454281E-01
          1   -1    0    0  501    0  0.00000000000E+00  0.00000000000E+00  0.46662183546E+04  0.46662183546E+04  0.00000000000E+00 0. -1.
         -2   -1    0    0    0  501 -0.00000000000E+00 -0.00000000000E+00 -0.23321947758E+03  0.23321947758E+03  0.00000000000E+00 0.  1.
        -24    2    1    2    0    0 -0.22363163258E+03  0.76499859911E+03  0.80053383893E+03  0.11323908282E+04  0.78870760143E+02 0.  0.
    5000000    2    1    2    0    0  0.22363163258E+03 -0.76499859911E+03  0.36324650381E+04  0.37670470040E+04  0.60050554821E+03 0.  0.
        -24    2    4    4    0    0 -0.15678344845E+02  0.74690485748E+02  0.27074450268E+03  0.29217991807E+03  0.79006579661E+02 0.  0.
         24    2    4    4    0    0  0.23930997743E+03 -0.83968908486E+03  0.33617205354E+04  0.34748670859E+04  0.10577940246E+03 0.  0.
         11    1    5    5    0    0 -0.21199539934E+02  0.45633782305E+02  0.55504674259E+02  0.74917497592E+02  0.00000000000E+00 0. -1.
        -12    1    5    5    0    0  0.55211950888E+01  0.29056703443E+02  0.21523982843E+03  0.21726242048E+03  0.00000000000E+00 0.  1.
         13    1    3    3    0    0 -0.10596632255E+03  0.25235554559E+03  0.24456179818E+03  0.36704585004E+03  0.00000000000E+00 0. -1.
        -14    1    3    3    0    0 -0.11766531004E+03  0.51264305353E+03  0.55597204075E+03  0.76534497817E+03  0.00000000000E+00 0.  1.
          2    1    6    6  502    0  0.22993628339E+03 -0.73504686585E+03  0.28338314133E+04  0.29366247748E+04  0.00000000000E+00 0. -1.
         -1    1    6    6    0  502  0.93736940333E+01 -0.10464221901E+03  0.52788912213E+03  0.53824231105E+03  0.00000000000E+00 0.  1.
<mgrwt>
<rscale>  0 0.87740077E+03</rscale>
<asrwt>0</asrwt>
<pdfrwt beam="1">  1        1 0.71787968E+00 0.87740077E+03</pdfrwt>
<pdfrwt beam="2">  1       -2 0.35879923E-01 0.87740077E+03</pdfrwt>
<totfact> 0.15237594E-01</totfact>
</mgrwt>
</event>
<event>
12    3  0.2269558E-007  0.6330374E+03  0.7818608E-02  0.9839139E-01
          1   -1    0    0  501    0  0.00000000000E+00  0.00000000000E+00  0.64473562172E+03  0.64473562172E+03  0.00000000000E+00 0. -1.
         -2   -1    0    0    0  501 -0.00000000000E+00 -0.00000000000E+00 -0.10879257052E+04  0.10879257052E+04  0.00000000000E+00 0.  1.
        -24    2    1    2    0    0 -0.55110926430E+03 -0.13887755201E+03  0.27626872027E+03  0.63687549823E+03  0.79231299354E+02 0.  0.
    5000000    2    1    2    0    0  0.55110926430E+03  0.13887755201E+03 -0.71945880376E+03  0.10957858287E+04  0.60009767241E+03 0.  0.
        -24    2    4    4    0    0  0.21810794875E+03 -0.13685826709E+03 -0.57167770959E+03  0.63199889058E+03  0.79409895272E+02 0.  0.
         24    2    4    4    0    0  0.33300131555E+03  0.27573581911E+03 -0.14778109417E+03  0.46378693812E+03  0.79617548861E+02 0.  0.
         11    1    3    3    0    0 -0.23454719181E+03 -0.49697866360E+02  0.15911051723E+03  0.28774714560E+03  0.00000000000E+00 0. -1.
        -12    1    3    3    0    0 -0.31656207249E+03 -0.89179685652E+02  0.11715820304E+03  0.34912835263E+03  0.00000000000E+00 0.  1.
         13    1    5    5    0    0  0.50320278561E+02 -0.24660914479E+02 -0.21486354249E+03  0.22205096944E+03  0.00000000000E+00 0. -1.
        -14    1    5    5    0    0  0.16778767019E+03 -0.11219735262E+03 -0.35681416710E+03  0.40994792114E+03  0.00000000000E+00 0.  1.
          2    1    6    6  502    0  0.26037090795E+03  0.25399540738E+03 -0.12512968531E+03  0.38466103887E+03  0.00000000000E+00 0. -1.
         -1    1    6    6    0  502  0.72630407598E+02  0.21740411724E+02 -0.22651408857E+02  0.79125899256E+02  0.00000000000E+00 0.  1.
<mgrwt>
<rscale>  0 0.63303740E+03</rscale>
<asrwt>0</asrwt>
<pdfrwt beam="1">  1        1 0.99190097E-01 0.63303740E+03</pdfrwt>
<pdfrwt beam="2">  1       -2 0.16737318E+00 0.63303740E+03</pdfrwt>
<totfact> 0.62380139E+00</totfact>
</mgrwt>
</event>
<event>
12    3  0.2269558E-007  0.8705217E+03  0.7818608E-02  0.9463200E-01
          1   -1    0    0  501    0  0.00000000000E+00  0.00000000000E+00  0.23118778619E+04  0.23118778619E+04  0.00000000000E+00 0. -1.
         -2   -1    0    0    0  501 -0.00000000000E+00 -0.00000000000E+00 -0.42557042967E+03  0.42557042967E+03  0.00000000000E+00 0.  1.
        -24    2    1    2    0    0 -0.10853061460E+03  0.78356298753E+03  0.26797082657E+03  0.83890472036E+03  0.78758594577E+02 0.  0.
    5000000    2    1    2    0    0  0.10853061460E+03 -0.78356298753E+03  0.16183366057E+04  0.18985435712E+04  0.59975367678E+03 0.  0.
        -24    2    4    4    0    0 -0.19794732523E+03 -0.33588703234E+03  0.41165090916E+03  0.57312730979E+03  0.83756791663E+02 0.  0.
         24    2    4    4    0    0  0.30647793984E+03 -0.44767595519E+03  0.12066856965E+04  0.13254162614E+04  0.79343603585E+02 0.  0.
         11    1    5    5    0    0 -0.19010563278E+03 -0.25801771384E+03  0.33305797734E+03  0.46221305536E+03  0.00000000000E+00 0. -1.
        -12    1    5    5    0    0 -0.78416924520E+01 -0.77869318499E+02  0.78592931815E+02  0.11091425443E+03  0.00000000000E+00 0.  1.
         13    1    3    3    0    0 -0.54162528998E+02  0.60708648186E+03  0.22137252762E+03  0.64845460288E+03  0.00000000000E+00 0. -1.
        -14    1    3    3    0    0 -0.54368085606E+02  0.17647650567E+03  0.46598298952E+02  0.19045011749E+03  0.00000000000E+00 0.  1.
          4    1    6    6  502    0  0.11010933650E+03 -0.99539787565E+02  0.34172877328E+03  0.37257320057E+03  0.00000000000E+00 0. -1.
         -3    1    6    6    0  502  0.19636860334E+03 -0.34813616762E+03  0.86495692322E+03  0.95284306085E+03  0.00000000000E+00 0.  1.
<mgrwt>
<rscale>  0 0.87052165E+03</rscale>
<asrwt>0</asrwt>
<pdfrwt beam="1">  1        1 0.35567351E+00 0.87052165E+03</pdfrwt>
<pdfrwt beam="2">  1       -2 0.65472375E-01 0.87052165E+03</pdfrwt>
<totfact> 0.35538391E+00</totfact>
</mgrwt>
</event>
<event>
12    3  0.2269558E-007  0.5961403E+03  0.7818608E-02  0.9913446E-01
         -2   -1    0    0    0  501 -0.00000000000E+00  0.00000000000E+00  0.69607007943E+03  0.69607007943E+03  0.00000000000E+00 0.  1.
          1   -1    0    0  501    0  0.00000000000E+00 -0.00000000000E+00 -0.64615746918E+03  0.64615746918E+03  0.00000000000E+00 0. -1.
        -24    2    1    2    0    0 -0.47028750191E+03 -0.25022642008E+03  0.17127822666E+02  0.53926629727E+03  0.82043776731E+02 0.  0.
    5000000    2    1    2    0    0  0.47028750191E+03  0.25022642008E+03  0.32784787578E+02  0.80296125134E+03  0.59990693704E+03 0.  0.
        -24    2    4    4    0    0 -0.47561266710E+02  0.76756528310E+02  0.19388819445E+03  0.22814314230E+03  0.79391578297E+02 0.  0.
         24    2    4    4    0    0  0.51784876862E+03  0.17346989177E+03 -0.16110340687E+03  0.57481810904E+03  0.78755318989E+02 0.  0.
         11    1    3    3    0    0 -0.41732531699E+03 -0.23746204010E+03 -0.57241601027E+01  0.48018892813E+03  0.00000000000E+00 0. -1.
        -12    1    3    3    0    0 -0.52962184922E+02 -0.12764379979E+02  0.22851982768E+02  0.59077369139E+02  0.00000000000E+00 0.  1.
         13    1    5    5    0    0 -0.21105951200E+02  0.78591921483E+02  0.18142901657E+03  0.19884325322E+03  0.00000000000E+00 0. -1.
        -14    1    5    5    0    0 -0.26455315510E+02 -0.18353931730E+01  0.12459177880E+02  0.29299889082E+02  0.00000000000E+00 0.  1.
          2    1    6    6  502    0  0.35034192949E+03  0.14799668531E+03 -0.88470687027E+02  0.39047349319E+03  0.00000000000E+00 0. -1.
         -1    1    6    6    0  502  0.16750683912E+03  0.25473206459E+02 -0.72632719841E+02  0.18434461585E+03  0.00000000000E+00 0.  1.
<mgrwt>
<rscale>  0 0.59614027E+03</rscale>
<asrwt>0</asrwt>
<pdfrwt beam="1">  1        1 0.99408841E-01 0.59614027E+03</pdfrwt>
<pdfrwt beam="2">  1       -2 0.10708770E+00 0.59614027E+03</pdfrwt>
<totfact> 0.19537584E+01</totfact>
</mgrwt>
</event>
<event>
12    3  0.2269558E-007  0.4572558E+03  0.7818608E-02  0.1025580E+00
          1   -1    0    0  501    0  0.00000000000E+00  0.00000000000E+00  0.10155479160E+04  0.10155479160E+04  0.00000000000E+00 0. -1.
         -2   -1    0    0    0  501 -0.00000000000E+00 -0.00000000000E+00 -0.26829861728E+03  0.26829861728E+03  0.00000000000E+00 0.  1.
        -24    2    1    2    0    0  0.18567508459E+03  0.22030175447E+03  0.22093059330E+02  0.29940673296E+03  0.78410384609E+02 0.  0.
    5000000    2    1    2    0    0 -0.18567508459E+03 -0.22030175447E+03  0.72515623940E+03  0.98443980032E+03  0.60021833432E+03 0.  0.
        -24    2    4    4    0    0  0.38118644562E+02  0.16544087002E+03  0.10023130114E+03  0.21249145727E+03  0.79262810615E+02 0.  0.
         24    2    4    4    0    0 -0.22379372915E+03 -0.38574262448E+03  0.62492493826E+03  0.77194834306E+03  0.80573322763E+02 0.  0.
         13    1    5    5    0    0  0.42366371588E+02  0.13737722527E+03  0.45418045861E+02  0.15076541498E+03  0.00000000000E+00 0. -1.
        -14    1    5    5    0    0 -0.42477270256E+01  0.28063644745E+02  0.54813255283E+02  0.61726042283E+02  0.00000000000E+00 0.  1.
         13    1    3    3    0    0 -0.55707261970E+00  0.30469224119E+02  0.13519252551E+02  0.33338478337E+02  0.00000000000E+00 0. -1.
        -14    1    3    3    0    0  0.18623215721E+03  0.18983253035E+03  0.85738067791E+01  0.26606825462E+03  0.00000000000E+00 0.  1.
          2    1    6    6  502    0 -0.66546173494E+02 -0.11363190186E+03  0.25137177385E+03  0.28377521213E+03  0.00000000000E+00 0. -1.
         -1    1    6    6    0  502 -0.15724755565E+03 -0.27211072262E+03  0.37355316441E+03  0.48817313093E+03  0.00000000000E+00 0.  1.
<mgrwt>
<rscale>  0 0.45725583E+03</rscale>
<asrwt>0</asrwt>
<pdfrwt beam="1">  1        1 0.15623814E+00 0.45725583E+03</pdfrwt>
<pdfrwt beam="2">  1       -2 0.41276711E-01 0.45725583E+03</pdfrwt>
<totfact> 0.75346064E+01</totfact>
</mgrwt>
</event>
<event>
12    3  0.2269558E-007  0.4550989E+03  0.7818608E-02  0.1026212E+00
          1   -1    0    0  501    0  0.00000000000E+00  0.00000000000E+00  0.12949357093E+04  0.12949357093E+04  0.00000000000E+00 0. -1.
         -2   -1    0    0    0  501 -0.00000000000E+00 -0.00000000000E+00 -0.20818837113E+03  0.20818837113E+03  0.00000000000E+00 0.  1.
        -24    2    1    2    0    0  0.70736534786E+02 -0.32523999265E+03  0.26693004749E+03  0.43407050060E+03  0.79880154417E+02 0.  0.
    5000000    2    1    2    0    0 -0.70736534786E+02  0.32523999265E+03  0.81981729067E+03  0.10690535798E+04  0.59999204685E+03 0.  0.
        -24    2    4    4    0    0 -0.25866158016E+03  0.11034471739E+03  0.14144241161E+03  0.32911771544E+03  0.96076766749E+02 0.  0.
         24    2    4    4    0    0  0.18792504538E+03  0.21489527526E+03  0.67837487906E+03  0.73993586438E+03  0.76267980456E+02 0.  0.
         13    1    3    3    0    0  0.54947239130E+02 -0.16745316004E+03  0.18527127416E+03  0.25570530875E+03  0.00000000000E+00 0. -1.
        -14    1    3    3    0    0  0.15789295656E+02 -0.15778683261E+03  0.81658773324E+02  0.17836519185E+03  0.00000000000E+00 0.  1.
         13    1    5    5    0    0 -0.17135532417E+03  0.10489088238E+03  0.60202462800E+02  0.20973574053E+03  0.00000000000E+00 0. -1.
        -14    1    5    5    0    0 -0.87306255997E+02  0.54538350036E+01  0.81239948808E+02  0.11938197492E+03  0.00000000000E+00 0.  1.
          4    1    6    6  502    0  0.13241849796E+03  0.17074299902E+03  0.42433114516E+03  0.47617722653E+03  0.00000000000E+00 0. -1.
         -3    1    6    6    0  502  0.55506547422E+02  0.44152276240E+02  0.25404373390E+03  0.26375863785E+03  0.00000000000E+00 0.  1.
<mgrwt>
<rscale>  0 0.45509893E+03</rscale>
<asrwt>0</asrwt>
<pdfrwt beam="1">  1        1 0.19922087E+00 0.45509893E+03</pdfrwt>
<pdfrwt beam="2">  1       -2 0.32028981E-01 0.45509893E+03</pdfrwt>
<totfact> 0.76629630E+01</totfact>
</mgrwt>
</event>
<event>
12    3  0.2269558E-007  0.6837800E+03  0.7818608E-02  0.9745380E-01
          1   -1    0    0  501    0  0.00000000000E+00  0.00000000000E+00  0.86300460121E+03  0.86300460121E+03  0.00000000000E+00 0. -1.
         -2   -1    0    0    0  501 -0.00000000000E+00 -0.00000000000E+00 -0.13396072963E+04  0.13396072963E+04  0.00000000000E+00 0.  1.
        -24    2    1    2    0    0 -0.47415113560E+03 -0.30226035912E+03  0.61420595894E+03  0.83657677550E+03  0.80194246781E+02 0.  0.
    5000000    2    1    2    0    0  0.47415113560E+03  0.30226035912E+03 -0.10908086540E+04  0.13660351220E+04  0.60000650892E+03 0.  0.
        -24    2    4    4    0    0  0.43748330198E+03  0.45948382401E+03 -0.89181993624E+03  0.10977673370E+04  0.85048830497E+02 0.  0.
         24    2    4    4    0    0  0.36667833620E+02 -0.15722346490E+03 -0.19898871781E+03  0.26826778497E+03  0.79418805718E+02 0.  0.
         13    1    3    3    0    0 -0.27182508605E+03 -0.17745849879E+03  0.29549115065E+03  0.43897086044E+03  0.00000000000E+00 0. -1.
        -14    1    3    3    0    0 -0.20232604955E+03 -0.12480186032E+03  0.31871480829E+03  0.39760591506E+03  0.00000000000E+00 0.  1.
         13    1    5    5    0    0  0.35369990372E+03  0.32157940823E+03 -0.68891150303E+03  0.83852012301E+03  0.00000000000E+00 0. -1.
        -14    1    5    5    0    0  0.83783398263E+02  0.13790441579E+03 -0.20290843321E+03  0.25924721404E+03  0.00000000000E+00 0.  1.
          2    1    6    6  502    0  0.43827158582E+02 -0.11647807974E+03 -0.95667248220E+02  0.15697192510E+03  0.00000000000E+00 0. -1.
         -1    1    6    6    0  502 -0.71593249619E+01 -0.40745385157E+02 -0.10332146959E+03  0.11129585986E+03  0.00000000000E+00 0.  1.
<mgrwt>
<rscale>  0 0.68378000E+03</rscale>
<asrwt>0</asrwt>
<pdfrwt beam="1">  1        1 0.13276994E+00 0.68378000E+03</pdfrwt>
<pdfrwt beam="2">  1       -2 0.20609343E+00 0.68378000E+03</pdfrwt>
<totfact> 0.21639909E+00</totfact>
</mgrwt>
</event>
<event>
12    3  0.2269558E-007  0.7415049E+03  0.7818608E-02  0.9648773E-01
          1   -1    0    0  501    0  0.00000000000E+00  0.00000000000E+00  0.68378329239E+03  0.68378329239E+03  0.00000000000E+00 0. -1.
         -2   -1    0    0    0  501 -0.00000000000E+00 -0.00000000000E+00 -0.87913527615E+03  0.87913527615E+03  0.00000000000E+00 0.  1.
        -24    2    1    2    0    0  0.14110075666E+03  0.63992528902E+03 -0.12670988124E+03  0.67185946337E+03  0.76980162771E+02 0.  0.
    5000000    2    1    2    0    0 -0.14110075666E+03 -0.63992528902E+03 -0.68642102525E+02  0.89105910517E+03  0.59988398179E+03 0.  0.
        -24    2    4    4    0    0 -0.21249793717E+03 -0.39725703287E+02 -0.15209369676E+03  0.27586110897E+03  0.78951593077E+02 0.  0.
         24    2    4    4    0    0  0.71397180503E+02 -0.60019958573E+03  0.83451594232E+02  0.61519799620E+03  0.78532196253E+02 0.  0.
         13    1    3    3    0    0  0.13864658035E+03  0.48057267873E+03 -0.88017332407E+02  0.50785827215E+03  0.00000000000E+00 0. -1.
        -14    1    3    3    0    0  0.24541763099E+01  0.15935261029E+03 -0.38692548831E+02  0.16400119122E+03  0.00000000000E+00 0.  1.
         13    1    5    5    0    0 -0.81365780536E+02 -0.28562108723E+02 -0.10548040792E+03  0.13624353471E+03  0.00000000000E+00 0. -1.
        -14    1    5    5    0    0 -0.13113215663E+03 -0.11163594563E+02 -0.46613288842E+02  0.13961757426E+03  0.00000000000E+00 0.  1.
          2    1    6    6  502    0  0.53703732494E+02 -0.29059130990E+03  0.60631609378E+01  0.29557429217E+03  0.00000000000E+00 0. -1.
         -1    1    6    6    0  502  0.17693448009E+02 -0.30960827583E+03  0.77388433294E+02  0.31962370402E+03  0.00000000000E+00 0.  1.
<mgrwt>
<rscale>  0 0.74150489E+03</rscale>
<asrwt>0</asrwt>
<pdfrwt beam="1">  1        1 0.10519743E+00 0.74150489E+03</pdfrwt>
<pdfrwt beam="2">  1       -2 0.13525158E+00 0.74150489E+03</pdfrwt>
<totfact> 0.99186355E+00</totfact>
</mgrwt>
</event>
<event>
12    3  0.2269558E-007  0.8780365E+03  0.7818608E-02  0.9453461E-01
         -2   -1    0    0    0  501 -0.00000000000E+00  0.00000000000E+00  0.12992269608E+04  0.12992269608E+04  0.00000000000E+00 0.  1.
          1   -1    0    0  501    0  0.00000000000E+00 -0.00000000000E+00 -0.10170724210E+04  0.10170724210E+04  0.00000000000E+00 0. -1.
        -24    2    1    2    0    0 -0.41970828685E+03 -0.72150690052E+03 -0.54230125007E+03  0.99856621481E+03  0.79476952548E+02 0.  0.
    5000000    2    1    2    0    0  0.41970828685E+03  0.72150690052E+03  0.82445578989E+03  0.13177331669E+04  0.59997174621E+03 0.  0.
        -24    2    4    4    0    0  0.26274328658E+03  0.71171373996E+03  0.84691239930E+03  0.11399567477E+04  0.81671857626E+02 0.  0.
         24    2    4    4    0    0  0.15696500026E+03  0.97931605601E+01 -0.22456609411E+02  0.17777641921E+03  0.79788712358E+02 0.  0.
         11    1    5    5    0    0  0.20082281862E+03  0.44423763777E+03  0.51381975078E+03  0.70829910319E+03  0.00000000000E+00 0. -1.
        -12    1    5    5    0    0  0.61920467963E+02  0.26747610219E+03  0.33309264852E+03  0.43165764454E+03  0.00000000000E+00 0.  1.
         13    1    3    3    0    0 -0.37920683876E+03 -0.61415132649E+03 -0.49045903864E+03  0.87265671771E+03  0.00000000000E+00 0. -1.
        -14    1    3    3    0    0 -0.40501448091E+02 -0.10735557403E+03 -0.51842211431E+02  0.12590949710E+03  0.00000000000E+00 0.  1.
          4    1    6    6  502    0  0.56648866529E+02 -0.29257447187E+00  0.30023315971E+02  0.64113798676E+02  0.00000000000E+00 0. -1.
         -3    1    6    6    0  502  0.10031613374E+03  0.10085735032E+02 -0.52479925382E+02  0.11366262053E+03  0.00000000000E+00 0.  1.
<mgrwt>
<rscale>  0 0.87803655E+03</rscale>
<asrwt>0</asrwt>
<pdfrwt beam="1">  1        1 0.15647268E+00 0.87803655E+03</pdfrwt>
<pdfrwt beam="2">  1       -2 0.19988107E+00 0.87803655E+03</pdfrwt>
<totfact> 0.17355813E+00</totfact>
</mgrwt>
</event>
<event>
12    3  0.4144647E-007  0.1033435E+04  0.7818608E-02  0.9272615E-01
         -2   -1    0    0    0  501 -0.00000000000E+00  0.00000000000E+00  0.17986107440E+04  0.17986107440E+04  0.00000000000E+00 0.  1.
          1   -1    0    0  501    0  0.00000000000E+00 -0.00000000000E+00 -0.86599095214E+03  0.86599095214E+03  0.00000000000E+00 0. -1.
        -24    2    1    2    0    0  0.22604791567E+03 -0.97265232719E+03  0.10998886910E+04  0.14876298333E+04  0.78340147719E+02 0.  0.
    5000000    2    1    2    0    0 -0.22604791567E+03  0.97265232719E+03 -0.16726889911E+03  0.11769718628E+04  0.60011138253E+03 0.  0.
        -24    2    4    4    0    0 -0.13050653991E+03  0.93700066340E+03 -0.29378500697E+03  0.99503530723E+03  0.93719966589E+02 0.  0.
         24    2    4    4    0    0 -0.95541375765E+02  0.35651663783E+02  0.12651610785E+03  0.18193655557E+03  0.81825357262E+02 0.  0.
         11    1    3    3    0    0  0.88231720744E+02 -0.53606190502E+03  0.62121051408E+03  0.82525735705E+03  0.00000000000E+00 0. -1.
        -12    1    3    3    0    0  0.13781619493E+03 -0.43659042217E+03  0.47867817690E+03  0.66237247629E+03  0.00000000000E+00 0.  1.
         13    1    5    5    0    0 -0.89869076558E+02  0.59677173807E+03 -0.14036425765E+03  0.61960881458E+03  0.00000000000E+00 0. -1.
        -14    1    5    5    0    0 -0.40637463348E+02  0.34022892533E+03 -0.15342074932E+03  0.37542649265E+03  0.00000000000E+00 0.  1.
          2    1    6    6  502    0 -0.21899107521E+02  0.40265916656E+02  0.86754360921E+02  0.98118469684E+02  0.00000000000E+00 0. -1.
         -1    1    6    6    0  502 -0.73642268244E+02 -0.46142528732E+01  0.39761746934E+02  0.83818085882E+02  0.00000000000E+00 0.  1.
<mgrwt>
<rscale>  0 0.10334353E+04</rscale>
<asrwt>0</asrwt>
<pdfrwt beam="1">  1        1 0.13322938E+00 0.10334353E+04</pdfrwt>
<pdfrwt beam="2">  1       -2 0.27670934E+00 0.10334353E+04</pdfrwt>
<totfact> 0.75099487E-01</totfact>
</mgrwt>
</event>
<event>
12    3  0.2269558E-007  0.1095709E+04  0.7818608E-02  0.9209385E-01
         -2   -1    0    0    0  501 -0.00000000000E+00  0.00000000000E+00  0.16896335395E+04  0.16896335395E+04  0.00000000000E+00 0.  1.
          1   -1    0    0  501    0  0.00000000000E+00 -0.00000000000E+00 -0.15274856583E+04  0.15274856583E+04  0.00000000000E+00 0. -1.
        -24    2    1    2    0    0 -0.78545013198E+03 -0.72738304210E+03  0.11999058552E+04  0.16099779431E+04  0.78974149266E+02 0.  0.
    5000000    2    1    2    0    0  0.78545013198E+03  0.72738304210E+03 -0.10377579740E+04  0.16071412548E+04  0.59995283178E+03 0.  0.
        -24    2    4    4    0    0  0.58496419979E+03  0.70250371258E+03 -0.53786364368E+03  0.10620967306E+04  0.55295430821E+02 0.  0.
         24    2    4    4    0    0  0.20048593219E+03  0.24879329521E+02 -0.49989433032E+03  0.54504452418E+03  0.79784721658E+02 0.  0.
         11    1    5    5    0    0  0.38576807786E+03  0.43213370380E+03 -0.36087908089E+03  0.68248828479E+03  0.00000000000E+00 0. -1.
        -12    1    5    5    0    0  0.19919612194E+03  0.27037000878E+03 -0.17698456280E+03  0.37960844578E+03  0.00000000000E+00 0.  1.
         13    1    3    3    0    0 -0.23914922010E+03 -0.17384270891E+03  0.32349950287E+03  0.43825285541E+03  0.00000000000E+00 0. -1.
        -14    1    3    3    0    0 -0.54630091188E+03 -0.55354033319E+03  0.87640635228E+03  0.11717250877E+04  0.00000000000E+00 0.  1.
          4    1    6    6  502    0  0.89092301926E+01  0.52944945627E+01 -0.10692281278E+03  0.10742389841E+03  0.00000000000E+00 0. -1.
         -3    1    6    6    0  502  0.19157670199E+03  0.19584834958E+02 -0.39297151753E+03  0.43762062577E+03  0.00000000000E+00 0.  1.
<mgrwt>
<rscale>  0 0.10957086E+04</rscale>
<asrwt>0</asrwt>
<pdfrwt beam="1">  1        1 0.23499779E+00 0.10957086E+04</pdfrwt>
<pdfrwt beam="2">  1       -2 0.25994362E+00 0.10957086E+04</pdfrwt>
<totfact> 0.30375420E-01</totfact>
</mgrwt>
</event>
<event>
12    3  0.2269558E-007  0.5824294E+03  0.7818608E-02  0.9942545E-01
          1   -1    0    0  501    0  0.00000000000E+00  0.00000000000E+00  0.98364757921E+03  0.98364757921E+03  0.00000000000E+00 0. -1.
         -2   -1    0    0    0  501 -0.00000000000E+00 -0.00000000000E+00 -0.10350569779E+04  0.10350569779E+04  0.00000000000E+00 0.  1.
        -24    2    1    2    0    0 -0.55277333836E+03 -0.42815456822E+02  0.70857476036E+03  0.90291784323E+03  0.76098052898E+02 0.  0.
    5000000    2    1    2    0    0  0.55277333836E+03  0.42815456822E+02 -0.75998415906E+03  0.11157867139E+04  0.60001045153E+03 0.  0.
        -24    2    4    4    0    0  0.25630024995E+03  0.12945987519E+03 -0.73857998559E+03  0.79639938996E+03  0.79384606891E+02 0.  0.
         24    2    4    4    0    0  0.29647308842E+03 -0.86644418367E+02 -0.21404173466E+02  0.31938732393E+03  0.78400106242E+02 0.  0.
         13    1    3    3    0    0 -0.37807363426E+03 -0.62559709534E+02  0.50486989183E+03  0.63383515038E+03  0.00000000000E+00 0. -1.
        -14    1    3    3    0    0 -0.17469970410E+03  0.19744252712E+02  0.20370486853E+03  0.26908269285E+03  0.00000000000E+00 0.  1.
         13    1    5    5    0    0  0.23100528297E+03  0.11535422878E+03 -0.57552755573E+03  0.63079474179E+03  0.00000000000E+00 0. -1.
        -14    1    5    5    0    0  0.25294966973E+02  0.14105646412E+02 -0.16305242986E+03  0.16560464817E+03  0.00000000000E+00 0.  1.
          4    1    6    6  502    0  0.25924784873E+03 -0.45553543712E+02 -0.17043540836E+02  0.26377083747E+03  0.00000000000E+00 0. -1.
         -3    1    6    6    0  502  0.37225239687E+02 -0.41090874654E+02 -0.43606326309E+01  0.55616486463E+02  0.00000000000E+00 0.  1.
<mgrwt>
<rscale>  0 0.58242944E+03</rscale>
<asrwt>0</asrwt>
<pdfrwt beam="1">  1        1 0.15133040E+00 0.58242944E+03</pdfrwt>
<pdfrwt beam="2">  1       -2 0.15923953E+00 0.58242944E+03</pdfrwt>
<totfact> 0.36768341E+00</totfact>
</mgrwt>
</event>
<event>
12    3  0.2269558E-007  0.5860270E+03  0.7818608E-02  0.9934827E-01
         -2   -1    0    0    0  501 -0.00000000000E+00  0.00000000000E+00  0.40324839971E+03  0.40324839971E+03  0.00000000000E+00 0.  1.
          1   -1    0    0  501    0  0.00000000000E+00 -0.00000000000E+00 -0.12027214194E+04  0.12027214194E+04  0.00000000000E+00 0. -1.
        -24    2    1    2    0    0  0.14585466091E+03 -0.53226925303E+03 -0.45994641898E+03  0.72285394603E+03  0.79893548743E+02 0.  0.
    5000000    2    1    2    0    0 -0.14585466091E+03  0.53226925303E+03 -0.33952660072E+03  0.88311587309E+03  0.60002599351E+03 0.  0.
        -24    2    4    4    0    0 -0.33669864178E+02  0.49257756227E+03 -0.47233884706E+03  0.68803663335E+03  0.80771949318E+02 0.  0.
         24    2    4    4    0    0 -0.11218479673E+03  0.39691690758E+02  0.13281224633E+03  0.19507923974E+03  0.79094614665E+02 0.  0.
         11    1    5    5    0    0  0.61623745269E+00  0.91911243552E+02 -0.49038689010E+02  0.10417701023E+03  0.00000000000E+00 0. -1.
        -12    1    5    5    0    0 -0.34286101630E+02  0.40066631872E+03 -0.42330015804E+03  0.58385962313E+03  0.00000000000E+00 0.  1.
         13    1    3    3    0    0  0.11188230836E+03 -0.49306804696E+03 -0.41187108180E+03  0.65212846731E+03  0.00000000000E+00 0. -1.
        -14    1    3    3    0    0  0.33972352547E+02 -0.39201206070E+02 -0.48075337181E+02  0.70725478719E+02  0.00000000000E+00 0.  1.
          4    1    6    6  502    0 -0.47037638370E+02  0.67090248670E+01  0.10794702417E+03  0.11794113136E+03  0.00000000000E+00 0. -1.
         -3    1    6    6    0  502 -0.65147158360E+02  0.32982665891E+02  0.24865222158E+02  0.77138108381E+02  0.00000000000E+00 0.  1.
<mgrwt>
<rscale>  0 0.58602702E+03</rscale>
<asrwt>0</asrwt>
<pdfrwt beam="1">  1        1 0.18503406E+00 0.58602702E+03</pdfrwt>
<pdfrwt beam="2">  1       -2 0.62038215E-01 0.58602702E+03</pdfrwt>
<totfact> 0.23563594E+01</totfact>
</mgrwt>
</event>
<event>
12    3  0.2269558E-007  0.4538914E+03  0.7818608E-02  0.1026568E+00
         -2   -1    0    0    0  501 -0.00000000000E+00  0.00000000000E+00  0.98118605454E+03  0.98118605454E+03  0.00000000000E+00 0.  1.
          1   -1    0    0  501    0  0.00000000000E+00 -0.00000000000E+00 -0.57342279450E+03  0.57342279450E+03  0.00000000000E+00 0. -1.
        -24    2    1    2    0    0  0.51546581267E+02  0.24675155506E+03 -0.42318034095E+03  0.49913615987E+03  0.80696500256E+02 0.  0.
    5000000    2    1    2    0    0 -0.51546581267E+02 -0.24675155506E+03  0.83094360099E+03  0.10554726892E+04  0.60000995792E+03 0.  0.
        -24    2    4    4    0    0  0.26177268906E+03 -0.15338752600E+03  0.38348335686E+03  0.49586523891E+03  0.82281081043E+02 0.  0.
         24    2    4    4    0    0 -0.31331927033E+03 -0.93364029069E+02  0.44746024413E+03  0.55960745026E+03  0.77807591099E+02 0.  0.
         11    1    5    5    0    0  0.85716239735E+02 -0.78899727537E+02  0.97732288199E+02  0.15206590978E+03  0.00000000000E+00 0. -1.
        -12    1    5    5    0    0  0.17605644933E+03 -0.74487798458E+02  0.28575106866E+03  0.34379932913E+03  0.00000000000E+00 0.  1.
         11    1    3    3    0    0 -0.16446776003E+02  0.11253127460E+03 -0.19735662198E+03  0.22777932400E+03  0.00000000000E+00 0. -1.
        -12    1    3    3    0    0  0.67993357270E+02  0.13422028047E+03 -0.22582371897E+03  0.27135683587E+03  0.00000000000E+00 0.  1.
          4    1    6    6  502    0 -0.57810451036E+02 -0.50680257531E+02  0.95822234010E+02  0.12285128116E+03  0.00000000000E+00 0. -1.
         -3    1    6    6    0  502 -0.25550881930E+03 -0.42683771538E+02  0.35163801012E+03  0.43675616910E+03  0.00000000000E+00 0.  1.
<mgrwt>
<rscale>  0 0.45389135E+03</rscale>
<asrwt>0</asrwt>
<pdfrwt beam="1">  1        1 0.88218892E-01 0.45389135E+03</pdfrwt>
<pdfrwt beam="2">  1       -2 0.15095170E+00 0.45389135E+03</pdfrwt>
<totfact> 0.10011756E+01</totfact>
</mgrwt>
</event>
<event>
12    3  0.2269558E-007  0.7077303E+03  0.7818608E-02  0.9704103E-01
          1   -1    0    0  501    0  0.00000000000E+00  0.00000000000E+00  0.11417344396E+04  0.11417344396E+04  0.00000000000E+00 0. -1.
         -2   -1    0    0    0  501 -0.00000000000E+00 -0.00000000000E+00 -0.49396373828E+03  0.49396373828E+03  0.00000000000E+00 0.  1.
        -24    2    1    2    0    0 -0.23449860327E+03 -0.55263117104E+03  0.47455923427E+03  0.76941197223E+03  0.79984436218E+02 0.  0.
    5000000    2    1    2    0    0  0.23449860327E+03  0.55263117104E+03  0.17321146705E+03  0.86628620565E+03  0.60004897437E+03 0.  0.
        -24    2    4    4    0    0 -0.13566165266E+03 -0.28292678858E+01 -0.36298696120E+02  0.16267482154E+03  0.82057379097E+02 0.  0.
         24    2    4    4    0    0  0.37016025593E+03  0.55546043893E+03  0.20951016317E+03  0.70361138411E+03  0.74963705198E+02 0.  0.
         11    1    5    5    0    0 -0.19584061481E+02  0.14698822190E+02 -0.38073477899E+02  0.45267875554E+02  0.00000000000E+00 0. -1.
        -12    1    5    5    0    0 -0.11607759118E+03 -0.17528090076E+02  0.17747817789E+01  0.11740694599E+03  0.00000000000E+00 0.  1.
         13    1    3    3    0    0 -0.71348705205E+02 -0.89375828028E+02  0.95771890808E+02  0.14916746106E+03  0.00000000000E+00 0. -1.
        -14    1    3    3    0    0 -0.16314989807E+03 -0.46325534301E+03  0.37878734347E+03  0.62024451117E+03  0.00000000000E+00 0.  1.
          4    1    6    6  502    0  0.89369535869E+02  0.15626278814E+03  0.24551037134E+02  0.18168028601E+03  0.00000000000E+00 0. -1.
         -3    1    6    6    0  502  0.28079072006E+03  0.39919765079E+03  0.18495912604E+03  0.52193109811E+03  0.00000000000E+00 0.  1.
<mgrwt>
<rscale>  0 0.70773027E+03</rscale>
<asrwt>0</asrwt>
<pdfrwt beam="1">  1        1 0.17565145E+00 0.70773027E+03</pdfrwt>
<pdfrwt beam="2">  1       -2 0.75994422E-01 0.70773027E+03</pdfrwt>
<totfact> 0.16538199E+01</totfact>
</mgrwt>
</event>
<event>
12    3  0.2269558E-007  0.4200901E+03  0.7818608E-02  0.1037037E+00
         -2   -1    0    0    0  501 -0.00000000000E+00  0.00000000000E+00  0.31066905508E+03  0.31066905508E+03  0.00000000000E+00 0.  1.
          1   -1    0    0  501    0  0.00000000000E+00 -0.00000000000E+00 -0.68804852711E+03  0.68804852711E+03  0.00000000000E+00 0. -1.
        -24    2    1    2    0    0 -0.11515620006E+03 -0.18522332393E+03 -0.26060179301E+03  0.34971574173E+03  0.82578298322E+02 0.  0.
    5000000    2    1    2    0    0  0.11515620006E+03  0.18522332393E+03 -0.11677767901E+03  0.64900184046E+03  0.59999811039E+03 0.  0.
        -24    2    4    4    0    0 -0.19165355077E+03  0.22397404512E+03 -0.12635092595E+03  0.32952350082E+03  0.75668518499E+02 0.  0.
         24    2    4    4    0    0  0.30680975083E+03 -0.38750721193E+02  0.95732469334E+01  0.31947833965E+03  0.79629899231E+02 0.  0.
         11    1    5    5    0    0 -0.88584015943E+02  0.49862740036E+02 -0.49779199747E+02  0.11318740854E+03  0.00000000000E+00 0. -1.
        -12    1    5    5    0    0 -0.10306953482E+03  0.17411130509E+03 -0.76571726200E+02  0.21633609228E+03  0.00000000000E+00 0.  1.
         11    1    3    3    0    0 -0.37152295637E+02 -0.11494820866E+03 -0.18250279726E+03  0.21886218209E+03  0.00000000000E+00 0. -1.
        -12    1    3    3    0    0 -0.78003904421E+02 -0.70275115271E+02 -0.78098995755E+02  0.13085355964E+03  0.00000000000E+00 0.  1.
          4    1    6    6  502    0  0.10555917751E+03 -0.26184079696E+02 -0.32465086237E+02  0.11350034277E+03  0.00000000000E+00 0. -1.
         -3    1    6    6    0  502  0.20125057332E+03 -0.12566641498E+02  0.42038333171E+02  0.20597799687E+03  0.00000000000E+00 0.  1.
<mgrwt>
<rscale>  0 0.42009014E+03</rscale>
<asrwt>0</asrwt>
<pdfrwt beam="1">  1        1 0.10585362E+00 0.42009014E+03</pdfrwt>
<pdfrwt beam="2">  1       -2 0.47795240E-01 0.42009014E+03</pdfrwt>
<totfact> 0.10603528E+02</totfact>
</mgrwt>
</event>
<event>
12    3  0.2269558E-007  0.6909296E+03  0.7818608E-02  0.9732871E-01
         -2   -1    0    0    0  501 -0.00000000000E+00  0.00000000000E+00  0.80322869176E+03  0.80322869176E+03  0.00000000000E+00 0.  1.
          3   -1    0    0  501    0  0.00000000000E+00 -0.00000000000E+00 -0.10135380495E+04  0.10135380495E+04  0.00000000000E+00 0. -1.
        -24    2    1    2    0    0 -0.62923834163E+03 -0.20885403479E+03  0.35755496435E+03  0.75754247638E+03  0.80399953772E+02 0.  0.
    5000000    2    1    2    0    0  0.62923834163E+03  0.20885403479E+03 -0.56786432206E+03  0.10592242649E+04  0.59993771056E+03 0.  0.
        -24    2    4    4    0    0  0.29350236749E+02  0.87750396735E+02 -0.40171434943E+03  0.41999235047E+03  0.80359115136E+02 0.  0.
         24    2    4    4    0    0  0.59988810488E+03  0.12110363805E+03 -0.16614997263E+03  0.63923191439E+03  0.80497188983E+02 0.  0.
         11    1    3    3    0    0 -0.65568156708E+02 -0.96342640224E+01  0.61507949459E+02  0.90416978848E+02  0.00000000000E+00 0. -1.
        -12    1    3    3    0    0 -0.56367018492E+03 -0.19921977076E+03  0.29604701489E+03  0.66712549754E+03  0.00000000000E+00 0.  1.
         13    1    5    5    0    0  0.37406296630E+02  0.53347096959E+02 -0.12434047377E+03  0.14037698244E+03  0.00000000000E+00 0. -1.
        -14    1    5    5    0    0 -0.80560598802E+01  0.34403299776E+02 -0.27737387566E+03  0.27961536803E+03  0.00000000000E+00 0.  1.
          2    1    6    6  502    0  0.37306170194E+03  0.11487074853E+03 -0.10602492326E+03  0.40448931589E+03  0.00000000000E+00 0. -1.
         -3    1    6    6    0  502  0.22682640295E+03  0.62328895254E+01 -0.60125049367E+02  0.23474259849E+03  0.00000000000E+00 0.  1.
<mgrwt>
<rscale>  0 0.69092963E+03</rscale>
<asrwt>0</asrwt>
<pdfrwt beam="1">  1        3 0.15592893E+00 0.69092963E+03</pdfrwt>
<pdfrwt beam="2">  1       -2 0.12357364E+00 0.69092963E+03</pdfrwt>
<totfact> 0.60393259E-01</totfact>
</mgrwt>
</event>
<event>
12    3  0.2269558E-007  0.9833935E+03  0.7818608E-02  0.9326948E-01
          1   -1    0    0  501    0  0.00000000000E+00  0.00000000000E+00  0.30448369576E+04  0.30448369576E+04  0.00000000000E+00 0. -1.
         -2   -1    0    0    0  501 -0.00000000000E+00 -0.00000000000E+00 -0.48752227145E+03  0.48752227145E+03  0.00000000000E+00 0.  1.
        -24    2    1    2    0    0  0.86396830470E+03  0.23862665151E+03  0.22307796234E+04  0.24054328386E+04  0.79658662272E+02 0.  0.
    5000000    2    1    2    0    0 -0.86396830470E+03 -0.23862665151E+03  0.32653506277E+03  0.11269263905E+04  0.59996169210E+03 0.  0.
        -24    2    4    4    0    0 -0.49394885213E+03 -0.42491943421E+03  0.19926299835E+03  0.68636568631E+03  0.82765444190E+02 0.  0.
         24    2    4    4    0    0 -0.37001945257E+03  0.18629278270E+03  0.12727206442E+03  0.44056070416E+03  0.79222215947E+02 0.  0.
         13    1    5    5    0    0 -0.30069610901E+02 -0.60094660513E+01  0.18088197118E+02  0.35601658064E+02  0.00000000000E+00 0. -1.
        -14    1    5    5    0    0 -0.46387924122E+03 -0.41890996815E+03  0.18117480123E+03  0.65076402825E+03  0.00000000000E+00 0.  1.
         13    1    3    3    0    0  0.12741292750E+03  0.44243211329E+02  0.26839149372E+03  0.30037561443E+03  0.00000000000E+00 0. -1.
        -14    1    3    3    0    0  0.73655537720E+03  0.19438344018E+03  0.19623881297E+04  0.21050572242E+04  0.00000000000E+00 0.  1.
          2    1    6    6  502    0 -0.10280145254E+03  0.57717802494E+02  0.74214025709E+02  0.13930974475E+03  0.00000000000E+00 0. -1.
         -1    1    6    6    0  502 -0.26721800003E+03  0.12857498021E+03  0.53058038711E+02  0.30125095941E+03  0.00000000000E+00 0.  1.
<mgrwt>
<rscale>  0 0.98339348E+03</rscale>
<asrwt>0</asrwt>
<pdfrwt beam="1">  1        1 0.46843644E+00 0.98339348E+03</pdfrwt>
<pdfrwt beam="2">  1       -2 0.75003428E-01 0.98339348E+03</pdfrwt>
<totfact> 0.79879194E-01</totfact>
</mgrwt>
</event>
<event>
12    3  0.2269558E-007  0.1681579E+04  0.7818608E-02  0.8771941E-01
         -4   -1    0    0    0  501 -0.00000000000E+00  0.00000000000E+00  0.16511372251E+04  0.16511372251E+04  0.00000000000E+00 0.  1.
          1   -1    0    0  501    0  0.00000000000E+00 -0.00000000000E+00 -0.20192863689E+04  0.20192863689E+04  0.00000000000E+00 0. -1.
        -24    2    1    2    0    0 -0.10576672785E+04 -0.12534831375E+04  0.50513945426E+03  0.17178885624E+04  0.78071740329E+02 0.  0.
    5000000    2    1    2    0    0  0.10576672785E+04  0.12534831375E+04 -0.87328859806E+03  0.19525350315E+04  0.59990001297E+03 0.  0.
        -24    2    4    4    0    0  0.23542104388E+03  0.66685487513E+03 -0.51280516154E+03  0.87716059002E+03  0.79517762783E+02 0.  0.
         24    2    4    4    0    0  0.82224623464E+03  0.58662826238E+03 -0.36048343653E+03  0.10753744415E+04  0.79122011614E+02 0.  0.
         11    1    3    3    0    0 -0.41914984867E+02 -0.29673335235E+02  0.20005231981E+02  0.55114263916E+02  0.00000000000E+00 0. -1.
        -12    1    3    3    0    0 -0.10157522936E+04 -0.12238098023E+04  0.48513422228E+03  0.16627742985E+04  0.00000000000E+00 0.  1.
         13    1    5    5    0    0  0.16161694185E+03  0.50730327215E+03 -0.34707281601E+03  0.63555974183E+03  0.00000000000E+00 0. -1.
        -14    1    5    5    0    0  0.73804102022E+02  0.15955160298E+03 -0.16573234553E+03  0.24160084819E+03  0.00000000000E+00 0.  1.
          4    1    6    6  502    0  0.73982636522E+03  0.55505430674E+03 -0.32916774331E+03  0.98172284140E+03  0.00000000000E+00 0. -1.
         -3    1    6    6    0  502  0.82419869423E+02  0.31573955645E+02 -0.31315693219E+02  0.93651600054E+02  0.00000000000E+00 0.  1.
<mgrwt>
<rscale>  0 0.16815791E+04</rscale>
<asrwt>0</asrwt>
<pdfrwt beam="1">  1        1 0.31065944E+00 0.16815791E+04</pdfrwt>
<pdfrwt beam="2">  1       -4 0.25402111E+00 0.16815791E+04</pdfrwt>
<totfact> 0.75907169E-02</totfact>
</mgrwt>
</event>
<event>
12    3  0.2269558E-007  0.3522922E+03  0.7818608E-02  0.1061678E+00
         -2   -1    0    0    0  501 -0.00000000000E+00  0.00000000000E+00  0.25188434572E+03  0.25188434572E+03  0.00000000000E+00 0.  1.
          1   -1    0    0  501    0  0.00000000000E+00 -0.00000000000E+00 -0.10986251339E+04  0.10986251339E+04  0.00000000000E+00 0. -1.
        -24    2    1    2    0    0  0.62244076988E+02  0.24490233570E+03  0.21181464318E+02  0.26552091506E+03  0.78747842863E+02 0.  0.
    5000000    2    1    2    0    0 -0.62244076988E+02 -0.24490233570E+03 -0.86792225251E+03  0.10849885646E+04  0.60004972267E+03 0.  0.
        -24    2    4    4    0    0  0.12236942112E+03 -0.19885386848E+03 -0.63572627955E+02  0.25470740904E+03  0.79481123306E+02 0.  0.
         24    2    4    4    0    0 -0.18461349811E+03 -0.46048467221E+02 -0.80434962455E+03  0.83028115552E+03  0.78650325283E+02 0.  0.
         11    1    3    3    0    0 -0.13358521378E+01  0.13880804490E+03  0.28142445247E+02  0.14163846601E+03  0.00000000000E+00 0. -1.
        -12    1    3    3    0    0  0.63579929126E+02  0.10609429080E+03 -0.69609809290E+01  0.12388244905E+03  0.00000000000E+00 0.  1.
         13    1    5    5    0    0  0.51779589336E+02 -0.14888109981E+03 -0.23440373943E+02  0.15936172339E+03  0.00000000000E+00 0. -1.
        -14    1    5    5    0    0  0.70589831786E+02 -0.49972768669E+02 -0.40132254013E+02  0.95345685650E+02  0.00000000000E+00 0.  1.
          4    1    6    6  502    0 -0.35176025148E+02  0.12696559154E+02 -0.26218982060E+03  0.26484345826E+03  0.00000000000E+00 0. -1.
         -3    1    6    6    0  502 -0.14943747296E+03 -0.58745026375E+02 -0.54215980396E+03  0.56543769725E+03  0.00000000000E+00 0.  1.
<mgrwt>
<rscale>  0 0.35229221E+03</rscale>
<asrwt>0</asrwt>
<pdfrwt beam="1">  1        1 0.16901926E+00 0.35229221E+03</pdfrwt>
<pdfrwt beam="2">  1       -2 0.38751437E-01 0.35229221E+03</pdfrwt>
<totfact> 0.75009550E+01</totfact>
</mgrwt>
</event>
<event>
12    3  0.2269558E-007  0.3760858E+03  0.7818608E-02  0.1052390E+00
          3   -1    0    0  501    0  0.00000000000E+00  0.00000000000E+00  0.64588398560E+03  0.64588398560E+03  0.00000000000E+00 0. -1.
         -4   -1    0    0    0  501 -0.00000000000E+00 -0.00000000000E+00 -0.59684200464E+03  0.59684200464E+03  0.00000000000E+00 0.  1.
        -24    2    1    2    0    0 -0.11582922712E+03  0.30247088044E+03  0.36224202565E+03  0.49242223532E+03  0.79720319373E+02 0.  0.
    5000000    2    1    2    0    0  0.11582922712E+03 -0.30247088044E+03 -0.31320004469E+03  0.75030375492E+03  0.59996367664E+03 0.  0.
        -24    2    4    4    0    0  0.36703046369E+02  0.18916381433E+02  0.14978263286E+03  0.17534482040E+03  0.81277462028E+02 0.  0.
         24    2    4    4    0    0  0.79126180752E+02 -0.32138726187E+03 -0.46298267755E+03  0.57495893452E+03  0.81695116807E+02 0.  0.
         11    1    5    5    0    0  0.58760864411E+02  0.24681134653E+02  0.82157898522E+02  0.10398037259E+03  0.00000000000E+00 0. -1.
        -12    1    5    5    0    0 -0.22057818042E+02 -0.57647532198E+01  0.67624734338E+02  0.71364447807E+02  0.00000000000E+00 0.  1.
         13    1    3    3    0    0 -0.11984869243E+03  0.21642534912E+03  0.26608510063E+03  0.36332481555E+03  0.00000000000E+00 0. -1.
        -14    1    3    3    0    0  0.40194653076E+01  0.86045531318E+02  0.96156925022E+02  0.12909741977E+03  0.00000000000E+00 0.  1.
          4    1    6    6  502    0  0.36625078685E+02 -0.96052706508E+02 -0.87507586333E+02  0.13500035734E+03  0.00000000000E+00 0. -1.
         -3    1    6    6    0  502  0.42501102067E+02 -0.22533455536E+03 -0.37547509121E+03  0.43995857718E+03  0.00000000000E+00 0.  1.
<mgrwt>
<rscale>  0 0.37608582E+03</rscale>
<asrwt>0</asrwt>
<pdfrwt beam="1">  1        3 0.99366767E-01 0.37608582E+03</pdfrwt>
<pdfrwt beam="2">  1       -4 0.91821847E-01 0.37608582E+03</pdfrwt>
<totfact> 0.20206736E+00</totfact>
</mgrwt>
</event>
<event>
12    3  0.2269558E-007  0.4679954E+03  0.7818608E-02  0.1022488E+00
          1   -1    0    0  501    0  0.00000000000E+00  0.00000000000E+00  0.60796509779E+03  0.60796509779E+03  0.00000000000E+00 0. -1.
         -2   -1    0    0    0  501 -0.00000000000E+00 -0.00000000000E+00 -0.40402371536E+03  0.40402371536E+03  0.00000000000E+00 0.  1.
        -24    2    1    2    0    0  0.15556364369E+03  0.25347429494E+03  0.14390636326E+03  0.33969250381E+03  0.78947389577E+02 0.  0.
    5000000    2    1    2    0    0 -0.15556364369E+03 -0.25347429494E+03  0.60035019162E+02  0.67229630934E+03  0.59994071257E+03 0.  0.
        -24    2    4    4    0    0  0.12846255815E+03  0.11251715676E+03 -0.35813154913E+02  0.19173717568E+03  0.79484734772E+02 0.  0.
         24    2    4    4    0    0 -0.28402620184E+03 -0.36599145171E+03  0.95848174075E+02  0.48055913366E+03  0.84436854641E+02 0.  0.
         11    1    5    5    0    0  0.91155768629E+02  0.76448105014E+02  0.14019291317E+02  0.11979243483E+03  0.00000000000E+00 0. -1.
        -12    1    5    5    0    0  0.37306789516E+02  0.36069051750E+02 -0.49832446230E+02  0.71944740846E+02  0.00000000000E+00 0.  1.
         13    1    3    3    0    0  0.13677464130E+03  0.23853751904E+03  0.10572532508E+03  0.29459343994E+03  0.00000000000E+00 0. -1.
        -14    1    3    3    0    0  0.18789002391E+02  0.14936775899E+02  0.38181038175E+02  0.45099063862E+02  0.00000000000E+00 0.  1.
          2    1    6    6  502    0 -0.89231690507E+02 -0.15609516152E+03  0.70330218439E+02  0.19306562011E+03  0.00000000000E+00 0. -1.
         -1    1    6    6    0  502 -0.19479451133E+03 -0.20989629018E+03  0.25517955635E+02  0.28749351355E+03  0.00000000000E+00 0.  1.
<mgrwt>
<rscale>  0 0.46799537E+03</rscale>
<asrwt>0</asrwt>
<pdfrwt beam="1">  1        1 0.93533091E-01 0.46799537E+03</pdfrwt>
<pdfrwt beam="2">  1       -2 0.62157495E-01 0.46799537E+03</pdfrwt>
<totfact> 0.73569040E+01</totfact>
</mgrwt>
</event>
<event>
12    3  0.2269558E-007  0.9544848E+03  0.7818608E-02  0.9359924E-01
          1   -1    0    0  501    0  0.00000000000E+00  0.00000000000E+00  0.80937696713E+03  0.80937696713E+03  0.00000000000E+00 0. -1.
         -2   -1    0    0    0  501 -0.00000000000E+00 -0.00000000000E+00 -0.12554855834E+04  0.12554855834E+04  0.00000000000E+00 0.  1.
        -24    2    1    2    0    0 -0.56631130518E+03  0.69487957697E+03 -0.40123022428E+03  0.98524403573E+03  0.78447410417E+02 0.  0.
    5000000    2    1    2    0    0  0.56631130518E+03 -0.69487957697E+03 -0.44878391947E+02  0.10796185148E+04  0.59999662205E+03 0.  0.
        -24    2    4    4    0    0 -0.50280976560E+01  0.35481746676E+02 -0.11813016921E+03  0.14598292123E+03  0.77923297541E+02 0.  0.
         24    2    4    4    0    0  0.57133940283E+03 -0.73036132365E+03  0.73251777259E+02  0.93363559352E+03  0.80331950776E+02 0.  0.
         13    1    3    3    0    0 -0.37608635030E+03  0.44961172221E+03 -0.22182551692E+03  0.62673615150E+03  0.00000000000E+00 0. -1.
        -14    1    3    3    0    0 -0.19022495487E+03  0.24526785476E+03 -0.17940470736E+03  0.35850788423E+03  0.00000000000E+00 0.  1.
         13    1    5    5    0    0  0.33399016217E+02  0.32434341515E+02 -0.73567920576E+02  0.87061585855E+02  0.00000000000E+00 0. -1.
        -14    1    5    5    0    0 -0.38427113873E+02  0.30474051607E+01 -0.44562248630E+02  0.58921335370E+02  0.00000000000E+00 0.  1.
          4    1    6    6  502    0  0.38044662069E+03 -0.48117357217E+03  0.86381312108E+02  0.61945893232E+03  0.00000000000E+00 0. -1.
         -3    1    6    6    0  502  0.19089278215E+03 -0.24918775148E+03 -0.13129534849E+02  0.31417666121E+03  0.00000000000E+00 0.  1.
<mgrwt>
<rscale>  0 0.95448475E+03</rscale>
<asrwt>0</asrwt>
<pdfrwt beam="1">  1        1 0.12451953E+00 0.95448475E+03</pdfrwt>
<pdfrwt beam="2">  1       -2 0.19315163E+00 0.95448475E+03</pdfrwt>
<totfact> 0.28119253E+00</totfact>
</mgrwt>
</event>
<event>
12    3  0.2269558E-007  0.9376286E+03  0.7818608E-02  0.9379729E-01
          1   -1    0    0  501    0  0.00000000000E+00  0.00000000000E+00  0.12001812653E+04  0.12001812653E+04  0.00000000000E+00 0. -1.
         -2   -1    0    0    0  501 -0.00000000000E+00 -0.00000000000E+00 -0.86656485407E+03  0.86656485407E+03  0.00000000000E+00 0.  1.
        -24    2    1    2    0    0  0.56928653498E+03  0.73491751910E+03  0.15935714391E+03  0.94658582934E+03  0.80244091354E+02 0.  0.
    5000000    2    1    2    0    0 -0.56928653498E+03 -0.73491751910E+03  0.17425926731E+03  0.11201602900E+04  0.60016819670E+03 0.  0.
        -24    2    4    4    0    0 -0.42510473280E+03 -0.53976484682E+03 -0.14904291369E+03  0.70765453067E+03  0.80628908918E+02 0.  0.
         24    2    4    4    0    0 -0.14418180218E+03 -0.19515267228E+03  0.32330218100E+03  0.41250575936E+03  0.82241982498E+02 0.  0.
         11    1    3    3    0    0  0.50692219164E+03  0.68627527061E+03  0.15658647771E+03  0.86744635594E+03  0.00000000000E+00 0. -1.
        -12    1    3    3    0    0  0.62364343344E+02  0.48642248483E+02  0.27706661962E+01  0.79139473396E+02  0.00000000000E+00 0.  1.
         13    1    5    5    0    0 -0.15043324348E+03 -0.15087409964E+03 -0.17865634033E+02  0.21380443299E+03  0.00000000000E+00 0. -1.
        -14    1    5    5    0    0 -0.27467148932E+03 -0.38889074718E+03 -0.13117727965E+03  0.49385009769E+03  0.00000000000E+00 0.  1.
          4    1    6    6  502    0 -0.53740957407E+02 -0.21251144100E+02  0.51571816816E+02  0.77455496372E+02  0.00000000000E+00 0. -1.
         -3    1    6    6    0  502 -0.90440844776E+02 -0.17390152818E+03  0.27173036418E+03  0.33505026298E+03  0.00000000000E+00 0.  1.
<mgrwt>
<rscale>  0 0.93762862E+03</rscale>
<asrwt>0</asrwt>
<pdfrwt beam="1">  1        1 0.18464327E+00 0.93762862E+03</pdfrwt>
<pdfrwt beam="2">  1       -2 0.13331767E+00 0.93762862E+03</pdfrwt>
<totfact> 0.38311232E+00</totfact>
</mgrwt>
</event>
<event>
12    3  0.2269558E-007  0.5175086E+03  0.7818608E-02  0.1009307E+00
         -2   -1    0    0    0  501 -0.00000000000E+00  0.00000000000E+00  0.16137377305E+03  0.16137377305E+03  0.00000000000E+00 0.  1.
          1   -1    0    0  501    0  0.00000000000E+00 -0.00000000000E+00 -0.18226217272E+04  0.18226217272E+04  0.00000000000E+00 0. -1.
        -24    2    1    2    0    0 -0.63583781126E+01 -0.35579649777E+03 -0.38917357645E+03  0.53325594737E+03  0.79210201402E+02 0.  0.
    5000000    2    1    2    0    0  0.63583781126E+01  0.35579649777E+03 -0.12720743777E+04  0.14507395529E+04  0.59986702787E+03 0.  0.
        -24    2    4    4    0    0 -0.16398082507E+03  0.44381803545E+03 -0.99171171551E+03  0.11018231701E+04  0.81596642120E+02 0.  0.
         24    2    4    4    0    0  0.17033920319E+03 -0.88021537684E+02 -0.28036266224E+03  0.34891638279E+03  0.79851014781E+02 0.  0.
         13    1    5    5    0    0 -0.64736289753E+02  0.25143167924E+03 -0.46920642096E+03  0.53624932821E+03  0.00000000000E+00 0. -1.
        -14    1    5    5    0    0 -0.99244535321E+02  0.19238635621E+03 -0.52250529454E+03  0.56557384193E+03  0.00000000000E+00 0.  1.
         13    1    3    3    0    0  0.26052794221E+02 -0.27607004754E+03 -0.31474915632E+03  0.41947640057E+03  0.00000000000E+00 0. -1.
        -14    1    3    3    0    0 -0.32411172334E+02 -0.79726450227E+02 -0.74424420134E+02  0.11377954680E+03  0.00000000000E+00 0.  1.
          4    1    6    6  502    0  0.42017844441E+02 -0.40884858969E+01 -0.19899741627E+02  0.46671347583E+02  0.00000000000E+00 0. -1.
         -3    1    6    6    0  502  0.12832135875E+03 -0.83933051787E+02 -0.26046292061E+03  0.30224503520E+03  0.00000000000E+00 0.  1.
<mgrwt>
<rscale>  0 0.51750856E+03</rscale>
<asrwt>0</asrwt>
<pdfrwt beam="1">  1        1 0.28040334E+00 0.51750856E+03</pdfrwt>
<pdfrwt beam="2">  1       -2 0.24826735E-01 0.51750856E+03</pdfrwt>
<totfact> 0.53220914E+01</totfact>
</mgrwt>
</event>
<event>
12    3  0.2269558E-007  0.4876935E+03  0.7818608E-02  0.1017042E+00
          1   -1    0    0  501    0  0.00000000000E+00  0.00000000000E+00  0.12903334867E+04  0.12903334867E+04  0.00000000000E+00 0. -1.
         -2   -1    0    0    0  501 -0.00000000000E+00 -0.00000000000E+00 -0.28089926679E+03  0.28089926679E+03  0.00000000000E+00 0.  1.
        -24    2    1    2    0    0 -0.17343432984E+03  0.26379347880E+03  0.79672123269E+03  0.86070375544E+03  0.79873436059E+02 0.  0.
    5000000    2    1    2    0    0  0.17343432984E+03 -0.26379347880E+03  0.21271298719E+03  0.71052899802E+03  0.59994847769E+03 0.  0.
        -24    2    4    4    0    0 -0.90060138015E+02  0.13473218996E+03  0.18780514777E+01  0.18211981978E+03  0.83069309673E+02 0.  0.
         24    2    4    4    0    0  0.26349446785E+03 -0.39852566876E+03  0.21083493572E+03  0.52840917823E+03  0.80702207347E+02 0.  0.
         11    1    5    5    0    0 -0.10448346443E+03  0.11751583346E+03 -0.82897541591E+01  0.15746582320E+03  0.00000000000E+00 0. -1.
        -12    1    5    5    0    0  0.14423326413E+02  0.17216356506E+02  0.10167805637E+02  0.24653996585E+02  0.00000000000E+00 0.  1.
         13    1    3    3    0    0 -0.14308084615E+03  0.19857964768E+03  0.68892541237E+03  0.73111163909E+03  0.00000000000E+00 0. -1.
        -14    1    3    3    0    0 -0.30353483691E+02  0.65213831121E+02  0.10779582033E+03  0.12959211636E+03  0.00000000000E+00 0.  1.
          4    1    6    6  502    0  0.26688105970E+02 -0.24064728108E+02 -0.37370863022E+01  0.36129377979E+02  0.00000000000E+00 0. -1.
         -3    1    6    6    0  502  0.23680636188E+03 -0.37446094065E+03  0.21457202202E+03  0.49227980025E+03  0.00000000000E+00 0.  1.
<mgrwt>
<rscale>  0 0.48769353E+03</rscale>
<asrwt>0</asrwt>
<pdfrwt beam="1">  1        1 0.19851284E+00 0.48769353E+03</pdfrwt>
<pdfrwt beam="2">  1       -2 0.43215273E-01 0.48769353E+03</pdfrwt>
<totfact> 0.43333823E+01</totfact>
</mgrwt>
</event>
<event>
12    3  0.2269558E-007  0.5618973E+03  0.7818608E-02  0.9987771E-01
          1   -1    0    0  501    0  0.00000000000E+00  0.00000000000E+00  0.26493621237E+04  0.26493621237E+04  0.00000000000E+00 0. -1.
         -2   -1    0    0    0  501 -0.00000000000E+00 -0.00000000000E+00 -0.15397588308E+03  0.15397588308E+03  0.00000000000E+00 0.  1.
        -24    2    1    2    0    0 -0.18876639891E+03  0.37500287689E+03  0.40599569739E+03  0.58934386957E+03  0.78954285899E+02 0.  0.
    5000000    2    1    2    0    0  0.18876639891E+03 -0.37500287689E+03  0.20893905432E+04  0.22139941372E+04  0.59996440428E+03 0.  0.
        -24    2    4    4    0    0 -0.38829140859E+02 -0.45369083412E+03  0.10906631677E+04  0.11848188166E+04  0.83104799318E+02 0.  0.
         24    2    4    4    0    0  0.22759553977E+03  0.78687957232E+02  0.99872737556E+03  0.10291753206E+04  0.61269450351E+02 0.  0.
         11    1    3    3    0    0 -0.13053464346E+03  0.17658467305E+03  0.22722763818E+03  0.31599658139E+03  0.00000000000E+00 0. -1.
        -12    1    3    3    0    0 -0.58231755457E+02  0.19841820384E+03  0.17876805921E+03  0.27334728818E+03  0.00000000000E+00 0.  1.
         11    1    5    5    0    0  0.38985127494E+01 -0.11309786162E+03  0.19254700667E+03  0.22333981840E+03  0.00000000000E+00 0. -1.
        -12    1    5    5    0    0 -0.42727653609E+02 -0.34059297251E+03  0.89811616099E+03  0.96147899818E+03  0.00000000000E+00 0.  1.
          2    1    6    6  502    0  0.59834513930E+02  0.16473066806E+02  0.16086806640E+03  0.17242408699E+03  0.00000000000E+00 0. -1.
         -1    1    6    6    0  502  0.16776102584E+03  0.62214890425E+02  0.83785930916E+03  0.85675123363E+03  0.00000000000E+00 0.  1.
<mgrwt>
<rscale>  0 0.56189733E+03</rscale>
<asrwt>0</asrwt>
<pdfrwt beam="1">  1        1 0.40759414E+00 0.56189733E+03</pdfrwt>
<pdfrwt beam="2">  1       -2 0.23688599E-01 0.56189733E+03</pdfrwt>
<totfact> 0.16054663E+01</totfact>
</mgrwt>
</event>
<event>
12    3  0.2269558E-007  0.6647436E+03  0.7818608E-02  0.9779501E-01
         -2   -1    0    0    0  501 -0.00000000000E+00  0.00000000000E+00  0.56748397355E+03  0.56748397355E+03  0.00000000000E+00 0.  1.
          1   -1    0    0  501    0  0.00000000000E+00 -0.00000000000E+00 -0.91633840378E+03  0.91633840378E+03  0.00000000000E+00 0. -1.
        -24    2    1    2    0    0  0.43787650977E+03 -0.35448384263E+03 -0.33644983178E+03  0.66074239430E+03  0.77378225777E+02 0.  0.
    5000000    2    1    2    0    0 -0.43787650977E+03  0.35448384263E+03 -0.12404598451E+02  0.82307998303E+03  0.59992678878E+03 0.  0.
        -24    2    4    4    0    0 -0.47323526807E+03  0.75059426760E+02  0.12143691360E+03  0.50105613346E+03  0.82004807187E+02 0.  0.
         24    2    4    4    0    0  0.35358758299E+02  0.27942441587E+03 -0.13384151205E+03  0.32202384957E+03  0.80358965705E+02 0.  0.
         11    1    3    3    0    0  0.36859779529E+02 -0.97840126491E+01 -0.10506999229E+02  0.39557139472E+02  0.00000000000E+00 0. -1.
        -12    1    3    3    0    0  0.40101673024E+03 -0.34469982998E+03 -0.32594283255E+03  0.62118525482E+03  0.00000000000E+00 0.  1.
         13    1    5    5    0    0 -0.29053263241E+03  0.33106164606E+02  0.34568023390E+02  0.29444893762E+03  0.00000000000E+00 0. -1.
        -14    1    5    5    0    0 -0.18270263566E+03  0.41953262154E+02  0.86868890210E+02  0.20660719583E+03  0.00000000000E+00 0.  1.
          2    1    6    6  502    0  0.36763909406E+02  0.20697248023E+03 -0.13449416444E+03  0.24955535032E+03  0.00000000000E+00 0. -1.
         -1    1    6    6    0  502 -0.14051511075E+01  0.72451935643E+02  0.65265238351E+00  0.72468499248E+02  0.00000000000E+00 0.  1.
<mgrwt>
<rscale>  0 0.66474356E+03</rscale>
<asrwt>0</asrwt>
<pdfrwt beam="1">  1        1 0.14097514E+00 0.66474356E+03</pdfrwt>
<pdfrwt beam="2">  1       -2 0.87305227E-01 0.66474356E+03</pdfrwt>
<totfact> 0.18093480E+01</totfact>
</mgrwt>
</event>
<event>
12    3  0.2269558E-007  0.9460347E+03  0.7818608E-02  0.9369797E-01
         -2   -1    0    0    0  501 -0.00000000000E+00  0.00000000000E+00  0.47509413703E+03  0.47509413703E+03  0.00000000000E+00 0.  1.
          1   -1    0    0  501    0  0.00000000000E+00 -0.00000000000E+00 -0.22279077109E+04  0.22279077109E+04  0.00000000000E+00 0. -1.
        -24    2    1    2    0    0  0.54236702179E+03  0.76115818011E+03 -0.92755924699E+03  0.13191942372E+04  0.79896917455E+02 0.  0.
    5000000    2    1    2    0    0 -0.54236702179E+03 -0.76115818011E+03 -0.82525432687E+03  0.13838076107E+04  0.60029579199E+03 0.  0.
        -24    2    4    4    0    0 -0.52070655046E+03 -0.62064612696E+03 -0.89215245150E+03  0.12076284794E+04  0.78061648486E+02 0.  0.
         24    2    4    4    0    0 -0.21660471323E+02 -0.14051205316E+03  0.66898124632E+02  0.17617913127E+03  0.79692622713E+02 0.  0.
         13    1    5    5    0    0 -0.29847039937E+03 -0.31009360490E+03 -0.43459457839E+03  0.61164946715E+03  0.00000000000E+00 0. -1.
        -14    1    5    5    0    0 -0.22223615109E+03 -0.31055252206E+03 -0.45755787311E+03  0.59597901226E+03  0.00000000000E+00 0.  1.
         13    1    3    3    0    0  0.30584550665E+03  0.40718005192E+03 -0.55792841413E+03  0.75539472060E+03  0.00000000000E+00 0. -1.
        -14    1    3    3    0    0  0.23652151513E+03  0.35397812820E+03 -0.36963083286E+03  0.56379951664E+03  0.00000000000E+00 0.  1.
          2    1    6    6  502    0 -0.27867791864E+02 -0.99265990339E+02  0.82086031901E+02  0.13178948097E+03  0.00000000000E+00 0. -1.
         -1    1    6    6    0  502  0.62073205412E+01 -0.41246062817E+02 -0.15187907269E+02  0.44389650296E+02  0.00000000000E+00 0.  1.
<mgrwt>
<rscale>  0 0.94603473E+03</rscale>
<asrwt>0</asrwt>
<pdfrwt beam="1">  1        1 0.34275504E+00 0.94603473E+03</pdfrwt>
<pdfrwt beam="2">  1       -2 0.73091404E-01 0.94603473E+03</pdfrwt>
<totfact> 0.31513790E+00</totfact>
</mgrwt>
</event>
<event>
12    3  0.2269558E-007  0.4497443E+03  0.7818608E-02  0.1027798E+00
          1   -1    0    0  501    0  0.00000000000E+00  0.00000000000E+00  0.35975559863E+03  0.35975559863E+03  0.00000000000E+00 0. -1.
         -2   -1    0    0    0  501 -0.00000000000E+00 -0.00000000000E+00 -0.90543596329E+03  0.90543596329E+03  0.00000000000E+00 0.  1.
        -24    2    1    2    0    0 -0.24551217895E+03  0.32098639334E+03 -0.13309389526E+03  0.43240063605E+03  0.77122178261E+02 0.  0.
    5000000    2    1    2    0    0  0.24551217895E+03 -0.32098639334E+03 -0.41258646939E+03  0.83279092587E+03  0.60000386395E+03 0.  0.
        -24    2    4    4    0    0 -0.46404323483E+02 -0.39033801712E+02 -0.40684494597E+03  0.41894425880E+03  0.79463721307E+02 0.  0.
         24    2    4    4    0    0  0.29191650243E+03 -0.28195259163E+03 -0.57415234206E+01  0.41384666707E+03  0.80768746634E+02 0.  0.
         11    1    5    5    0    0  0.90724519278E+01 -0.18748510727E+02 -0.25751546679E+03  0.25835640436E+03  0.00000000000E+00 0. -1.
        -12    1    5    5    0    0 -0.55476775411E+02 -0.20285290985E+02 -0.14932947919E+03  0.16058785444E+03  0.00000000000E+00 0.  1.
         13    1    3    3    0    0 -0.67779103377E+02  0.39361301358E+02 -0.24218109072E+02  0.82035575857E+02  0.00000000000E+00 0. -1.
        -14    1    3    3    0    0 -0.17773307557E+03  0.28162509198E+03 -0.10887578619E+03  0.35036506019E+03  0.00000000000E+00 0.  1.
          4    1    6    6  502    0  0.21582715680E+03 -0.18037166452E+03 -0.35444576858E+02  0.28349888360E+03  0.00000000000E+00 0. -1.
         -3    1    6    6    0  502  0.76089345629E+02 -0.10158092711E+03  0.29703053437E+02  0.13034778346E+03  0.00000000000E+00 0.  1.
<mgrwt>
<rscale>  0 0.44974433E+03</rscale>
<asrwt>0</asrwt>
<pdfrwt beam="1">  1        1 0.55347015E-01 0.44974433E+03</pdfrwt>
<pdfrwt beam="2">  1       -2 0.13929784E+00 0.44974433E+03</pdfrwt>
<totfact> 0.23014329E+01</totfact>
</mgrwt>
</event>
<event>
12    3  0.2269558E-007  0.5271901E+03  0.7818608E-02  0.1006916E+00
          3   -1    0    0  501    0  0.00000000000E+00  0.00000000000E+00  0.16715466813E+04  0.16715466813E+04  0.00000000000E+00 0. -1.
         -4   -1    0    0    0  501 -0.00000000000E+00 -0.00000000000E+00 -0.46399055805E+03  0.46399055805E+03  0.00000000000E+00 0.  1.
        -24    2    1    2    0    0 -0.27806466273E+03 -0.39201564107E+03  0.12739756862E+04  0.13639220211E+04  0.79202343658E+02 0.  0.
    5000000    2    1    2    0    0  0.27806466273E+03  0.39201564107E+03 -0.66419562898E+02  0.77161521826E+03  0.59998522249E+03 0.  0.
        -24    2    4    4    0    0 -0.27141750806E+02  0.17599653953E+03 -0.27426453364E+03  0.33656033837E+03  0.79626442742E+02 0.  0.
         24    2    4    4    0    0  0.30520641353E+03  0.21601910154E+03  0.20784497075E+03  0.43505487989E+03  0.79107582184E+02 0.  0.
         11    1    3    3    0    0 -0.99351414559E+02 -0.81803842533E+02  0.31300765515E+03  0.33843221539E+03  0.00000000000E+00 0. -1.
        -12    1    3    3    0    0 -0.17871324817E+03 -0.31021179854E+03  0.96096803100E+03  0.10254898057E+04  0.00000000000E+00 0.  1.
         13    1    5    5    0    0 -0.30216520186E+02  0.17964478988E+03 -0.23665019456E+03  0.29864461021E+03  0.00000000000E+00 0. -1.
        -14    1    5    5    0    0  0.30747693797E+01 -0.36482503416E+01 -0.37614339079E+02  0.37915728157E+02  0.00000000000E+00 0.  1.
          2    1    6    6  502    0  0.14000599411E+03  0.14297421836E+03  0.90239235555E+02  0.21951406592E+03  0.00000000000E+00 0. -1.
         -1    1    6    6    0  502  0.16520041943E+03  0.73044883171E+02  0.11760573519E+03  0.21554081397E+03  0.00000000000E+00 0.  1.
<mgrwt>
<rscale>  0 0.52719007E+03</rscale>
<asrwt>0</asrwt>
<pdfrwt beam="1">  1        3 0.25716102E+00 0.52719007E+03</pdfrwt>
<pdfrwt beam="2">  1       -4 0.71383164E-01 0.52719007E+03</pdfrwt>
<totfact> 0.27966055E-01</totfact>
</mgrwt>
</event>
<event>
12    3  0.2269558E-007  0.4989488E+03  0.7818608E-02  0.1014054E+00
          1   -1    0    0  501    0  0.00000000000E+00  0.00000000000E+00  0.22788480345E+04  0.22788480345E+04  0.00000000000E+00 0. -1.
         -2   -1    0    0    0  501 -0.00000000000E+00 -0.00000000000E+00 -0.18854701476E+03  0.18854701476E+03  0.00000000000E+00 0.  1.
        -24    2    1    2    0    0  0.30873886665E+03  0.31957118370E+03  0.13185440344E+04  0.13937251803E+04  0.80411928941E+02 0.  0.
    5000000    2    1    2    0    0 -0.30873886665E+03 -0.31957118370E+03  0.77175698533E+03  0.10736698690E+04  0.59976054710E+03 0.  0.
        -24    2    4    4    0    0  0.33585263104E+02 -0.16862958488E+03  0.64256754476E+03  0.66996283000E+03  0.79957721376E+02 0.  0.
         24    2    4    4    0    0 -0.34232412975E+03 -0.15094159882E+03  0.12918944057E+03  0.40370703895E+03  0.79500224404E+02 0.  0.
         11    1    3    3    0    0  0.23437920628E+03  0.20258991802E+03  0.98349727102E+03  0.10311368335E+04  0.00000000000E+00 0. -1.
        -12    1    3    3    0    0  0.74359660366E+02  0.11698126568E+03  0.33504676343E+03  0.36258834688E+03  0.00000000000E+00 0.  1.
         13    1    5    5    0    0  0.28756217670E+02 -0.60561269903E+02  0.13186243758E+03  0.14792663692E+03  0.00000000000E+00 0. -1.
        -14    1    5    5    0    0  0.48290454341E+01 -0.10806831498E+03  0.51070510718E+03  0.52203619308E+03  0.00000000000E+00 0.  1.
          2    1    6    6  502    0 -0.19718605384E+03 -0.81399681509E+02  0.32038246506E+02  0.21571902377E+03  0.00000000000E+00 0. -1.
         -1    1    6    6    0  502 -0.14513807591E+03 -0.69541917309E+02  0.97151194065E+02  0.18798801518E+03  0.00000000000E+00 0.  1.
<mgrwt>
<rscale>  0 0.49894883E+03</rscale>
<asrwt>0</asrwt>
<pdfrwt beam="1">  1        1 0.35059198E+00 0.49894883E+03</pdfrwt>
<pdfrwt beam="2">  1       -2 0.29007235E-01 0.49894883E+03</pdfrwt>
<totfact> 0.20074653E+01</totfact>
</mgrwt>
</event>
<event>
12    3  0.2269558E-007  0.6032924E+03  0.7818608E-02  0.9898599E-01
          1   -1    0    0  501    0  0.00000000000E+00  0.00000000000E+00  0.66089991588E+03  0.66089991588E+03  0.00000000000E+00 0. -1.
         -2   -1    0    0    0  501 -0.00000000000E+00 -0.00000000000E+00 -0.66973348186E+03  0.66973348186E+03  0.00000000000E+00 0.  1.
        -24    2    1    2    0    0  0.12559708281E+03 -0.44756930361E+03 -0.25062607941E+03  0.53441232897E+03  0.81793624013E+02 0.  0.
    5000000    2    1    2    0    0 -0.12559708281E+03  0.44756930361E+03  0.24179251343E+03  0.79622106877E+03  0.59950935110E+03 0.  0.
        -24    2    4    4    0    0  0.22715192891E+03  0.20078517929E+03  0.49436436568E+02  0.31791955696E+03  0.81952403301E+02 0.  0.
         24    2    4    4    0    0 -0.35274901172E+03  0.24678412432E+03  0.19235607686E+03  0.47830151181E+03  0.80232204305E+02 0.  0.
         13    1    5    5    0    0  0.10587884770E+03  0.12359834816E+03  0.60762464086E+02  0.17372092304E+03  0.00000000000E+00 0. -1.
        -14    1    5    5    0    0  0.12127308121E+03  0.77186831124E+02 -0.11326027518E+02  0.14419863392E+03  0.00000000000E+00 0.  1.
         13    1    3    3    0    0  0.50532940157E+02 -0.25969563103E+03 -0.10276074533E+03  0.28382242617E+03  0.00000000000E+00 0. -1.
        -14    1    3    3    0    0  0.75064142650E+02 -0.18787367258E+03 -0.14786533409E+03  0.25058990280E+03  0.00000000000E+00 0.  1.
          2    1    6    6  502    0 -0.65636368929E+02  0.24348919533E+02  0.58475389375E+02  0.91216083950E+02  0.00000000000E+00 0. -1.
         -1    1    6    6    0  502 -0.28711264279E+03  0.22243520479E+03  0.13388068749E+03  0.38708542786E+03  0.00000000000E+00 0.  1.
<mgrwt>
<rscale>  0 0.60329239E+03</rscale>
<asrwt>0</asrwt>
<pdfrwt beam="1">  1        1 0.10167691E+00 0.60329239E+03</pdfrwt>
<pdfrwt beam="2">  1       -2 0.10303592E+00 0.60329239E+03</pdfrwt>
<totfact> 0.20711008E+01</totfact>
</mgrwt>
</event>
<event>
12    3  0.2269558E-007  0.8181765E+03  0.7818608E-02  0.9534074E-01
         -2   -1    0    0    0  501 -0.00000000000E+00  0.00000000000E+00  0.64368304713E+03  0.64368304713E+03  0.00000000000E+00 0.  1.
          1   -1    0    0  501    0  0.00000000000E+00 -0.00000000000E+00 -0.15661308721E+04  0.15661308721E+04  0.00000000000E+00 0. -1.
        -24    2    1    2    0    0  0.26955556833E+03  0.67865878294E+03  0.18122917764E+03  0.75676352241E+03  0.81296161907E+02 0.  0.
    5000000    2    1    2    0    0 -0.26955556833E+03 -0.67865878294E+03 -0.11036770026E+04  0.14530503968E+04  0.60001215115E+03 0.  0.
        -24    2    4    4    0    0  0.11911173259E+03 -0.31909425847E+02 -0.36645823528E+03  0.39513051654E+03  0.81428929746E+02 0.  0.
         24    2    4    4    0    0 -0.38866730093E+03 -0.64674935709E+03 -0.73721876734E+03  0.10579198803E+04  0.79724277800E+02 0.  0.
         11    1    3    3    0    0  0.58388202248E+02  0.23020605646E+03  0.35733847019E+02  0.24016852086E+03  0.00000000000E+00 0. -1.
        -12    1    3    3    0    0  0.21116736608E+03  0.44845272649E+03  0.14549533063E+03  0.51659500155E+03  0.00000000000E+00 0.  1.
         11    1    5    5    0    0  0.16088160171E+02  0.22700636606E+02 -0.42222447444E+02  0.50565629317E+02  0.00000000000E+00 0. -1.
        -12    1    5    5    0    0  0.10302357242E+03 -0.54610062453E+02 -0.32423578783E+03  0.34456488723E+03  0.00000000000E+00 0.  1.
          2    1    6    6  502    0 -0.31007784695E+03 -0.44630591169E+03 -0.52913046524E+03  0.75849606935E+03  0.00000000000E+00 0. -1.
         -1    1    6    6    0  502 -0.78589453976E+02 -0.20044344540E+03 -0.20808830210E+03  0.29942381093E+03  0.00000000000E+00 0.  1.
<mgrwt>
<rscale>  0 0.81817647E+03</rscale>
<asrwt>0</asrwt>
<pdfrwt beam="1">  1        1 0.24094321E+00 0.81817647E+03</pdfrwt>
<pdfrwt beam="2">  1       -2 0.99028161E-01 0.81817647E+03</pdfrwt>
<totfact> 0.44735249E+00</totfact>
</mgrwt>
</event>
<event>
12    3  0.2269558E-007  0.4879163E+03  0.7818608E-02  0.1016982E+00
         -2   -1    0    0    0  501 -0.00000000000E+00  0.00000000000E+00  0.32825670984E+03  0.32825670984E+03  0.00000000000E+00 0.  1.
          1   -1    0    0  501    0  0.00000000000E+00 -0.00000000000E+00 -0.10379063208E+04  0.10379063208E+04  0.00000000000E+00 0. -1.
        -24    2    1    2    0    0 -0.39478862840E+03  0.14797560217E+03 -0.32716919121E+03  0.53910049862E+03  0.76386045727E+02 0.  0.
    5000000    2    1    2    0    0  0.39478862840E+03 -0.14797560217E+03 -0.38248041978E+03  0.82706253206E+03  0.59998860028E+03 0.  0.
        -24    2    4    4    0    0 -0.47742279837E+02 -0.61905787232E+02 -0.35108412893E+03  0.36829140648E+03  0.79163392570E+02 0.  0.
         24    2    4    4    0    0  0.44253090824E+03 -0.86069814934E+02 -0.31396290853E+02  0.45877112558E+03  0.79016459036E+02 0.  0.
         11    1    3    3    0    0 -0.74994204370E+01  0.12552420861E+02 -0.46196239986E+00  0.14629353561E+02  0.00000000000E+00 0. -1.
        -12    1    3    3    0    0 -0.38728920797E+03  0.13542318131E+03 -0.32670722881E+03  0.52447114506E+03  0.00000000000E+00 0.  1.
         13    1    5    5    0    0 -0.31187052236E+02 -0.68992125187E+02 -0.16739434534E+03  0.18372101790E+03  0.00000000000E+00 0. -1.
        -14    1    5    5    0    0 -0.16555227601E+02  0.70863379550E+01 -0.18368978359E+03  0.18457038858E+03  0.00000000000E+00 0.  1.
          4    1    6    6  502    0  0.35200508687E+03 -0.99239549576E+02 -0.33589941183E+02  0.36726605279E+03  0.00000000000E+00 0. -1.
         -1    1    6    6    0  502  0.90525821369E+02  0.13169734642E+02  0.21936503307E+01  0.91505072793E+02  0.00000000000E+00 0.  1.
<mgrwt>
<rscale>  0 0.48791628E+03</rscale>
<asrwt>0</asrwt>
<pdfrwt beam="1">  1        1 0.15967790E+00 0.48791628E+03</pdfrwt>
<pdfrwt beam="2">  1       -2 0.50501032E-01 0.48791628E+03</pdfrwt>
<totfact> 0.48354260E+01</totfact>
</mgrwt>
</event>
<event>
12    3  0.2269558E-007  0.3334734E+03  0.7818608E-02  0.1069610E+00
          1   -1    0    0  501    0  0.00000000000E+00  0.00000000000E+00  0.10016961618E+04  0.10016961618E+04  0.00000000000E+00 0. -1.
         -2   -1    0    0    0  501 -0.00000000000E+00 -0.00000000000E+00 -0.37925682869E+03  0.37925682869E+03  0.00000000000E+00 0.  1.
        -24    2    1    2    0    0  0.93736390316E+02 -0.24928066408E+03 -0.19009426657E+03  0.33639415234E+03  0.78088636788E+02 0.  0.
    5000000    2    1    2    0    0 -0.93736390316E+02  0.24928066408E+03  0.81253359965E+03  0.10445588381E+04  0.59997079544E+03 0.  0.
        -24    2    4    4    0    0 -0.97763148881E+02  0.28666419458E+03  0.87920191878E+03  0.93322592851E+03  0.78616956960E+02 0.  0.
         24    2    4    4    0    0  0.40267585650E+01 -0.37383530497E+02 -0.66668319130E+02  0.11133290961E+03  0.80849297152E+02 0.  0.
         11    1    3    3    0    0  0.94973567700E+02 -0.15707259955E+03 -0.10824664630E+03  0.21309414944E+03  0.00000000000E+00 0. -1.
        -12    1    3    3    0    0 -0.12371773841E+01 -0.92208064528E+02 -0.81847620264E+02  0.12330000290E+03  0.00000000000E+00 0.  1.
         11    1    5    5    0    0 -0.70871868777E+02  0.20731171177E+03  0.51788558845E+03  0.56232237226E+03  0.00000000000E+00 0. -1.
        -12    1    5    5    0    0 -0.26891280104E+02  0.79352482805E+02  0.36131633034E+03  0.37090355625E+03  0.00000000000E+00 0.  1.
          2    1    6    6  502    0  0.20563017620E+02  0.19937845547E+02 -0.29098485041E+02  0.40829856850E+02  0.00000000000E+00 0. -1.
         -1    1    6    6    0  502 -0.16536259055E+02 -0.57321376044E+02 -0.37569834089E+02  0.70503052761E+02  0.00000000000E+00 0.  1.
<mgrwt>
<rscale>  0 0.33347338E+03</rscale>
<asrwt>0</asrwt>
<pdfrwt beam="1">  1        1 0.15410710E+00 0.33347338E+03</pdfrwt>
<pdfrwt beam="2">  1       -2 0.58347205E-01 0.33347338E+03</pdfrwt>
<totfact> 0.39315609E+01</totfact>
</mgrwt>
</event>
<event>
12    3  0.2269558E-007  0.1517390E+04  0.7818608E-02  0.8872970E-01
          1   -1    0    0  501    0  0.00000000000E+00  0.00000000000E+00  0.28157337029E+04  0.28157337029E+04  0.00000000000E+00 0. -1.
         -2   -1    0    0    0  501 -0.00000000000E+00 -0.00000000000E+00 -0.84965298941E+03  0.84965298941E+03  0.00000000000E+00 0.  1.
        -24    2    1    2    0    0 -0.13836970315E+04 -0.51544297763E+03  0.11609548296E+04  0.18798876157E+04  0.76566265885E+02 0.  0.
    5000000    2    1    2    0    0  0.13836970315E+04  0.51544297763E+03  0.80512588384E+03  0.17854990765E+04  0.59956678134E+03 0.  0.
        -24    2    4    4    0    0  0.64235643694E+03  0.49590093876E+03  0.24028784314E+03  0.85003380952E+03  0.79244536877E+02 0.  0.
         24    2    4    4    0    0  0.74134059459E+03  0.19542038870E+02  0.56483804070E+03  0.93546526703E+03  0.78009519481E+02 0.  0.
         13    1    5    5    0    0  0.16612664888E+03  0.16299660947E+03  0.45023984477E+02  0.23705087502E+03  0.00000000000E+00 0. -1.
        -14    1    5    5    0    0  0.47622978806E+03  0.33290432929E+03  0.19526385866E+03  0.61298293450E+03  0.00000000000E+00 0.  1.
         13    1    3    3    0    0 -0.10734283922E+04 -0.41563518367E+03  0.86834423433E+03  0.14418816971E+04  0.00000000000E+00 0. -1.
        -14    1    3    3    0    0 -0.31026863929E+03 -0.99807793966E+02  0.29261059528E+03  0.43800591861E+03  0.00000000000E+00 0.  1.
          2    1    6    6  502    0  0.65604083197E+03  0.36320911918E+02  0.51825064228E+03  0.83683481649E+03  0.00000000000E+00 0. -1.
         -1    1    6    6    0  502  0.85299762616E+02 -0.16778873048E+02  0.46587398417E+02  0.98630450544E+02  0.00000000000E+00 0.  1.
<mgrwt>
<rscale>  0 0.15173901E+04</rscale>
<asrwt>0</asrwt>
<pdfrwt beam="1">  1        1 0.43318980E+00 0.15173901E+04</pdfrwt>
<pdfrwt beam="2">  1       -2 0.13071585E+00 0.15173901E+04</pdfrwt>
<totfact> 0.28956446E-01</totfact>
</mgrwt>
</event>
<event>
12    3  0.2269558E-007  0.6216364E+03  0.7818608E-02  0.9861507E-01
         -4   -1    0    0    0  501 -0.00000000000E+00  0.00000000000E+00  0.30917050206E+04  0.30917050206E+04  0.00000000000E+00 0.  1.
          1   -1    0    0  501    0  0.00000000000E+00 -0.00000000000E+00 -0.30053780591E+03  0.30053780591E+03  0.00000000000E+00 0. -1.
        -24    2    1    2    0    0  0.58497300941E+03  0.18609188225E+03  0.23444065618E+04  0.24247100113E+04  0.78440431825E+02 0.  0.
    5000000    2    1    2    0    0 -0.58497300941E+03 -0.18609188225E+03  0.44676065286E+03  0.96753281522E+03  0.59975082926E+03 0.  0.
        -24    2    4    4    0    0 -0.27840696210E+03 -0.11105194357E+03 -0.10473772203E+03  0.32713134413E+03  0.78752493175E+02 0.  0.
         24    2    4    4    0    0 -0.30656604731E+03 -0.75039938677E+02  0.55149837489E+03  0.64040147108E+03  0.79685964250E+02 0.  0.
         11    1    3    3    0    0  0.21988336749E+03  0.30820585502E+02  0.86024722014E+03  0.88843901509E+03  0.00000000000E+00 0. -1.
        -12    1    3    3    0    0  0.36508964192E+03  0.15527129675E+03  0.14841593417E+04  0.15362709962E+04  0.00000000000E+00 0.  1.
         13    1    5    5    0    0 -0.60729838926E+02 -0.24383101322E+02 -0.59625039855E+02  0.88531318435E+02  0.00000000000E+00 0. -1.
        -14    1    5    5    0    0 -0.21767712318E+03 -0.86668842248E+02 -0.45112682176E+02  0.23860002570E+03  0.00000000000E+00 0.  1.
          2    1    6    6  502    0 -0.20248928546E+03 -0.86237033271E+02  0.35290568050E+03  0.41591003350E+03  0.00000000000E+00 0. -1.
         -1    1    6    6    0  502 -0.10407676185E+03  0.11197094594E+02  0.19859269439E+03  0.22449143759E+03  0.00000000000E+00 0.  1.
<mgrwt>
<rscale>  0 0.62163643E+03</rscale>
<asrwt>0</asrwt>
<pdfrwt beam="1">  1        1 0.46236588E-01 0.62163643E+03</pdfrwt>
<pdfrwt beam="2">  1       -4 0.47564690E+00 0.62163643E+03</pdfrwt>
<totfact> 0.86653158E-02</totfact>
</mgrwt>
</event>
<event>
12    3  0.2269558E-007  0.9304536E+03  0.7818608E-02  0.9388294E-01
         -2   -1    0    0    0  501 -0.00000000000E+00  0.00000000000E+00  0.58103891635E+03  0.58103891635E+03  0.00000000000E+00 0.  1.
          1   -1    0    0  501    0  0.00000000000E+00 -0.00000000000E+00 -0.29020602860E+04  0.29020602860E+04  0.00000000000E+00 0. -1.
        -24    2    1    2    0    0  0.84373777704E+03 -0.24988686427E+03 -0.22481809157E+04  0.24155876741E+04  0.80059351797E+02 0.  0.
    5000000    2    1    2    0    0 -0.84373777704E+03  0.24988686427E+03 -0.72840453927E+02  0.10675115283E+04  0.59994853948E+03 0.  0.
        -24    2    4    4    0    0 -0.51266421351E+03 -0.54589788930E+02  0.17172784101E+03  0.54944671324E+03  0.81219446211E+02 0.  0.
         24    2    4    4    0    0 -0.33107356353E+03  0.30447665320E+03 -0.24456829494E+03  0.51806481508E+03  0.79131314411E+02 0.  0.
         11    1    5    5    0    0 -0.38591337028E+03 -0.73057519316E+02  0.11420914773E+03  0.40903576850E+03  0.00000000000E+00 0. -1.
        -12    1    5    5    0    0 -0.12675084324E+03  0.18467730386E+02  0.57518693287E+02  0.14041094475E+03  0.00000000000E+00 0.  1.
         11    1    3    3    0    0  0.39398706526E+03 -0.15838206074E+03 -0.10770005460E+04  0.11576877216E+04  0.00000000000E+00 0. -1.
        -12    1    3    3    0    0  0.44975071178E+03 -0.91504803523E+02 -0.11711803698E+04  0.12578999524E+04  0.00000000000E+00 0.  1.
          4    1    6    6  502    0 -0.11431744970E+03  0.57874518321E+02 -0.61045878804E+02  0.14193145703E+03  0.00000000000E+00 0. -1.
         -3    1    6    6    0  502 -0.21675611383E+03  0.24660213488E+03 -0.18352241614E+03  0.37613335804E+03  0.00000000000E+00 0.  1.
<mgrwt>
<rscale>  0 0.93045360E+03</rscale>
<asrwt>0</asrwt>
<pdfrwt beam="1">  1        1 0.44647082E+00 0.93045360E+03</pdfrwt>
<pdfrwt beam="2">  1       -2 0.89390602E-01 0.93045360E+03</pdfrwt>
<totfact> 0.68554883E-01</totfact>
</mgrwt>
</event>
<event>
12    3  0.2269558E-007  0.5427488E+03  0.7818608E-02  0.1003186E+00
         -2   -1    0    0    0  501 -0.00000000000E+00  0.00000000000E+00  0.44677850221E+03  0.44677850221E+03  0.00000000000E+00 0.  1.
          1   -1    0    0  501    0  0.00000000000E+00 -0.00000000000E+00 -0.10154290906E+04  0.10154290906E+04  0.00000000000E+00 0. -1.
        -24    2    1    2    0    0 -0.44199830537E+03 -0.13041907540E+03  0.69558708461E+02  0.47236734630E+03  0.76947116591E+02 0.  0.
    5000000    2    1    2    0    0  0.44199830537E+03  0.13041907540E+03 -0.63820929686E+03  0.98984024653E+03  0.60008413566E+03 0.  0.
        -24    2    4    4    0    0  0.34604543337E+03 -0.95546435633E+02 -0.82074482328E+02  0.37690114118E+03  0.80260116183E+02 0.  0.
         24    2    4    4    0    0  0.95952871996E+02  0.22596551103E+03 -0.55613481454E+03  0.61293910535E+03  0.78364846148E+02 0.  0.
         11    1    5    5    0    0  0.16123763926E+03 -0.86043691555E+02 -0.37844415249E+02  0.18663679417E+03  0.00000000000E+00 0. -1.
        -12    1    5    5    0    0  0.18480779411E+03 -0.95027440785E+01 -0.44230067079E+02  0.19026434701E+03  0.00000000000E+00 0.  1.
         13    1    3    3    0    0 -0.25888185507E+03 -0.57185022329E+02  0.61044440995E+01  0.26519277121E+03  0.00000000000E+00 0. -1.
        -14    1    3    3    0    0 -0.18311645030E+03 -0.73234053070E+02  0.63454264362E+02  0.20717457509E+03  0.00000000000E+00 0.  1.
          2    1    6    6  502    0  0.20374743629E+02  0.13745897798E+03 -0.34336284127E+03  0.37041617347E+03  0.00000000000E+00 0. -1.
         -1    1    6    6    0  502  0.75578128366E+02  0.88506533055E+02 -0.21277197327E+03  0.24252293188E+03  0.00000000000E+00 0.  1.
<mgrwt>
<rscale>  0 0.54274883E+03</rscale>
<asrwt>0</asrwt>
<pdfrwt beam="1">  1        1 0.15621986E+00 0.54274883E+03</pdfrwt>
<pdfrwt beam="2">  1       -2 0.68735154E-01 0.54274883E+03</pdfrwt>
<totfact> 0.26176210E+01</totfact>
</mgrwt>
</event>
<event>
12    3  0.2269558E-007  0.8677758E+03  0.7818608E-02  0.9466785E-01
         -2   -1    0    0    0  501 -0.00000000000E+00  0.00000000000E+00  0.66248839496E+03  0.66248839496E+03  0.00000000000E+00 0.  1.
          1   -1    0    0  501    0  0.00000000000E+00 -0.00000000000E+00 -0.13673547094E+04  0.13673547094E+04  0.00000000000E+00 0. -1.
        -24    2    1    2    0    0  0.36451032875E+03 -0.71945213686E+03 -0.14863296785E+02  0.81060408639E+03  0.79868080485E+02 0.  0.
    5000000    2    1    2    0    0 -0.36451032875E+03  0.71945213686E+03 -0.69000301766E+03  0.12192390180E+04  0.59996705042E+03 0.  0.
        -24    2    4    4    0    0  0.41929365402E+02 -0.12143986132E+02  0.46148021295E+02  0.10167059911E+03  0.79383391030E+02 0.  0.
         24    2    4    4    0    0 -0.40643969415E+03  0.73159612299E+03 -0.73615103895E+03  0.11175684189E+04  0.81330846207E+02 0.  0.
         11    1    5    5    0    0 -0.15196325565E+02 -0.24162936091E+02  0.22541754025E+01  0.28633146840E+02  0.00000000000E+00 0. -1.
        -12    1    5    5    0    0  0.57125690967E+02  0.12018949960E+02  0.43893845892E+02  0.73037452268E+02  0.00000000000E+00 0.  1.
         13    1    3    3    0    0  0.58002603257E+02 -0.61023698217E+02 -0.20444016179E+01  0.84216229473E+02  0.00000000000E+00 0. -1.
        -14    1    3    3    0    0  0.30650772549E+03 -0.65842843864E+03 -0.12818895167E+02  0.72638785691E+03  0.00000000000E+00 0.  1.
          2    1    6    6  502    0 -0.18610615776E+03  0.38210173468E+03 -0.32857545670E+03  0.53721417363E+03  0.00000000000E+00 0. -1.
         -1    1    6    6    0  502 -0.22033353639E+03  0.34949438831E+03 -0.40757558225E+03  0.58035424524E+03  0.00000000000E+00 0.  1.
<mgrwt>
<rscale>  0 0.86777576E+03</rscale>
<asrwt>0</asrwt>
<pdfrwt beam="1">  1        1 0.21036226E+00 0.86777576E+03</pdfrwt>
<pdfrwt beam="2">  1       -2 0.10192129E+00 0.86777576E+03</pdfrwt>
<totfact> 0.56926079E+00</totfact>
</mgrwt>
</event>
<event>
12    3  0.2269558E-007  0.5175762E+03  0.7818608E-02  0.1009290E+00
         -2   -1    0    0    0  501 -0.00000000000E+00  0.00000000000E+00  0.22890681142E+03  0.22890681142E+03  0.00000000000E+00 0.  1.
          1   -1    0    0  501    0  0.00000000000E+00 -0.00000000000E+00 -0.16003178058E+04  0.16003178058E+04  0.00000000000E+00 0. -1.
        -24    2    1    2    0    0 -0.39477581424E+03 -0.22013088407E+03 -0.51147758936E+03  0.68744647545E+03  0.81656491245E+02 0.  0.
    5000000    2    1    2    0    0  0.39477581424E+03  0.22013088407E+03 -0.85993340505E+03  0.11417781418E+04  0.59988858493E+03 0.  0.
        -24    2    4    4    0    0 -0.34441210765E+02 -0.56899382546E+02 -0.50197136057E+03  0.51265971506E+03  0.80131141759E+02 0.  0.
         24    2    4    4    0    0  0.42921702500E+03  0.27703026661E+03 -0.35796204448E+03  0.62911842673E+03  0.81732162565E+02 0.  0.
         11    1    5    5    0    0 -0.34174873009E+02 -0.60009952142E+02 -0.50414671380E+03  0.50885462102E+03  0.00000000000E+00 0. -1.
        -12    1    5    5    0    0 -0.26633775588E+00  0.31105695956E+01  0.21753532252E+01  0.38050940414E+01  0.00000000000E+00 0.  1.
         13    1    3    3    0    0 -0.23418878384E+03 -0.12738807646E+03 -0.36020445272E+03  0.44812872733E+03  0.00000000000E+00 0. -1.
        -14    1    3    3    0    0 -0.16058703040E+03 -0.92742807608E+02 -0.15127313664E+03  0.23931774812E+03  0.00000000000E+00 0.  1.
          2    1    6    6  502    0  0.22198037911E+03  0.14861996928E+03 -0.23629912482E+03  0.35665173541E+03  0.00000000000E+00 0. -1.
         -1    1    6    6    0  502  0.20723664590E+03  0.12841029734E+03 -0.12166291965E+03  0.27246669133E+03  0.00000000000E+00 0.  1.
<mgrwt>
<rscale>  0 0.51757624E+03</rscale>
<asrwt>0</asrwt>
<pdfrwt beam="1">  1        1 0.24620275E+00 0.51757624E+03</pdfrwt>
<pdfrwt beam="2">  1       -2 0.35216431E-01 0.51757624E+03</pdfrwt>
<totfact> 0.39319446E+01</totfact>
</mgrwt>
</event>
<event>
12    3  0.2269558E-007  0.8531909E+03  0.7818608E-02  0.9486064E-01
          1   -1    0    0  501    0  0.00000000000E+00  0.00000000000E+00  0.10801188413E+04  0.10801188413E+04  0.00000000000E+00 0. -1.
         -2   -1    0    0    0  501 -0.00000000000E+00 -0.00000000000E+00 -0.17924471358E+04  0.17924471358E+04  0.00000000000E+00 0.  1.
        -24    2    1    2    0    0 -0.24220213441E+03  0.78070047686E+03 -0.14169077518E+04  0.16378018217E+04  0.81314954314E+02 0.  0.
    5000000    2    1    2    0    0  0.24220213441E+03 -0.78070047686E+03  0.70457945723E+03  0.12347641553E+04  0.60004599762E+03 0.  0.
        -24    2    4    4    0    0 -0.73390654589E+02 -0.25043383726E+03  0.51735966635E+03  0.58486702575E+03  0.79404775773E+02 0.  0.
         24    2    4    4    0    0  0.31559278900E+03 -0.53026663960E+03  0.18721979088E+03  0.64989712958E+03  0.80830139187E+02 0.  0.
         13    1    3    3    0    0 -0.12572598852E+03  0.32450275250E+03 -0.53845579315E+03  0.64112689988E+03  0.00000000000E+00 0. -1.
        -14    1    3    3    0    0 -0.11647614589E+03  0.45619772436E+03 -0.87845195862E+03  0.99667492187E+03  0.00000000000E+00 0.  1.
         13    1    5    5    0    0 -0.85664181723E+02 -0.22676426238E+03  0.43106996397E+03  0.49455201603E+03  0.00000000000E+00 0. -1.
        -14    1    5    5    0    0  0.12273527134E+02 -0.23669574880E+02  0.86289702384E+02  0.90315009721E+02  0.00000000000E+00 0.  1.
          4    1    6    6  502    0  0.25712050313E+03 -0.46073690596E+03  0.13311810478E+03  0.54415979221E+03  0.00000000000E+00 0. -1.
         -1    1    6    6    0  502  0.58472285868E+02 -0.69529733641E+02  0.54101686097E+02  0.10573733737E+03  0.00000000000E+00 0.  1.
<mgrwt>
<rscale>  0 0.85319095E+03</rscale>
<asrwt>0</asrwt>
<pdfrwt beam="1">  1        1 0.16617213E+00 0.85319095E+03</pdfrwt>
<pdfrwt beam="2">  1       -2 0.27576110E+00 0.85319095E+03</pdfrwt>
<totfact> 0.52937657E-01</totfact>
</mgrwt>
</event>
<event>
12    3  0.2269558E-007  0.8241767E+03  0.7818608E-02  0.9525667E-01
         -2   -1    0    0    0  501 -0.00000000000E+00  0.00000000000E+00  0.11082375385E+04  0.11082375385E+04  0.00000000000E+00 0.  1.
          1   -1    0    0  501    0  0.00000000000E+00 -0.00000000000E+00 -0.82809131240E+03  0.82809131240E+03  0.00000000000E+00 0. -1.
        -24    2    1    2    0    0 -0.59347062446E+03  0.46327241592E+03 -0.29873630837E+03  0.81296103717E+03  0.69523755379E+02 0.  0.
    5000000    2    1    2    0    0  0.59347062446E+03 -0.46327241592E+03  0.57888253449E+03  0.11233678138E+04  0.60001795206E+03 0.  0.
        -24    2    4    4    0    0  0.65327706917E+03 -0.35307786245E+03  0.29699052601E+03  0.80433541738E+03  0.85540546262E+02 0.  0.
         24    2    4    4    0    0 -0.59806444706E+02 -0.11019455347E+03  0.28189200848E+03  0.31903239638E+03  0.81233706387E+02 0.  0.
         11    1    5    5    0    0  0.27604295210E+03 -0.10198045295E+03  0.12179803224E+03  0.31848780957E+03  0.00000000000E+00 0. -1.
        -12    1    5    5    0    0  0.37723411707E+03 -0.25109740950E+03  0.17519249377E+03  0.48584760781E+03  0.00000000000E+00 0.  1.
         13    1    3    3    0    0 -0.44949577458E+03  0.33778684667E+03 -0.19183874181E+03  0.59409469616E+03  0.00000000000E+00 0. -1.
        -14    1    3    3    0    0 -0.14397484988E+03  0.12548556925E+03 -0.10689756656E+03  0.21886634100E+03  0.00000000000E+00 0.  1.
          2    1    6    6  502    0  0.16236932070E+02 -0.43788281646E+02  0.11293752711E+03  0.12221266957E+03  0.00000000000E+00 0. -1.
         -1    1    6    6    0  502 -0.76043376776E+02 -0.66406271823E+02  0.16895448137E+03  0.19681972681E+03  0.00000000000E+00 0.  1.
<mgrwt>
<rscale>  0 0.82417667E+03</rscale>
<asrwt>0</asrwt>
<pdfrwt beam="1">  1        1 0.12739866E+00 0.82417667E+03</pdfrwt>
<pdfrwt beam="2">  1       -2 0.17049808E+00 0.82417667E+03</pdfrwt>
<totfact> 0.39333033E+00</totfact>
</mgrwt>
</event>
<event>
12    3  0.2269558E-007  0.5993038E+03  0.7818608E-02  0.9906852E-01
          1   -1    0    0  501    0  0.00000000000E+00  0.00000000000E+00  0.17317875494E+04  0.17317875494E+04  0.00000000000E+00 0. -1.
         -2   -1    0    0    0  501 -0.00000000000E+00 -0.00000000000E+00 -0.25348311487E+03  0.25348311487E+03  0.00000000000E+00 0.  1.
        -24    2    1    2    0    0  0.15631066403E+03  0.49595651432E+03  0.50763559257E+03  0.73119754591E+03  0.80932493573E+02 0.  0.
    5000000    2    1    2    0    0 -0.15631066403E+03 -0.49595651432E+03  0.97066884201E+03  0.12540731184E+04  0.60007957612E+03 0.  0.
        -24    2    4    4    0    0 -0.19825178544E+03 -0.20920897842E+02  0.58426665322E+02  0.22157925144E+03  0.77085893985E+02 0.  0.
         24    2    4    4    0    0  0.41941121409E+02 -0.47503561648E+03  0.91224217668E+03  0.10324938670E+04  0.80248998836E+02 0.  0.
         11    1    5    5    0    0 -0.95911229160E+02 -0.13839468619E+02  0.68247201549E+02  0.11852499859E+03  0.00000000000E+00 0. -1.
        -12    1    5    5    0    0 -0.10234055628E+03 -0.70814292230E+01 -0.98205362271E+01  0.10305425285E+03  0.00000000000E+00 0.  1.
         11    1    3    3    0    0  0.80244050552E+02  0.18808238402E+03  0.15260257860E+03  0.25515022599E+03  0.00000000000E+00 0. -1.
        -12    1    3    3    0    0  0.76066613475E+02  0.30787413030E+03  0.35503301398E+03  0.47604731993E+03  0.00000000000E+00 0.  1.
          2    1    6    6  502    0  0.19650257788E+02 -0.10689889094E+03  0.28269941726E+03  0.30287367999E+03  0.00000000000E+00 0. -1.
         -1    1    6    6    0  502  0.22290863620E+02 -0.36813672554E+03  0.62954275943E+03  0.72962018698E+03  0.00000000000E+00 0.  1.
<mgrwt>
<rscale>  0 0.59930377E+03</rscale>
<asrwt>0</asrwt>
<pdfrwt beam="1">  1        1 0.26642885E+00 0.59930377E+03</pdfrwt>
<pdfrwt beam="2">  1       -2 0.38997403E-01 0.59930377E+03</pdfrwt>
<totfact> 0.26076051E+01</totfact>
</mgrwt>
</event>
<event>
12    3  0.2269558E-007  0.6891418E+03  0.7818608E-02  0.9735983E-01
          1   -1    0    0  501    0  0.00000000000E+00  0.00000000000E+00  0.29089718914E+04  0.29089718914E+04  0.00000000000E+00 0. -1.
         -2   -1    0    0    0  501 -0.00000000000E+00 -0.00000000000E+00 -0.18192770661E+03  0.18192770661E+03  0.00000000000E+00 0.  1.
        -24    2    1    2    0    0 -0.58764921934E+03  0.48141267918E+02  0.13783158941E+04  0.15013503330E+04  0.81540982266E+02 0.  0.
    5000000    2    1    2    0    0  0.58764921934E+03 -0.48141267918E+02  0.13487282907E+04  0.15895492650E+04  0.59995806279E+03 0.  0.
        -24    2    4    4    0    0  0.71482849960E+02  0.19640319686E+03  0.62884007641E+03  0.66712424776E+03  0.77012379977E+02 0.  0.
         24    2    4    4    0    0  0.51616636938E+03 -0.24454446478E+03  0.71988821428E+03  0.92242501725E+03  0.79994720153E+02 0.  0.
         13    1    5    5    0    0  0.25629855160E+02  0.59726049403E+02  0.31670912375E+03  0.32330907738E+03  0.00000000000E+00 0. -1.
        -14    1    5    5    0    0  0.45852994800E+02  0.13667714746E+03  0.31213095266E+03  0.34381517038E+03  0.00000000000E+00 0.  1.
         13    1    3    3    0    0 -0.18261014079E+03  0.44955113854E+02  0.49770287034E+03  0.53204846858E+03  0.00000000000E+00 0. -1.
        -14    1    3    3    0    0 -0.40503907855E+03  0.31861540634E+01  0.88061302374E+03  0.96930186439E+03  0.00000000000E+00 0.  1.
          2    1    6    6  502    0  0.46588759827E+03 -0.24358948173E+03  0.66939370768E+03  0.85116098695E+03  0.00000000000E+00 0. -1.
         -1    1    6    6    0  502  0.50278771113E+02 -0.95498305280E+00  0.50494506597E+02  0.71264030294E+02  0.00000000000E+00 0.  1.
<mgrwt>
<rscale>  0 0.68914182E+03</rscale>
<asrwt>0</asrwt>
<pdfrwt beam="1">  1        1 0.44753410E+00 0.68914182E+03</pdfrwt>
<pdfrwt beam="2">  1       -2 0.27988880E-01 0.68914182E+03</pdfrwt>
<totfact> 0.76411790E+00</totfact>
</mgrwt>
</event>
<event>
12    3  0.2269558E-007  0.7747679E+03  0.7818608E-02  0.9597275E-01
          1   -1    0    0  501    0  0.00000000000E+00  0.00000000000E+00  0.17747307253E+04  0.17747307253E+04  0.00000000000E+00 0. -1.
         -2   -1    0    0    0  501 -0.00000000000E+00 -0.00000000000E+00 -0.63039489419E+03  0.63039489419E+03  0.00000000000E+00 0.  1.
        -24    2    1    2    0    0 -0.66414790559E+03 -0.11836078206E+03  0.13206744788E+04  0.14852119450E+04  0.81066189932E+02 0.  0.
    5000000    2    1    2    0    0  0.66414790559E+03  0.11836078206E+03 -0.17633864774E+03  0.91991367453E+03  0.60003677777E+03 0.  0.
        -24    2    4    4    0    0  0.13515349860E+03 -0.20325196479E+03  0.39101926729E+02  0.25959338463E+03  0.79258660673E+02 0.  0.
         24    2    4    4    0    0  0.52899440698E+03  0.32161274685E+03 -0.21544057447E+03  0.66032028990E+03  0.79614085255E+02 0.  0.
         13    1    5    5    0    0  0.82004535612E+02 -0.16099082433E+03 -0.11106015200E+01  0.18067656964E+03  0.00000000000E+00 0. -1.
        -14    1    5    5    0    0  0.53148962993E+02 -0.42261140462E+02  0.40212528249E+02  0.78916814992E+02  0.00000000000E+00 0.  1.
         13    1    3    3    0    0 -0.35571648335E+03 -0.26468504682E+02  0.73310021753E+03  0.81527340642E+03  0.00000000000E+00 0. -1.
        -14    1    3    3    0    0 -0.30843142223E+03 -0.91892277376E+02  0.58757426132E+03  0.66993853854E+03  0.00000000000E+00 0.  1.
          4    1    6    6  502    0  0.28904610483E+03  0.13805234425E+03 -0.86120111701E+02  0.33169681052E+03  0.00000000000E+00 0. -1.
         -3    1    6    6    0  502  0.23994830216E+03  0.18356040261E+03 -0.12932046277E+03  0.32862347939E+03  0.00000000000E+00 0.  1.
<mgrwt>
<rscale>  0 0.77476792E+03</rscale>
<asrwt>0</asrwt>
<pdfrwt beam="1">  1        1 0.27303549E+00 0.77476792E+03</pdfrwt>
<pdfrwt beam="2">  1       -2 0.96983831E-01 0.77476792E+03</pdfrwt>
<totfact> 0.34184629E+00</totfact>
</mgrwt>
</event>
<event>
12    3  0.2269558E-007  0.8883172E+03  0.7818608E-02  0.9440305E-01
         -2   -1    0    0    0  501 -0.00000000000E+00  0.00000000000E+00  0.15277070828E+04  0.15277070828E+04  0.00000000000E+00 0.  1.
          1   -1    0    0  501    0  0.00000000000E+00 -0.00000000000E+00 -0.62333954425E+03  0.62333954425E+03  0.00000000000E+00 0. -1.
        -24    2    1    2    0    0  0.87212315815E+03  0.12369961771E+03  0.45153752537E+03  0.99306609990E+03  0.79960887707E+02 0.  0.
    5000000    2    1    2    0    0 -0.87212315815E+03 -0.12369961771E+03  0.45283001321E+03  0.11579805272E+04  0.59996956759E+03 0.  0.
        -24    2    4    4    0    0 -0.58272645576E+03 -0.67210163270E+02  0.57872100062E+03  0.82772573006E+03  0.78259563987E+02 0.  0.
         24    2    4    4    0    0 -0.28939670239E+03 -0.56489454441E+02 -0.12589098741E+03  0.33025479711E+03  0.79234970090E+02 0.  0.
         11    1    5    5    0    0 -0.32158475795E+03 -0.74991509507E+02  0.30961429885E+03  0.45266046558E+03  0.00000000000E+00 0. -1.
        -12    1    5    5    0    0 -0.26114169780E+03  0.77813462373E+01  0.26910670176E+03  0.37506526447E+03  0.00000000000E+00 0.  1.
         13    1    3    3    0    0  0.49853766454E+03  0.72212765705E+02  0.30235360148E+03  0.58751356310E+03  0.00000000000E+00 0. -1.
        -14    1    3    3    0    0  0.37358549360E+03  0.51486852006E+02  0.14918392389E+03  0.40555253680E+03  0.00000000000E+00 0.  1.
          4    1    6    6  502    0 -0.22832622378E+03 -0.11799120761E+02 -0.10600247869E+03  0.25200914508E+03  0.00000000000E+00 0. -1.
         -3    1    6    6    0  502 -0.61070478607E+02 -0.44690333680E+02 -0.19888508722E+02  0.78245652026E+02  0.00000000000E+00 0.  1.
<mgrwt>
<rscale>  0 0.88831715E+03</rscale>
<asrwt>0</asrwt>
<pdfrwt beam="1">  1        1 0.95898391E-01 0.88831715E+03</pdfrwt>
<pdfrwt beam="2">  1       -2 0.23503186E+00 0.88831715E+03</pdfrwt>
<totfact> 0.22877245E+00</totfact>
</mgrwt>
</event>
<event>
12    3  0.2269558E-007  0.1462897E+04  0.7818608E-02  0.8909508E-01
         -2   -1    0    0    0  501 -0.00000000000E+00  0.00000000000E+00  0.14083761732E+04  0.14083761732E+04  0.00000000000E+00 0.  1.
          1   -1    0    0  501    0  0.00000000000E+00 -0.00000000000E+00 -0.16601899423E+04  0.16601899423E+04  0.00000000000E+00 0. -1.
        -24    2    1    2    0    0  0.61783946256E+03  0.12706164953E+04  0.28291086038E+03  0.14431364684E+04  0.80077662039E+02 0.  0.
    5000000    2    1    2    0    0 -0.61783946256E+03 -0.12706164953E+04 -0.53472462957E+03  0.16254296471E+04  0.59991601804E+03 0.  0.
        -24    2    4    4    0    0 -0.17984927546E+03 -0.93830294679E+03 -0.46286148654E+03  0.10644074304E+04  0.77228494245E+02 0.  0.
         24    2    4    4    0    0 -0.43799018710E+03 -0.33231354847E+03 -0.71863143032E+02  0.56102221671E+03  0.85521446555E+02 0.  0.
         11    1    5    5    0    0 -0.12318398559E+03 -0.69831324010E+03 -0.30706713262E+03  0.77272627724E+03  0.00000000000E+00 0. -1.
        -12    1    5    5    0    0 -0.56665289869E+02 -0.23998970670E+03 -0.15579435391E+03  0.29168115316E+03  0.00000000000E+00 0.  1.
         11    1    3    3    0    0  0.14218090679E+03  0.34199190189E+03  0.10254622862E+03  0.38430404658E+03  0.00000000000E+00 0. -1.
        -12    1    3    3    0    0  0.47565855577E+03  0.92862459338E+03  0.18036463176E+03  0.10588324218E+04  0.00000000000E+00 0.  1.
          4    1    6    6  502    0 -0.43932550358E+03 -0.31881136637E+03 -0.69411497303E+02  0.54723444828E+03  0.00000000000E+00 0. -1.
         -3    1    6    6    0  502  0.13353164787E+01 -0.13502182101E+02 -0.24516457290E+01  0.13787768433E+02  0.00000000000E+00 0.  1.
<mgrwt>
<rscale>  0 0.14628968E+04</rscale>
<asrwt>0</asrwt>
<pdfrwt beam="1">  1        1 0.25541384E+00 0.14628968E+04</pdfrwt>
<pdfrwt beam="2">  1       -2 0.21667326E+00 0.14628968E+04</pdfrwt>
<totfact> 0.43666434E-01</totfact>
</mgrwt>
</event>
<event>
12    3  0.2269558E-007  0.1421400E+04  0.7818608E-02  0.8938472E-01
          1   -1    0    0  501    0  0.00000000000E+00  0.00000000000E+00  0.35217812629E+04  0.35217812629E+04  0.00000000000E+00 0. -1.
         -2   -1    0    0    0  501 -0.00000000000E+00 -0.00000000000E+00 -0.64347205883E+03  0.64347205883E+03  0.00000000000E+00 0.  1.
        -24    2    1    2    0    0 -0.77803061605E+03  0.11840247296E+04  0.99377827093E+03  0.17323808285E+04  0.79384402253E+02 0.  0.
    5000000    2    1    2    0    0  0.77803061605E+03 -0.11840247296E+04  0.18845309331E+04  0.24328724932E+04  0.60013792636E+03 0.  0.
        -24    2    4    4    0    0  0.25132466877E+03 -0.47271848597E+03  0.30683541838E+03  0.62223520093E+03  0.80011344170E+02 0.  0.
         24    2    4    4    0    0  0.52670594728E+03 -0.71130624361E+03  0.15776955147E+04  0.18106372923E+04  0.76867027558E+02 0.  0.
         11    1    3    3    0    0 -0.27756270666E+03  0.47351485336E+03  0.35237869875E+03  0.65224851078E+03  0.00000000000E+00 0. -1.
        -12    1    3    3    0    0 -0.50046790939E+03  0.71050987623E+03  0.64139957218E+03  0.10801323177E+04  0.00000000000E+00 0.  1.
         13    1    5    5    0    0  0.17843763094E+03 -0.37338459925E+03  0.26809015997E+03  0.49308050151E+03  0.00000000000E+00 0. -1.
        -14    1    5    5    0    0  0.72887037827E+02 -0.99333886723E+02  0.38745258408E+02  0.12915469943E+03  0.00000000000E+00 0.  1.
          4    1    6    6  502    0  0.30884559721E+03 -0.47334405907E+03  0.10360246995E+04  0.11801641323E+04  0.00000000000E+00 0. -1.
         -3    1    6    6    0  502  0.21786035007E+03 -0.23796218455E+03  0.54167081520E+03  0.63047315997E+03  0.00000000000E+00 0.  1.
<mgrwt>
<rscale>  0 0.14214004E+04</rscale>
<asrwt>0</asrwt>
<pdfrwt beam="1">  1        1 0.54181249E+00 0.14214004E+04</pdfrwt>
<pdfrwt beam="2">  1       -2 0.98995703E-01 0.14214004E+04</pdfrwt>
<totfact> 0.17317949E-01</totfact>
</mgrwt>
</event>
<event>
12    3  0.2269558E-007  0.4783663E+03  0.7818608E-02  0.1019585E+00
         -2   -1    0    0    0  501 -0.00000000000E+00  0.00000000000E+00  0.12720607111E+04  0.12720607111E+04  0.00000000000E+00 0.  1.
          1   -1    0    0  501    0  0.00000000000E+00 -0.00000000000E+00 -0.20446530708E+03  0.20446530708E+03  0.00000000000E+00 0. -1.
        -24    2    1    2    0    0 -0.30445190726E+03 -0.10844958743E+03  0.30119713407E+03  0.45079492594E+03  0.89688766503E+02 0.  0.
    5000000    2    1    2    0    0  0.30445190726E+03  0.10844958743E+03  0.76639826999E+03  0.10257310923E+04  0.60025468641E+03 0.  0.
        -24    2    4    4    0    0 -0.10061238319E+03  0.17080068893E+03  0.93537872444E+02  0.23392413422E+03  0.81703365897E+02 0.  0.
         24    2    4    4    0    0  0.40506429045E+03 -0.62351101501E+02  0.67286039755E+03  0.79180695805E+03  0.79072150480E+02 0.  0.
         11    1    3    3    0    0 -0.18569752654E+03 -0.11139949453E+03  0.19024381576E+03  0.28824664470E+03  0.00000000000E+00 0. -1.
        -12    1    3    3    0    0 -0.11875438072E+03  0.29499071013E+01  0.11095331831E+03  0.16254828125E+03  0.00000000000E+00 0.  1.
         11    1    5    5    0    0 -0.90615215246E+02  0.90096816705E+02  0.31410587537E+02  0.13158715220E+03  0.00000000000E+00 0. -1.
        -12    1    5    5    0    0 -0.99971679413E+01  0.80703872223E+02  0.62127284907E+02  0.10233698202E+03  0.00000000000E+00 0.  1.
          2    1    6    6  502    0  0.82277387645E+02 -0.31230087597E+02  0.19919738839E+03  0.21777163826E+03  0.00000000000E+00 0. -1.
         -1    1    6    6    0  502  0.32278690280E+03 -0.31121013904E+02  0.47366300916E+03  0.57403531979E+03  0.00000000000E+00 0.  1.
<mgrwt>
<rscale>  0 0.47836628E+03</rscale>
<asrwt>0</asrwt>
<pdfrwt beam="1">  1        1 0.31456202E-01 0.47836628E+03</pdfrwt>
<pdfrwt beam="2">  1       -2 0.19570164E+00 0.47836628E+03</pdfrwt>
<totfact> 0.18750753E+01</totfact>
</mgrwt>
</event>
<event>
12    3  0.2269558E-007  0.1222145E+04  0.7818608E-02  0.9093691E-01
         -4   -1    0    0    0  501 -0.00000000000E+00  0.00000000000E+00  0.65931991380E+03  0.65931991380E+03  0.00000000000E+00 0.  1.
          3   -1    0    0  501    0  0.00000000000E+00 -0.00000000000E+00 -0.29637368197E+04  0.29637368197E+04  0.00000000000E+00 0. -1.
        -24    2    1    2    0    0  0.79363553726E+03  0.91419357088E+03 -0.37958150451E+03  0.12713330660E+04  0.81230505343E+02 0.  0.
    5000000    2    1    2    0    0 -0.79363553726E+03 -0.91419357088E+03 -0.19248354014E+04  0.23517236676E+04  0.60000469581E+03 0.  0.
        -24    2    4    4    0    0 -0.61321709443E+03 -0.82095298327E+03 -0.11290706262E+04  0.15267458524E+04  0.78443694966E+02 0.  0.
         24    2    4    4    0    0 -0.18041844283E+03 -0.93240587608E+02 -0.79576477527E+03  0.82497781518E+03  0.78116555861E+02 0.  0.
         11    1    5    5    0    0 -0.44213971653E+03 -0.62706393556E+03 -0.80365187355E+03  0.11111044245E+04  0.00000000000E+00 0. -1.
        -12    1    5    5    0    0 -0.17107737791E+03 -0.19388904772E+03 -0.32541875262E+03  0.41564142793E+03  0.00000000000E+00 0.  1.
         13    1    3    3    0    0  0.57688326079E+03  0.64372653342E+03 -0.23488997472E+03  0.89574072512E+03  0.00000000000E+00 0. -1.
        -14    1    3    3    0    0  0.21675227647E+03  0.27046703747E+03 -0.14469152979E+03  0.37559234085E+03  0.00000000000E+00 0.  1.
          4    1    6    6  502    0 -0.12087022344E+03 -0.39279788505E+02 -0.60090452591E+03  0.61419765708E+03  0.00000000000E+00 0. -1.
         -3    1    6    6    0  502 -0.59548219386E+02 -0.53960799103E+02 -0.19486024935E+03  0.21078015810E+03  0.00000000000E+00 0.  1.
<mgrwt>
<rscale>  0 0.12221452E+04</rscale>
<asrwt>0</asrwt>
<pdfrwt beam="1">  1        3 0.45595952E+00 0.12221452E+04</pdfrwt>
<pdfrwt beam="2">  1       -4 0.10143383E+00 0.12221452E+04</pdfrwt>
<totfact> 0.99746009E-03</totfact>
</mgrwt>
</event>
<event>
12    3  0.3487449E-007  0.7774797E+03  0.7818608E-02  0.9593199E-01
         -2   -1    0    0    0  501 -0.00000000000E+00  0.00000000000E+00  0.67050574925E+03  0.67050574925E+03  0.00000000000E+00 0.  1.
          1   -1    0    0  501    0  0.00000000000E+00 -0.00000000000E+00 -0.11738882766E+04  0.11738882766E+04  0.00000000000E+00 0. -1.
        -24    2    1    2    0    0 -0.36812814954E+03 -0.57965133517E+03  0.16892661299E+03  0.71147826000E+03  0.78429006274E+02 0.  0.
    5000000    2    1    2    0    0  0.36812814954E+03  0.57965133517E+03 -0.67230914035E+03  0.11329157659E+04  0.59998712277E+03 0.  0.
        -24    2    4    4    0    0 -0.52780355788E+02  0.39344080581E+03 -0.14774559543E+03  0.43031934854E+03  0.75924614760E+02 0.  0.
         24    2    4    4    0    0  0.42090850533E+03  0.18621052936E+03 -0.52456354492E+03  0.70259641732E+03  0.81464605006E+02 0.  0.
         11    1    5    5    0    0  0.94943434452E-01  0.26104172708E+03 -0.10624780369E+03  0.28183574664E+03  0.00000000000E+00 0. -1.
        -12    1    5    5    0    0 -0.52875299222E+02  0.13239907873E+03 -0.41497791742E+02  0.14848360191E+03  0.00000000000E+00 0.  1.
         11    1    3    3    0    0 -0.19492899616E+03 -0.25830140102E+03  0.49359053573E+02  0.32734270036E+03  0.00000000000E+00 0. -1.
        -12    1    3    3    0    0 -0.17319915338E+03 -0.32134993416E+03  0.11956755941E+03  0.38413555964E+03  0.00000000000E+00 0.  1.
          4    1    6    6  502    0  0.28419898265E+03  0.14961205520E+03 -0.31612382877E+03  0.45065186554E+03  0.00000000000E+00 0. -1.
         -3    1    6    6    0  502  0.13670952268E+03  0.36598474166E+02 -0.20843971615E+03  0.25194455178E+03  0.00000000000E+00 0.  1.
<mgrwt>
<rscale>  0 0.77747970E+03</rscale>
<asrwt>0</asrwt>
<pdfrwt beam="1">  1        1 0.18059819E+00 0.77747970E+03</pdfrwt>
<pdfrwt beam="2">  1       -2 0.10315473E+00 0.77747970E+03</pdfrwt>
<totfact> 0.76884414E+00</totfact>
</mgrwt>
</event>
<event>
12    3  0.2269558E-007  0.5412001E+03  0.7818608E-02  0.1003552E+00
          1   -1    0    0  501    0  0.00000000000E+00  0.00000000000E+00  0.19583411402E+04  0.19583411402E+04  0.00000000000E+00 0. -1.
         -2   -1    0    0    0  501 -0.00000000000E+00 -0.00000000000E+00 -0.25084103820E+03  0.25084103820E+03  0.00000000000E+00 0.  1.
        -24    2    1    2    0    0  0.18025713722E+03  0.33604192076E+03  0.34323495647E+02  0.39113155766E+03  0.79931126722E+02 0.  0.
    5000000    2    1    2    0    0 -0.18025713722E+03 -0.33604192076E+03  0.16731766064E+04  0.18180506207E+04  0.60030933319E+03 0.  0.
        -24    2    4    4    0    0 -0.25169361057E+03 -0.46672584615E+03  0.11650998952E+04  0.12828118093E+04  0.83460668814E+02 0.  0.
         24    2    4    4    0    0  0.71436473351E+02  0.13068392539E+03  0.50807671120E+03  0.53523881148E+03  0.78467717998E+02 0.  0.
         13    1    3    3    0    0  0.74239116719E+02  0.21600538588E+03  0.34378531089E+02  0.23097977526E+03  0.00000000000E+00 0. -1.
        -14    1    3    3    0    0  0.10601802050E+03  0.12003653488E+03 -0.55035442394E-01  0.16015178240E+03  0.00000000000E+00 0.  1.
         13    1    5    5    0    0 -0.11495527410E+03 -0.14282404045E+03  0.34976557513E+03  0.39490426577E+03  0.00000000000E+00 0. -1.
        -14    1    5    5    0    0 -0.13673833647E+03 -0.32390180569E+03  0.81533432003E+03  0.88790754350E+03  0.00000000000E+00 0.  1.
          4    1    6    6  502    0 -0.64074251646E+01  0.34946434982E+02  0.20416302439E+03  0.20723138986E+03  0.00000000000E+00 0. -1.
         -3    1    6    6    0  502  0.77843898515E+02  0.95737490410E+02  0.30391368681E+03  0.32800742162E+03  0.00000000000E+00 0.  1.
<mgrwt>
<rscale>  0 0.54120011E+03</rscale>
<asrwt>0</asrwt>
<pdfrwt beam="1">  1        1 0.30128324E+00 0.54120011E+03</pdfrwt>
<pdfrwt beam="2">  1       -2 0.38590930E-01 0.54120011E+03</pdfrwt>
<totfact> 0.19001171E+01</totfact>
</mgrwt>
</event>
<event>
12    3  0.2269558E-007  0.4796479E+03  0.7818608E-02  0.1019232E+00
         -4   -1    0    0    0  501 -0.00000000000E+00  0.00000000000E+00  0.15284197245E+03  0.15284197245E+03  0.00000000000E+00 0.  1.
          1   -1    0    0  501    0  0.00000000000E+00 -0.00000000000E+00 -0.23281682253E+04  0.23281682253E+04  0.00000000000E+00 0. -1.
        -24    2    1    2    0    0 -0.32458061242E+03 -0.16627099799E+03 -0.13329264625E+04  0.13842731964E+04  0.80750907988E+02 0.  0.
    5000000    2    1    2    0    0  0.32458061242E+03  0.16627099799E+03 -0.84239979038E+03  0.10967370014E+04  0.60016333162E+03 0.  0.
        -24    2    4    4    0    0  0.29152577641E+03 -0.10674428337E+03 -0.71388087074E+03  0.78253244811E+03  0.79683840194E+02 0.  0.
         24    2    4    4    0    0  0.33054836011E+02  0.27301528136E+03 -0.12851891964E+03  0.31420455327E+03  0.81101310400E+02 0.  0.
         11    1    5    5    0    0  0.16931479466E+01 -0.14319963165E+02 -0.54215427225E+02  0.56100273121E+02  0.00000000000E+00 0. -1.
        -12    1    5    5    0    0  0.28983262847E+03 -0.92424320207E+02 -0.65966544352E+03  0.72643217499E+03  0.00000000000E+00 0.  1.
         13    1    3    3    0    0 -0.58611118844E+02 -0.33687295089E+02 -0.38380226744E+03  0.38971050486E+03  0.00000000000E+00 0. -1.
        -14    1    3    3    0    0 -0.26596949358E+03 -0.13258370290E+03 -0.94912419505E+03  0.99456269155E+03  0.00000000000E+00 0.  1.
          2    1    6    6  502    0  0.58279541068E+01  0.13911825740E+03 -0.10761051643E+03  0.17597692416E+03  0.00000000000E+00 0. -1.
         -1    1    6    6    0  502  0.27226881904E+02  0.13389702396E+03 -0.20908403211E+02  0.13822762911E+03  0.00000000000E+00 0.  1.
<mgrwt>
<rscale>  0 0.47964794E+03</rscale>
<asrwt>0</asrwt>
<pdfrwt beam="1">  1        1 0.35817969E+00 0.47964794E+03</pdfrwt>
<pdfrwt beam="2">  1       -4 0.23514152E-01 0.47964794E+03</pdfrwt>
<totfact> 0.15964818E+01</totfact>
</mgrwt>
</event>
<event>
12    3  0.2269558E-007  0.9679653E+03  0.7818608E-02  0.9344395E-01
          1   -1    0    0  501    0  0.00000000000E+00  0.00000000000E+00  0.27489358420E+04  0.27489358420E+04  0.00000000000E+00 0. -1.
         -2   -1    0    0    0  501 -0.00000000000E+00 -0.00000000000E+00 -0.35942270714E+03  0.35942270714E+03  0.00000000000E+00 0.  1.
        -24    2    1    2    0    0  0.50373820300E+02  0.89139281138E+03  0.89157896068E+03  0.12642629569E+04  0.79555735439E+02 0.  0.
    5000000    2    1    2    0    0 -0.50373820300E+02 -0.89139281138E+03  0.14979341742E+04  0.18440955923E+04  0.59980254856E+03 0.  0.
        -24    2    4    4    0    0 -0.27419143187E+03 -0.62095661796E+03  0.11826123379E+04  0.13658816899E+04  0.79327085800E+02 0.  0.
         24    2    4    4    0    0  0.22381761157E+03 -0.27043619342E+03  0.31532183632E+03  0.47821390233E+03  0.77657053475E+02 0.  0.
         13    1    5    5    0    0 -0.11635022952E+03 -0.34577541086E+03  0.67530738482E+03  0.76755330411E+03  0.00000000000E+00 0. -1.
        -14    1    5    5    0    0 -0.15784120235E+03 -0.27518120710E+03  0.50730495305E+03  0.59832838583E+03  0.00000000000E+00 0.  1.
         13    1    3    3    0    0  0.60921477185E+02  0.83363834897E+03  0.85137578075E+03  0.11931073059E+04  0.00000000000E+00 0. -1.
        -14    1    3    3    0    0 -0.10547656885E+02  0.57754462413E+02  0.40203179929E+02  0.71155651011E+02  0.00000000000E+00 0.  1.
          2    1    6    6  502    0  0.57044699934E+02 -0.12739759245E+03  0.13089556681E+03  0.19135802508E+03  0.00000000000E+00 0. -1.
         -1    1    6    6    0  502  0.16677291164E+03 -0.14303860098E+03  0.18442626951E+03  0.28685587725E+03  0.00000000000E+00 0.  1.
<mgrwt>
<rscale>  0 0.96796532E+03</rscale>
<asrwt>0</asrwt>
<pdfrwt beam="1">  1        1 0.42291319E+00 0.96796532E+03</pdfrwt>
<pdfrwt beam="2">  1       -2 0.55295803E-01 0.96796532E+03</pdfrwt>
<totfact> 0.25083262E+00</totfact>
</mgrwt>
</event>
<event>
12    3  0.2545156E-007  0.5691193E+03  0.7818608E-02  0.9971629E-01
         -2   -1    0    0    0  501 -0.00000000000E+00  0.00000000000E+00  0.35838667659E+03  0.35838667659E+03  0.00000000000E+00 0.  1.
          1   -1    0    0  501    0  0.00000000000E+00 -0.00000000000E+00 -0.19080962172E+04  0.19080962172E+04  0.00000000000E+00 0. -1.
        -24    2    1    2    0    0  0.49801893388E+03  0.21451156976E+03 -0.34855006607E+02  0.54927661650E+03  0.80323457874E+02 0.  0.
    5000000    2    1    2    0    0 -0.49801893388E+03 -0.21451156976E+03 -0.15148545340E+04  0.17172062772E+04  0.59997922258E+03 0.  0.
        -24    2    4    4    0    0 -0.90321283178E+02  0.17298997683E+02 -0.10326656493E+04  0.10397615484E+04  0.79047737114E+02 0.  0.
         24    2    4    4    0    0 -0.40769765070E+03 -0.23181056744E+03 -0.48218888466E+03  0.67744472887E+03  0.80447042345E+02 0.  0.
         11    1    5    5    0    0 -0.24925783701E+02  0.43660202095E+02 -0.47627950128E+03  0.47892553834E+03  0.00000000000E+00 0. -1.
        -12    1    5    5    0    0 -0.65395499478E+02 -0.26361204412E+02 -0.55638614801E+03  0.56083601004E+03  0.00000000000E+00 0.  1.
         13    1    3    3    0    0  0.23909809978E+03  0.14395338106E+03 -0.31821460099E+02  0.28089692515E+03  0.00000000000E+00 0. -1.
        -14    1    3    3    0    0  0.25892083409E+03  0.70558188697E+02 -0.30335465073E+01  0.26837969134E+03  0.00000000000E+00 0.  1.
          2    1    6    6  502    0 -0.22163830424E+03 -0.10830955223E+03 -0.19996063749E+03  0.31755118258E+03  0.00000000000E+00 0. -1.
         -1    1    6    6    0  502 -0.18605934645E+03 -0.12350101521E+03 -0.28222824717E+03  0.35989354629E+03  0.00000000000E+00 0.  1.
<mgrwt>
<rscale>  0 0.56911927E+03</rscale>
<asrwt>0</asrwt>
<pdfrwt beam="1">  1        1 0.29355326E+00 0.56911927E+03</pdfrwt>
<pdfrwt beam="2">  1       -2 0.55136412E-01 0.56911927E+03</pdfrwt>
<totfact> 0.10013431E+01</totfact>
</mgrwt>
</event>
<event>
12    3  0.2269558E-007  0.1955088E+04  0.7818608E-02  0.8627911E-01
         -2   -1    0    0    0  501 -0.00000000000E+00  0.00000000000E+00  0.16824970486E+04  0.16824970486E+04  0.00000000000E+00 0.  1.
          1   -1    0    0  501    0  0.00000000000E+00 -0.00000000000E+00 -0.32409638177E+04  0.32409638177E+04  0.00000000000E+00 0. -1.
        -24    2    1    2    0    0  0.63169997961E+03 -0.18426788923E+04 -0.20477282447E+04  0.28272873709E+04  0.76501955255E+02 0.  0.
    5000000    2    1    2    0    0 -0.63169997961E+03  0.18426788923E+04  0.48926147559E+03  0.20961734953E+04  0.60004680349E+03 0.  0.
        -24    2    4    4    0    0 -0.96645073886E+02  0.57543490448E+03 -0.10022609350E+03  0.59748919165E+03  0.80513754816E+02 0.  0.
         24    2    4    4    0    0 -0.53505490572E+03  0.12672439879E+04  0.58948756909E+03  0.14986843037E+04  0.79799567609E+02 0.  0.
         11    1    5    5    0    0 -0.45300823540E+02  0.16781056927E+03 -0.63311318998E+02  0.18498885070E+03  0.00000000000E+00 0. -1.
        -12    1    5    5    0    0 -0.51344250346E+02  0.40762433521E+03 -0.36914774507E+02  0.41250034094E+03  0.00000000000E+00 0.  1.
         13    1    3    3    0    0  0.32236579548E+03 -0.83618708539E+03 -0.96718314745E+03  0.13185491225E+04  0.00000000000E+00 0. -1.
        -14    1    3    3    0    0  0.30933418413E+03 -0.10064918070E+04 -0.10805450973E+04  0.15087382484E+04  0.00000000000E+00 0.  1.
          4    1    6    6  502    0 -0.14469848860E+03  0.29104125043E+03  0.16923483249E+03  0.36644657262E+03  0.00000000000E+00 0. -1.
         -3    1    6    6    0  502 -0.39035641712E+03  0.97620273743E+03  0.42025273660E+03  0.11322377310E+04  0.00000000000E+00 0.  1.
<mgrwt>
<rscale>  0 0.19550876E+04</rscale>
<asrwt>0</asrwt>
<pdfrwt beam="1">  1        1 0.49860982E+00 0.19550876E+04</pdfrwt>
<pdfrwt beam="2">  1       -2 0.25884570E+00 0.19550876E+04</pdfrwt>
<totfact> 0.17545879E-02</totfact>
</mgrwt>
</event>
<event>
12    3  0.2269558E-007  0.5866616E+03  0.7818608E-02  0.9933472E-01
          1   -1    0    0  501    0  0.00000000000E+00  0.00000000000E+00  0.64077774501E+03  0.64077774501E+03  0.00000000000E+00 0. -1.
         -2   -1    0    0    0  501 -0.00000000000E+00 -0.00000000000E+00 -0.85812267860E+03  0.85812267860E+03  0.00000000000E+00 0.  1.
        -24    2    1    2    0    0  0.61439294194E+02 -0.56619080855E+03  0.14976197881E+03  0.59394668661E+03  0.77441575945E+02 0.  0.
    5000000    2    1    2    0    0 -0.61439294194E+02  0.56619080855E+03 -0.36710691240E+03  0.90495373700E+03  0.59985578469E+03 0.  0.
        -24    2    4    4    0    0 -0.92108445456E+02  0.21506640473E+03  0.13898491096E+03  0.28276140478E+03  0.76809389985E+02 0.  0.
         24    2    4    4    0    0  0.30669151261E+02  0.35112440382E+03 -0.50609182336E+03  0.62219233223E+03  0.82252178129E+02 0.  0.
         11    1    5    5    0    0  0.21598393043E+01  0.69701720780E+02  0.61455650726E+02  0.92950480320E+02  0.00000000000E+00 0. -1.
        -12    1    5    5    0    0 -0.94268284760E+02  0.14536468395E+03  0.77529260237E+02  0.18981092446E+03  0.00000000000E+00 0.  1.
         13    1    3    3    0    0  0.77108730481E+02 -0.37488994655E+03  0.10429899177E+03  0.39669447693E+03  0.00000000000E+00 0. -1.
        -14    1    3    3    0    0 -0.15669436286E+02 -0.19130086200E+03  0.45462987038E+02  0.19725220968E+03  0.00000000000E+00 0.  1.
          2    1    6    6  502    0 -0.42615187158E+01  0.21741145955E+03 -0.36378667309E+03  0.42382383935E+03  0.00000000000E+00 0. -1.
         -1    1    6    6    0  502  0.34930669977E+02  0.13371294427E+03 -0.14230515028E+03  0.19836849288E+03  0.00000000000E+00 0.  1.
<mgrwt>
<rscale>  0 0.58666163E+03</rscale>
<asrwt>0</asrwt>
<pdfrwt beam="1">  1        1 0.98581192E-01 0.58666163E+03</pdfrwt>
<pdfrwt beam="2">  1       -2 0.13201887E+00 0.58666163E+03</pdfrwt>
<totfact> 0.11828186E+01</totfact>
</mgrwt>
</event>
<event>
12    3  0.2269558E-007  0.9658372E+03  0.7818608E-02  0.9346828E-01
         -2   -1    0    0    0  501 -0.00000000000E+00  0.00000000000E+00  0.10325391080E+04  0.10325391080E+04  0.00000000000E+00 0.  1.
          1   -1    0    0  501    0  0.00000000000E+00 -0.00000000000E+00 -0.96997492834E+03  0.96997492834E+03  0.00000000000E+00 0. -1.
        -24    2    1    2    0    0 -0.38706280626E+03  0.82077655313E+03  0.80062518921E+02  0.91444436380E+03  0.79414868776E+02 0.  0.
    5000000    2    1    2    0    0  0.38706280626E+03 -0.82077655313E+03 -0.17498339288E+02  0.10880696725E+04  0.60008137300E+03 0.  0.
        -24    2    4    4    0    0  0.16127809506E+03 -0.74984569104E+03 -0.17577654106E+03  0.79102706123E+03  0.80914985579E+02 0.  0.
         24    2    4    4    0    0  0.22578471120E+03 -0.70930862092E+02  0.15827820178E+03  0.29704261129E+03  0.84690027478E+02 0.  0.
         13    1    3    3    0    0 -0.21263579684E+03  0.38605272397E+03  0.67390986876E+02  0.44586122605E+03  0.00000000000E+00 0. -1.
        -14    1    3    3    0    0 -0.17442700942E+03  0.43472382916E+03  0.12671532045E+02  0.46858313775E+03  0.00000000000E+00 0.  1.
         13    1    5    5    0    0  0.43801127763E+02 -0.39520268128E+03 -0.86951920420E+02  0.40701883808E+03  0.00000000000E+00 0. -1.
        -14    1    5    5    0    0  0.11747696729E+03 -0.35464300976E+03 -0.88824620644E+02  0.38400822315E+03  0.00000000000E+00 0.  1.
          2    1    6    6  502    0  0.38121966300E+02 -0.49421244728E+02  0.41978882936E+02  0.75219481237E+02  0.00000000000E+00 0. -1.
         -1    1    6    6    0  502  0.18766274490E+03 -0.21509617365E+02  0.11629931884E+03  0.22182313005E+03  0.00000000000E+00 0.  1.
<mgrwt>
<rscale>  0 0.96583724E+03</rscale>
<asrwt>0</asrwt>
<pdfrwt beam="1">  1        1 0.14922691E+00 0.96583724E+03</pdfrwt>
<pdfrwt beam="2">  1       -2 0.15885217E+00 0.96583724E+03</pdfrwt>
<totfact> 0.35959734E+00</totfact>
</mgrwt>
</event>
<event>
12    3  0.2269558E-007  0.4732361E+03  0.7818608E-02  0.1021011E+00
          1   -1    0    0  501    0  0.00000000000E+00  0.00000000000E+00  0.90510459658E+03  0.90510459658E+03  0.00000000000E+00 0. -1.
         -2   -1    0    0    0  501 -0.00000000000E+00 -0.00000000000E+00 -0.42634813989E+03  0.42634813989E+03  0.00000000000E+00 0.  1.
        -24    2    1    2    0    0  0.10875311946E+02 -0.33999305469E+03  0.53535861845E+03  0.63951857268E+03  0.81618654756E+02 0.  0.
    5000000    2    1    2    0    0 -0.10875311946E+02  0.33999305469E+03 -0.56602161758E+02  0.69193416379E+03  0.59987959847E+03 0.  0.
        -24    2    4    4    0    0 -0.22409216809E+03  0.30565016056E+03 -0.18365569058E+03  0.42884153509E+03  0.80847566989E+02 0.  0.
         24    2    4    4    0    0  0.21321685615E+03  0.34342894126E+02  0.12705352882E+03  0.26309262869E+03  0.80213901322E+02 0.  0.
         13    1    5    5    0    0 -0.45117624652E+02  0.65442372936E+02 -0.77553407567E+02  0.11105329916E+03  0.00000000000E+00 0. -1.
        -14    1    5    5    0    0 -0.17897454344E+03  0.24020778762E+03 -0.10610228301E+03  0.31778823593E+03  0.00000000000E+00 0.  1.
         13    1    3    3    0    0  0.36341445841E+02 -0.24672277955E+03  0.42529436121E+03  0.49301939547E+03  0.00000000000E+00 0. -1.
        -14    1    3    3    0    0 -0.25466133895E+02 -0.93270275139E+02  0.11006425724E+03  0.14649917720E+03  0.00000000000E+00 0.  1.
          2    1    6    6  502    0  0.17311401431E+03  0.78359655244E+01  0.66113459262E+02  0.18547467159E+03  0.00000000000E+00 0. -1.
         -3    1    6    6    0  502  0.40102841842E+02  0.26506928602E+02  0.60940069560E+02  0.77617957108E+02  0.00000000000E+00 0.  1.
<mgrwt>
<rscale>  0 0.47323606E+03</rscale>
<asrwt>0</asrwt>
<pdfrwt beam="1">  1        1 0.13924686E+00 0.47323606E+03</pdfrwt>
<pdfrwt beam="2">  1       -2 0.65592022E-01 0.47323606E+03</pdfrwt>
<totfact> 0.35650115E+01</totfact>
</mgrwt>
</event>
<event>
12    3  0.2269558E-007  0.6353020E+03  0.7818608E-02  0.9834757E-01
         -2   -1    0    0    0  501 -0.00000000000E+00  0.00000000000E+00  0.67590327138E+03  0.67590327138E+03  0.00000000000E+00 0.  1.
          1   -1    0    0  501    0  0.00000000000E+00 -0.00000000000E+00 -0.63447622754E+03  0.63447622754E+03  0.00000000000E+00 0. -1.
        -24    2    1    2    0    0 -0.26734716864E+03 -0.43820643361E+03 -0.31019364003E+01  0.51952199259E+03  0.79963064863E+02 0.  0.
    5000000    2    1    2    0    0  0.26734716864E+03  0.43820643361E+03  0.44528980240E+02  0.79085750632E+03  0.59997781475E+03 0.  0.
        -24    2    4    4    0    0  0.39531665888E+03  0.14746863607E+03  0.13704192800E+03  0.44982159030E+03  0.74409096576E+02 0.  0.
         24    2    4    4    0    0 -0.12796949025E+03  0.29073779754E+03 -0.92512947757E+02  0.34103591602E+03  0.82717550508E+02 0.  0.
         11    1    3    3    0    0 -0.68067551931E+02 -0.17563461335E+03 -0.20231517451E+02  0.18944662396E+03  0.00000000000E+00 0. -1.
        -12    1    3    3    0    0 -0.19927961671E+03 -0.26257182026E+03  0.17129581051E+02  0.33007536863E+03  0.00000000000E+00 0.  1.
         13    1    5    5    0    0  0.45812971600E+02 -0.12514022975E+01  0.31465921603E+02  0.55592253029E+02  0.00000000000E+00 0. -1.
        -14    1    5    5    0    0  0.34950368728E+03  0.14872003836E+03  0.10557600639E+03  0.39422933727E+03  0.00000000000E+00 0.  1.
          4    1    6    6  502    0  0.38175286279E+01 -0.30967618888E+01 -0.56553677271E+01  0.74931063752E+01  0.00000000000E+00 0. -1.
         -3    1    6    6    0  502 -0.13178701887E+03  0.29383455943E+03 -0.86857580030E+02  0.33354280965E+03  0.00000000000E+00 0.  1.
<mgrwt>
<rscale>  0 0.63530205E+03</rscale>
<asrwt>0</asrwt>
<pdfrwt beam="1">  1        1 0.97611726E-01 0.63530205E+03</pdfrwt>
<pdfrwt beam="2">  1       -2 0.10398512E+00 0.63530205E+03</pdfrwt>
<totfact> 0.21434679E+01</totfact>
</mgrwt>
</event>
<event>
12    3  0.2269558E-007  0.7400171E+03  0.7818608E-02  0.9651143E-01
         -2   -1    0    0    0  501 -0.00000000000E+00  0.00000000000E+00  0.18879991172E+04  0.18879991172E+04  0.00000000000E+00 0.  1.
          1   -1    0    0  501    0  0.00000000000E+00 -0.00000000000E+00 -0.42168640906E+03  0.42168640906E+03  0.00000000000E+00 0. -1.
        -24    2    1    2    0    0  0.70225527168E+03  0.20568477884E+03  0.26943373521E+03  0.78388636911E+03  0.80091242675E+02 0.  0.
    5000000    2    1    2    0    0 -0.70225527168E+03 -0.20568477884E+03  0.11968789729E+04  0.15257991571E+04  0.60006257779E+03 0.  0.
        -24    2    4    4    0    0 -0.11207286300E+03 -0.71252151047E+02 -0.28714195864E+02  0.15651176142E+03  0.77680311332E+02 0.  0.
         24    2    4    4    0    0 -0.59018240869E+03 -0.13443262779E+03  0.12255931688E+04  0.13692873957E+04  0.80510556999E+02 0.  0.
         11    1    3    3    0    0  0.31118925043E+03  0.12087357963E+03  0.92940284260E+02  0.34653581096E+03  0.00000000000E+00 0. -1.
        -12    1    3    3    0    0  0.39106602125E+03  0.84811199210E+02  0.17649345095E+03  0.43735055815E+03  0.00000000000E+00 0.  1.
         13    1    5    5    0    0 -0.75039444457E+02 -0.67381230222E+02  0.11736262325E+02  0.10153269554E+03  0.00000000000E+00 0. -1.
        -14    1    5    5    0    0 -0.37033418541E+02 -0.38709208243E+01 -0.40450458189E+02  0.54979065876E+02  0.00000000000E+00 0.  1.
          2    1    6    6  502    0 -0.37430367380E+03 -0.11311081439E+03  0.84815734702E+03  0.93395298697E+03  0.00000000000E+00 0. -1.
         -1    1    6    6    0  502 -0.21587873488E+03 -0.21321813399E+02  0.37743582173E+03  0.43533440873E+03  0.00000000000E+00 0.  1.
<mgrwt>
<rscale>  0 0.74001711E+03</rscale>
<asrwt>0</asrwt>
<pdfrwt beam="1">  1        1 0.64874833E-01 0.74001711E+03</pdfrwt>
<pdfrwt beam="2">  1       -2 0.29046140E+00 0.74001711E+03</pdfrwt>
<totfact> 0.18582087E+00</totfact>
</mgrwt>
</event>
<event>
12    3  0.2269558E-007  0.5352041E+03  0.7818608E-02  0.1004978E+00
         -2   -1    0    0    0  501 -0.00000000000E+00  0.00000000000E+00  0.98678446134E+03  0.98678446134E+03  0.00000000000E+00 0.  1.
          1   -1    0    0  501    0  0.00000000000E+00 -0.00000000000E+00 -0.39340486859E+03  0.39340486859E+03  0.00000000000E+00 0. -1.
        -24    2    1    2    0    0 -0.40813763380E+03  0.53063531482E+02  0.49083401270E+03  0.64546328270E+03  0.79452846328E+02 0.  0.
    5000000    2    1    2    0    0  0.40813763380E+03 -0.53063531482E+02  0.10254558005E+03  0.73472604722E+03  0.59992891411E+03 0.  0.
        -24    2    4    4    0    0  0.34731929809E+03 -0.25650396487E+03  0.20400829829E+03  0.48353618880E+03  0.75913643604E+02 0.  0.
         24    2    4    4    0    0  0.60818335711E+02  0.20344043339E+03 -0.10146271824E+03  0.25118985842E+03  0.87833831086E+02 0.  0.
         11    1    3    3    0    0 -0.34980934113E+03  0.21773392630E+02  0.38504305472E+03  0.52067149889E+03  0.00000000000E+00 0. -1.
        -12    1    3    3    0    0 -0.58328292670E+02  0.31290138852E+02  0.10579095799E+03  0.12479178381E+03  0.00000000000E+00 0.  1.
         11    1    5    5    0    0  0.67178817497E+02 -0.45303017452E+02  0.72932145546E+02  0.10901584639E+03  0.00000000000E+00 0. -1.
        -12    1    5    5    0    0  0.28014048059E+03 -0.21120094742E+03  0.13107615275E+03  0.37452034241E+03  0.00000000000E+00 0.  1.
          4    1    6    6  502    0 -0.25400427391E+01  0.10354488107E+03 -0.80209359067E+02  0.13100204386E+03  0.00000000000E+00 0. -1.
         -1    1    6    6    0  502  0.63358378450E+02  0.99895552319E+02 -0.21253359178E+02  0.12018781456E+03  0.00000000000E+00 0.  1.
<mgrwt>
<rscale>  0 0.53520406E+03</rscale>
<asrwt>0</asrwt>
<pdfrwt beam="1">  1        1 0.60523826E-01 0.53520406E+03</pdfrwt>
<pdfrwt beam="2">  1       -2 0.15181299E+00 0.53520406E+03</pdfrwt>
<totfact> 0.16202800E+01</totfact>
</mgrwt>
</event>
<event>
12    3  0.2269558E-007  0.6246367E+03  0.7818608E-02  0.9855571E-01
          1   -1    0    0  501    0  0.00000000000E+00  0.00000000000E+00  0.78336660072E+03  0.78336660072E+03  0.00000000000E+00 0. -1.
         -2   -1    0    0    0  501 -0.00000000000E+00 -0.00000000000E+00 -0.67174143675E+03  0.67174143675E+03  0.00000000000E+00 0.  1.
        -24    2    1    2    0    0 -0.48335321748E+03 -0.66887528485E+01  0.39974334179E+03  0.63244434804E+03  0.80722003173E+02 0.  0.
    5000000    2    1    2    0    0  0.48335321748E+03  0.66887528485E+01 -0.28811817782E+03  0.82266368943E+03  0.60007365319E+03 0.  0.
        -24    2    4    4    0    0  0.58512373689E+03 -0.10047886268E+03 -0.25405293048E+03  0.65038954336E+03  0.77445963804E+02 0.  0.
         24    2    4    4    0    0 -0.10177051941E+03  0.10716761553E+03 -0.34065247340E+02  0.17227414607E+03  0.81705592764E+02 0.  0.
         13    1    3    3    0    0 -0.38692629048E+03 -0.37774491456E+01  0.35861987572E+03  0.52757410725E+03  0.00000000000E+00 0. -1.
        -14    1    3    3    0    0 -0.96426927005E+02 -0.29113037029E+01  0.41123466077E+02  0.10487024079E+03  0.00000000000E+00 0.  1.
         13    1    5    5    0    0  0.23333288230E+03 -0.17943108608E+01 -0.97346004916E+02  0.25283136314E+03  0.00000000000E+00 0. -1.
        -14    1    5    5    0    0  0.35179085459E+03 -0.98684551820E+02 -0.15670692557E+03  0.39755818023E+03  0.00000000000E+00 0.  1.
          4    1    6    6  502    0  0.92307923858E+01  0.31460868173E+02 -0.16702279758E+02  0.36796194143E+02  0.00000000000E+00 0. -1.
         -3    1    6    6    0  502 -0.11100131179E+03  0.75706747356E+02 -0.17362967582E+02  0.13547795193E+03  0.00000000000E+00 0.  1.
<mgrwt>
<rscale>  0 0.62463674E+03</rscale>
<asrwt>0</asrwt>
<pdfrwt beam="1">  1        1 0.12051794E+00 0.62463674E+03</pdfrwt>
<pdfrwt beam="2">  1       -2 0.10334484E+00 0.62463674E+03</pdfrwt>
<totfact> 0.15841067E+01</totfact>
</mgrwt>
</event>
<event>
12    3  0.2269558E-007  0.1043037E+04  0.7818608E-02  0.9262563E-01
          1   -1    0    0  501    0  0.00000000000E+00  0.00000000000E+00  0.16181217419E+04  0.16181217419E+04  0.00000000000E+00 0. -1.
         -2   -1    0    0    0  501 -0.00000000000E+00 -0.00000000000E+00 -0.76621155437E+03  0.76621155437E+03  0.00000000000E+00 0.  1.
        -24    2    1    2    0    0 -0.96883160352E+03 -0.18508852644E+03  0.71721665699E+03  0.12220673717E+04  0.78463298881E+02 0.  0.
    5000000    2    1    2    0    0  0.96883160352E+03  0.18508852644E+03  0.13469353055E+03  0.11622659246E+04  0.59985606080E+03 0.  0.
        -24    2    4    4    0    0  0.67896851022E+03 -0.95008653682E+02  0.24260969075E+03  0.73162815905E+03  0.79971363161E+02 0.  0.
         24    2    4    4    0    0  0.28986309330E+03  0.28009718013E+03 -0.10791616020E+03  0.43063776554E+03  0.10643281591E+03 0.  0.
         13    1    3    3    0    0 -0.54961111280E+03 -0.96523559195E+02  0.35849566411E+03  0.66325584353E+03  0.00000000000E+00 0. -1.
        -14    1    3    3    0    0 -0.41922049072E+03 -0.88564967249E+02  0.35872099288E+03  0.55881152815E+03  0.00000000000E+00 0.  1.
         13    1    5    5    0    0  0.12473122453E+03 -0.32475555130E+02  0.75516221588E+02  0.14938286306E+03  0.00000000000E+00 0. -1.
        -14    1    5    5    0    0  0.55423728570E+03 -0.62533098552E+02  0.16709346916E+03  0.58224529600E+03  0.00000000000E+00 0.  1.
          2    1    6    6  502    0  0.13192704885E+03  0.67790248587E+02 -0.67492799394E+02  0.16295871253E+03  0.00000000000E+00 0. -1.
         -1    1    6    6    0  502  0.15793604445E+03  0.21230693154E+03 -0.40423360805E+02  0.26767905300E+03  0.00000000000E+00 0.  1.
<mgrwt>
<rscale>  0 0.10430368E+04</rscale>
<asrwt>0</asrwt>
<pdfrwt beam="1">  1        1 0.24894181E+00 0.10430368E+04</pdfrwt>
<pdfrwt beam="2">  1       -2 0.11787870E+00 0.10430368E+04</pdfrwt>
<totfact> 0.26285174E+00</totfact>
</mgrwt>
</event>
<event>
12    3  0.2269558E-007  0.4546179E+03  0.7818608E-02  0.1026354E+00
          1   -1    0    0  501    0  0.00000000000E+00  0.00000000000E+00  0.69154332408E+03  0.69154332408E+03  0.00000000000E+00 0. -1.
         -2   -1    0    0    0  501 -0.00000000000E+00 -0.00000000000E+00 -0.38548993285E+03  0.38548993285E+03  0.00000000000E+00 0.  1.
        -24    2    1    2    0    0  0.27878874277E+03  0.15710146311E+03  0.21005810327E+03  0.39025771487E+03  0.75977920875E+02 0.  0.
    5000000    2    1    2    0    0 -0.27878874277E+03 -0.15710146311E+03  0.95995287960E+02  0.68677554206E+03  0.60003459654E+03 0.  0.
        -24    2    4    4    0    0 -0.72887727500E+02  0.17353609656E+03  0.18798869814E+03  0.27830633625E+03  0.81775720960E+02 0.  0.
         24    2    4    4    0    0 -0.20590101527E+03 -0.33063755967E+03 -0.91993410176E+02  0.40846920581E+03  0.81657091705E+02 0.  0.
         13    1    5    5    0    0 -0.75603244230E+02  0.15334395859E+03  0.12413528101E+03  0.21128130103E+03  0.00000000000E+00 0. -1.
        -14    1    5    5    0    0  0.27155167298E+01  0.20192137970E+02  0.63853417126E+02  0.67025035215E+02  0.00000000000E+00 0.  1.
         13    1    3    3    0    0  0.24883658976E+03  0.10898752469E+03  0.18224571969E+03  0.32712601744E+03  0.00000000000E+00 0. -1.
        -14    1    3    3    0    0  0.29952153016E+02  0.48113938420E+02  0.27812383577E+02  0.63131697433E+02  0.00000000000E+00 0.  1.
          2    1    6    6  502    0 -0.20756252228E+02 -0.37100472768E+02 -0.38438265670E+02  0.57312889945E+02  0.00000000000E+00 0. -1.
         -1    1    6    6    0  502 -0.18514476304E+03 -0.29353708690E+03 -0.53555144506E+02  0.35115631587E+03  0.00000000000E+00 0.  1.
<mgrwt>
<rscale>  0 0.45461788E+03</rscale>
<asrwt>0</asrwt>
<pdfrwt beam="1">  1        1 0.10639128E+00 0.45461788E+03</pdfrwt>
<pdfrwt beam="2">  1       -2 0.59306144E-01 0.45461788E+03</pdfrwt>
<totfact> 0.67439999E+01</totfact>
</mgrwt>
</event>
<event>
12    3  0.2269558E-007  0.2575159E+04  0.7818608E-02  0.8376688E-01
          3   -1    0    0  501    0  0.00000000000E+00  0.00000000000E+00  0.27475284527E+04  0.27475284527E+04  0.00000000000E+00 0. -1.
         -4   -1    0    0    0  501 -0.00000000000E+00 -0.00000000000E+00 -0.24175000696E+04  0.24175000696E+04  0.00000000000E+00 0.  1.
        -24    2    1    2    0    0 -0.22576890335E+04 -0.11646444938E+04  0.24310688100E+03  0.25532321533E+04  0.79604674017E+02 0.  0.
    5000000    2    1    2    0    0  0.22576890335E+04  0.11646444938E+04  0.86921502110E+02  0.26117963689E+04  0.60030688500E+03 0.  0.
        -24    2    4    4    0    0  0.79873820208E+03  0.73032130125E+03  0.72746577520E+02  0.10874755568E+04  0.77195230923E+02 0.  0.
         24    2    4    4    0    0  0.14589508314E+04  0.43432319260E+03  0.14174924590E+02  0.15243208121E+04  0.78605632932E+02 0.  0.
         11    1    3    3    0    0 -0.12003914688E+04 -0.58286170489E+03  0.10440832541E+03  0.13384948800E+04  0.00000000000E+00 0. -1.
        -12    1    3    3    0    0 -0.10572975647E+04 -0.58178278895E+03  0.13869855559E+03  0.12147372733E+04  0.00000000000E+00 0.  1.
         11    1    5    5    0    0  0.32967344067E+03  0.35173710008E+03  0.41998424129E+02  0.48390849619E+03  0.00000000000E+00 0. -1.
        -12    1    5    5    0    0  0.46906476141E+03  0.37858420117E+03  0.30748153391E+02  0.60356706066E+03  0.00000000000E+00 0.  1.
          4    1    6    6  502    0  0.36157811917E+03  0.72632191010E+02  0.89790985049E+00  0.36880208469E+03  0.00000000000E+00 0. -1.
         -3    1    6    6    0  502  0.10973727122E+04  0.36169100159E+03  0.13277014740E+02  0.11555187274E+04  0.00000000000E+00 0.  1.
<mgrwt>
<rscale>  0 0.25751594E+04</rscale>
<asrwt>0</asrwt>
<pdfrwt beam="1">  1        3 0.42269669E+00 0.25751594E+04</pdfrwt>
<pdfrwt beam="2">  1       -4 0.37192309E+00 0.25751594E+04</pdfrwt>
<totfact> 0.16541835E-04</totfact>
</mgrwt>
</event>
<event>
12    3  0.2269558E-007  0.8194564E+03  0.7818608E-02  0.9532274E-01
         -2   -1    0    0    0  501 -0.00000000000E+00  0.00000000000E+00  0.44329271721E+03  0.44329271721E+03  0.00000000000E+00 0.  1.
          1   -1    0    0  501    0  0.00000000000E+00 -0.00000000000E+00 -0.20072528169E+04  0.20072528169E+04  0.00000000000E+00 0. -1.
        -24    2    1    2    0    0 -0.79738814726E+03  0.10371879566E+03 -0.36377048896E+03  0.88623708783E+03  0.80633499488E+02 0.  0.
    5000000    2    1    2    0    0  0.79738814726E+03 -0.10371879566E+03 -0.12001896107E+04  0.15643084462E+04  0.60001697259E+03 0.  0.
        -24    2    4    4    0    0  0.20020481091E+03  0.64192260011E+02 -0.16827784536E+02  0.22573655692E+03  0.80443807968E+02 0.  0.
         24    2    4    4    0    0  0.59718333636E+03 -0.16791105567E+03 -0.11833618261E+04  0.13385718893E+04  0.81286108598E+02 0.  0.
         11    1    5    5    0    0  0.13638741300E+03  0.50973298446E+02  0.25788618469E+02  0.14786769905E+03  0.00000000000E+00 0. -1.
        -12    1    5    5    0    0  0.63817397902E+02  0.13218961564E+02 -0.42616403006E+02  0.77868857864E+02  0.00000000000E+00 0.  1.
         13    1    3    3    0    0 -0.58606132328E+03  0.42123101437E+02 -0.27762770832E+03  0.64986104265E+03  0.00000000000E+00 0. -1.
        -14    1    3    3    0    0 -0.21132682398E+03  0.61595694225E+02 -0.86142780643E+02  0.23637604519E+03  0.00000000000E+00 0.  1.
          4    1    6    6  502    0  0.29235390095E+03 -0.76271844150E+02 -0.66258389759E+03  0.72822085864E+03  0.00000000000E+00 0. -1.
         -3    1    6    6    0  502  0.30482943541E+03 -0.91639211523E+02 -0.52077792855E+03  0.61035103068E+03  0.00000000000E+00 0.  1.
<mgrwt>
<rscale>  0 0.81945637E+03</rscale>
<asrwt>0</asrwt>
<pdfrwt beam="1">  1        1 0.30880813E+00 0.81945637E+03</pdfrwt>
<pdfrwt beam="2">  1       -2 0.68198878E-01 0.81945637E+03</pdfrwt>
<totfact> 0.52550850E+00</totfact>
</mgrwt>
</event>
<event>
12    3  0.2269558E-007  0.8303379E+03  0.7818608E-02  0.9517113E-01
          1   -1    0    0  501    0  0.00000000000E+00  0.00000000000E+00  0.14569843572E+04  0.14569843572E+04  0.00000000000E+00 0. -1.
         -2   -1    0    0    0  501 -0.00000000000E+00 -0.00000000000E+00 -0.55123569421E+03  0.55123569421E+03  0.00000000000E+00 0.  1.
        -24    2    1    2    0    0  0.72910666866E+03  0.51551119112E+02  0.57117557635E+02  0.73760632623E+03  0.80911216377E+02 0.  0.
    5000000    2    1    2    0    0 -0.72910666866E+03 -0.51551119112E+02  0.84863110535E+03  0.12706137252E+04  0.60002536070E+03 0.  0.
        -24    2    4    4    0    0 -0.62048933715E+03 -0.27263608253E+03  0.59907751836E+03  0.90808392218E+03  0.79906731288E+02 0.  0.
         24    2    4    4    0    0 -0.10861733151E+03  0.22108496342E+03  0.24955358699E+03  0.36252980300E+03  0.92057479508E+02 0.  0.
         13    1    5    5    0    0 -0.42672148073E+03 -0.18097462564E+03  0.45701762861E+03  0.65092868281E+03  0.00000000000E+00 0. -1.
        -14    1    5    5    0    0 -0.19376785642E+03 -0.91661456889E+02  0.14205988974E+03  0.25715523937E+03  0.00000000000E+00 0.  1.
         13    1    3    3    0    0  0.20270135043E+03  0.21129974978E+02  0.51868512677E+02  0.21029659036E+03  0.00000000000E+00 0. -1.
        -14    1    3    3    0    0  0.52640531823E+03  0.30421144135E+02  0.52490449582E+01  0.52730973587E+03  0.00000000000E+00 0.  1.
          2    1    6    6  502    0 -0.10162726590E+03  0.15546252478E+03  0.22584091339E+03  0.29240522558E+03  0.00000000000E+00 0. -1.
         -1    1    6    6    0  502 -0.69900656193E+01  0.65622438635E+02  0.23712673595E+02  0.70124577423E+02  0.00000000000E+00 0.  1.
<mgrwt>
<rscale>  0 0.83033794E+03</rscale>
<asrwt>0</asrwt>
<pdfrwt beam="1">  1        1 0.22415144E+00 0.83033794E+03</pdfrwt>
<pdfrwt beam="2">  1       -2 0.84805492E-01 0.83033794E+03</pdfrwt>
<totfact> 0.76045627E+00</totfact>
</mgrwt>
</event>
<event>
12    3  0.2269558E-007  0.9443251E+03  0.7818608E-02  0.9371808E-01
          1   -1    0    0  501    0  0.00000000000E+00  0.00000000000E+00  0.32834251405E+04  0.32834251405E+04  0.00000000000E+00 0. -1.
         -2   -1    0    0    0  501 -0.00000000000E+00 -0.00000000000E+00 -0.39337096706E+03  0.39337096706E+03  0.00000000000E+00 0.  1.
        -24    2    1    2    0    0 -0.77945223240E+03  0.51885810334E+03  0.55743230842E+03  0.10926361584E+04  0.79771436743E+02 0.  0.
    5000000    2    1    2    0    0  0.77945223240E+03 -0.51885810334E+03  0.23326218650E+04  0.25841599492E+04  0.59999863656E+03 0.  0.
        -24    2    4    4    0    0  0.59560310346E+03 -0.35097249102E+03  0.21614020684E+04  0.22706541634E+04  0.79288599503E+02 0.  0.
         24    2    4    4    0    0  0.18384912893E+03 -0.16788561232E+03  0.17121979660E+03  0.31350578581E+03  0.83567804552E+02 0.  0.
         11    1    5    5    0    0  0.11831119583E+03 -0.63320282459E+02  0.52888495841E+03  0.54564301193E+03  0.00000000000E+00 0. -1.
        -12    1    5    5    0    0  0.47729190763E+03 -0.28765220856E+03  0.16325171100E+04  0.17250111515E+04  0.00000000000E+00 0.  1.
         13    1    3    3    0    0 -0.61337251196E+03  0.40394035618E+03  0.39810012758E+03  0.83539054421E+03  0.00000000000E+00 0. -1.
        -14    1    3    3    0    0 -0.16607972043E+03  0.11491774716E+03  0.15933218084E+03  0.25724561416E+03  0.00000000000E+00 0.  1.
          2    1    6    6  502    0  0.17445561010E+03 -0.11939359158E+03  0.12352145615E+03  0.24484104994E+03  0.00000000000E+00 0. -1.
         -1    1    6    6    0  502  0.93935188376E+01 -0.48492020737E+02  0.47698340452E+02  0.68664735878E+02  0.00000000000E+00 0.  1.
<mgrwt>
<rscale>  0 0.94432506E+03</rscale>
<asrwt>0</asrwt>
<pdfrwt beam="1">  1        1 0.50514231E+00 0.94432506E+03</pdfrwt>
<pdfrwt beam="2">  1       -2 0.60518613E-01 0.94432506E+03</pdfrwt>
<totfact> 0.85488159E-01</totfact>
</mgrwt>
</event>
<event>
12    3  0.2269558E-007  0.6576990E+03  0.7818608E-02  0.9792439E-01
         -2   -1    0    0    0  501 -0.00000000000E+00  0.00000000000E+00  0.46843062284E+03  0.46843062284E+03  0.00000000000E+00 0.  1.
          1   -1    0    0  501    0  0.00000000000E+00 -0.00000000000E+00 -0.12113319872E+04  0.12113319872E+04  0.00000000000E+00 0. -1.
        -24    2    1    2    0    0  0.37578088653E+02 -0.55253740216E+03  0.23419238506E+02  0.55998591814E+03  0.79536622049E+02 0.  0.
    5000000    2    1    2    0    0 -0.37578088653E+02  0.55253740216E+03 -0.76632060290E+03  0.11197766919E+04  0.59995239797E+03 0.  0.
        -24    2    4    4    0    0  0.10548782706E+03 -0.59234716621E+02 -0.23128219167E+02  0.14339833424E+03  0.73428430677E+02 0.  0.
         24    2    4    4    0    0 -0.14306591571E+03  0.61177211878E+03 -0.74319238373E+03  0.97637835769E+03  0.79036678627E+02 0.  0.
         11    1    3    3    0    0  0.38771321822E+01 -0.38656678984E+03  0.45256536524E+02  0.38922624431E+03  0.00000000000E+00 0. -1.
        -12    1    3    3    0    0  0.33700956471E+02 -0.16597061233E+03 -0.21837298018E+02  0.17075967383E+03  0.00000000000E+00 0.  1.
         13    1    5    5    0    0  0.48721107462E+02 -0.55265934017E+01  0.21349807965E+02  0.53479938735E+02  0.00000000000E+00 0. -1.
        -14    1    5    5    0    0  0.56766719593E+02 -0.53708123219E+02 -0.44478027132E+02  0.89918395507E+02  0.00000000000E+00 0.  1.
          4    1    6    6  502    0 -0.10789283061E+03  0.30559049522E+03 -0.40771751760E+03  0.52082625493E+03  0.00000000000E+00 0. -1.
         -3    1    6    6    0  502 -0.35173085100E+02  0.30618162356E+03 -0.33547486614E+03  0.45555210276E+03  0.00000000000E+00 0.  1.
<mgrwt>
<rscale>  0 0.65769895E+03</rscale>
<asrwt>0</asrwt>
<pdfrwt beam="1">  1        1 0.18635876E+00 0.65769895E+03</pdfrwt>
<pdfrwt beam="2">  1       -2 0.72066252E-01 0.65769895E+03</pdfrwt>
<totfact> 0.16654619E+01</totfact>
</mgrwt>
</event>
<event>
12    3  0.2269558E-007  0.4649224E+03  0.7818608E-02  0.1023363E+00
          1   -1    0    0  501    0  0.00000000000E+00  0.00000000000E+00  0.13895679701E+04  0.13895679701E+04  0.00000000000E+00 0. -1.
         -2   -1    0    0    0  501 -0.00000000000E+00 -0.00000000000E+00 -0.32532628214E+03  0.32532628214E+03  0.00000000000E+00 0.  1.
        -24    2    1    2    0    0  0.13576472329E+03 -0.44137104613E+03  0.83164872746E+02  0.47580882615E+03  0.78975835077E+02 0.  0.
    5000000    2    1    2    0    0 -0.13576472329E+03  0.44137104613E+03  0.98107681526E+03  0.12390854261E+04  0.59965032757E+03 0.  0.
        -24    2    4    4    0    0 -0.32225547835E+02  0.15037109301E+03 -0.30816972648E+02  0.17813396420E+03  0.84451594738E+02 0.  0.
         24    2    4    4    0    0 -0.10353917545E+03  0.29099995313E+03  0.10118937879E+04  0.10609514619E+04  0.79294596183E+02 0.  0.
         11    1    5    5    0    0 -0.35265979555E+01  0.34380398914E+02 -0.46160058030E+02  0.57664544392E+02  0.00000000000E+00 0. -1.
        -12    1    5    5    0    0 -0.28698949879E+02  0.11599069409E+03  0.15343085382E+02  0.12046941981E+03  0.00000000000E+00 0.  1.
         13    1    3    3    0    0  0.56725553601E+02 -0.12703665661E+03  0.57942156240E+02  0.15070963481E+03  0.00000000000E+00 0. -1.
        -14    1    3    3    0    0  0.79039169688E+02 -0.31433438952E+03  0.25222716506E+02  0.32509919134E+03  0.00000000000E+00 0.  1.
          4    1    6    6  502    0 -0.45953556254E+02  0.19720460068E+03  0.75038767178E+03  0.77722779275E+03  0.00000000000E+00 0. -1.
         -3    1    6    6    0  502 -0.57585619199E+02  0.93795352446E+02  0.26150611612E+03  0.28372366917E+03  0.00000000000E+00 0.  1.
<mgrwt>
<rscale>  0 0.46492237E+03</rscale>
<asrwt>0</asrwt>
<pdfrwt beam="1">  1        1 0.21377968E+00 0.46492237E+03</pdfrwt>
<pdfrwt beam="2">  1       -2 0.50050198E-01 0.46492237E+03</pdfrwt>
<totfact> 0.27715525E+01</totfact>
</mgrwt>
</event>
<event>
12    3  0.2269558E-007  0.1007221E+04  0.7818608E-02  0.9300660E-01
          1   -1    0    0  501    0  0.00000000000E+00  0.00000000000E+00  0.28963033087E+04  0.28963033087E+04  0.00000000000E+00 0. -1.
         -2   -1    0    0    0  501 -0.00000000000E+00 -0.00000000000E+00 -0.47127795903E+03  0.47127795903E+03  0.00000000000E+00 0.  1.
        -24    2    1    2    0    0  0.78488668627E+01 -0.98067499366E+03  0.18185893226E+04  0.20677168804E+04  0.80005782511E+02 0.  0.
    5000000    2    1    2    0    0 -0.78488668627E+01  0.98067499366E+03  0.60643602713E+03  0.12998643874E+04  0.60008143009E+03 0.  0.
        -24    2    4    4    0    0  0.14302576921E+03  0.63481699783E+03  0.63527710382E+03  0.91284695706E+03  0.79142763283E+02 0.  0.
         24    2    4    4    0    0 -0.15087463607E+03  0.34585799583E+03 -0.28841076684E+02  0.38701743035E+03  0.81054146102E+02 0.  0.
         11    1    5    5    0    0  0.51005909400E+02  0.26201586049E+03  0.20820569428E+03  0.33853142406E+03  0.00000000000E+00 0. -1.
        -12    1    5    5    0    0  0.92019859808E+02  0.37280113734E+03  0.42707140954E+03  0.57431553300E+03  0.00000000000E+00 0.  1.
         13    1    3    3    0    0 -0.25002953574E+02 -0.58043518227E+03  0.11291395287E+04  0.12698370855E+04  0.00000000000E+00 0. -1.
        -14    1    3    3    0    0  0.32851820436E+02 -0.40023981140E+03  0.68944979388E+03  0.79787979484E+03  0.00000000000E+00 0.  1.
          2    1    6    6  502    0 -0.82351562073E+02  0.24935371872E+03  0.90092667582E+01  0.26275506409E+03  0.00000000000E+00 0. -1.
         -1    1    6    6    0  502 -0.68523073998E+02  0.96504277115E+02 -0.37850343443E+02  0.12426236627E+03  0.00000000000E+00 0.  1.
<mgrwt>
<rscale>  0 0.10072208E+04</rscale>
<asrwt>0</asrwt>
<pdfrwt beam="1">  1        1 0.44558511E+00 0.10072208E+04</pdfrwt>
<pdfrwt beam="2">  1       -2 0.72504303E-01 0.10072208E+04</pdfrwt>
<totfact> 0.10970709E+00</totfact>
</mgrwt>
</event>
<event>
12    3  0.2269558E-007  0.4300289E+03  0.7818608E-02  0.1033851E+00
         -2   -1    0    0    0  501 -0.00000000000E+00  0.00000000000E+00  0.31130144683E+03  0.31130144683E+03  0.00000000000E+00 0.  1.
          1   -1    0    0  501    0  0.00000000000E+00 -0.00000000000E+00 -0.10157700135E+04  0.10157700135E+04  0.00000000000E+00 0. -1.
        -24    2    1    2    0    0  0.39332041991E+03  0.15748921316E+02 -0.31673675234E+03  0.51146336196E+03  0.79521186492E+02 0.  0.
    5000000    2    1    2    0    0 -0.39332041991E+03 -0.15748921316E+02 -0.38773181432E+03  0.81560809837E+03  0.59994302150E+03 0.  0.
        -24    2    4    4    0    0 -0.37972616496E+03 -0.54803573329E+02 -0.52237234942E+03  0.65305986961E+03  0.80118224217E+02 0.  0.
         24    2    4    4    0    0 -0.13594254943E+02  0.39054652012E+02  0.13464053510E+03  0.16254822875E+03  0.81140516189E+02 0.  0.
         13    1    5    5    0    0 -0.86542708515E+02 -0.47370148128E+02 -0.13129929809E+03  0.16423482277E+03  0.00000000000E+00 0. -1.
        -14    1    5    5    0    0 -0.29318345645E+03 -0.74334252005E+01 -0.39107305133E+03  0.48882504684E+03  0.00000000000E+00 0.  1.
         13    1    3    3    0    0  0.19159766724E+03 -0.27109408463E+02 -0.17792270703E+03  0.26287083482E+03  0.00000000000E+00 0. -1.
        -14    1    3    3    0    0  0.20172275266E+03  0.42858329780E+02 -0.13881404531E+03  0.24859252714E+03  0.00000000000E+00 0.  1.
          2    1    6    6  502    0  0.25624705255E+01 -0.13328045410E+02 -0.34255771591E+01  0.13997772269E+02  0.00000000000E+00 0. -1.
         -1    1    6    6    0  502 -0.16156725468E+02  0.52382697422E+02  0.13806611226E+03  0.14855045648E+03  0.00000000000E+00 0.  1.
<mgrwt>
<rscale>  0 0.43002893E+03</rscale>
<asrwt>0</asrwt>
<pdfrwt beam="1">  1        1 0.15627231E+00 0.43002893E+03</pdfrwt>
<pdfrwt beam="2">  1       -2 0.47892531E-01 0.43002893E+03</pdfrwt>
<totfact> 0.56384469E+01</totfact>
</mgrwt>
</event>
<event>
12    3  0.2269558E-007  0.1562836E+04  0.7818608E-02  0.8843710E-01
         -2   -1    0    0    0  501 -0.00000000000E+00  0.00000000000E+00  0.28212182494E+04  0.28212182494E+04  0.00000000000E+00 0.  1.
          1   -1    0    0  501    0  0.00000000000E+00 -0.00000000000E+00 -0.10208465899E+04  0.10208465899E+04  0.00000000000E+00 0. -1.
        -24    2    1    2    0    0 -0.14271966653E+04  0.57475204120E+03  0.22002104146E+03  0.15563096812E+04  0.80376208311E+02 0.  0.
    5000000    2    1    2    0    0  0.14271966653E+04 -0.57475204120E+03  0.15803506181E+04  0.22857551580E+04  0.59994861134E+03 0.  0.
        -24    2    4    4    0    0  0.23962955945E+03  0.23142517643E+02  0.53411001145E+03  0.59201270013E+03  0.85133018842E+02 0.  0.
         24    2    4    4    0    0  0.11875671058E+04 -0.59789455885E+03  0.10462406066E+04  0.16937424579E+04  0.79690479144E+02 0.  0.
         13    1    3    3    0    0 -0.24646946815E+03  0.13093524000E+03  0.49645032068E+02  0.28347110085E+03  0.00000000000E+00 0. -1.
        -14    1    3    3    0    0 -0.11807271971E+04  0.44381680120E+03  0.17037600939E+03  0.12728385803E+04  0.00000000000E+00 0.  1.
         13    1    5    5    0    0  0.11276715463E+03 -0.30123886141E+02  0.27192950977E+03  0.29592150642E+03  0.00000000000E+00 0. -1.
        -14    1    5    5    0    0  0.12686240483E+03  0.53266403784E+02  0.26218050168E+03  0.29609119371E+03  0.00000000000E+00 0.  1.
          4    1    6    6  502    0  0.67066142431E+03 -0.37020547614E+03  0.63587029293E+03  0.99557514536E+03  0.00000000000E+00 0. -1.
         -3    1    6    6    0  502  0.51690568151E+03 -0.22768908271E+03  0.41037031368E+03  0.69816731255E+03  0.00000000000E+00 0.  1.
<mgrwt>
<rscale>  0 0.15628359E+04</rscale>
<asrwt>0</asrwt>
<pdfrwt beam="1">  1        1 0.15705332E+00 0.15628359E+04</pdfrwt>
<pdfrwt beam="2">  1       -2 0.43403357E+00 0.15628359E+04</pdfrwt>
<totfact> 0.53313300E-02</totfact>
</mgrwt>
</event>
<event>
12    3  0.2269558E-007  0.2086071E+04  0.7818608E-02  0.8567404E-01
         -2   -1    0    0    0  501 -0.00000000000E+00  0.00000000000E+00  0.16124874133E+04  0.16124874133E+04  0.00000000000E+00 0.  1.
          1   -1    0    0  501    0  0.00000000000E+00 -0.00000000000E+00 -0.28223490879E+04  0.28223490879E+04  0.00000000000E+00 0. -1.
        -24    2    1    2    0    0  0.68265610295E+03 -0.19558101060E+04 -0.30224868056E+03  0.20949696101E+04  0.79566807573E+02 0.  0.
    5000000    2    1    2    0    0 -0.68265610295E+03  0.19558101060E+04 -0.90761299404E+03  0.23398668912E+04  0.60000266323E+03 0.  0.
        -24    2    4    4    0    0 -0.67440775873E+03  0.15683092743E+04 -0.92637423350E+03  0.19437619248E+04  0.74975962071E+02 0.  0.
         24    2    4    4    0    0 -0.82483442213E+01  0.38750083172E+03  0.18761239463E+02  0.39610496641E+03  0.79512455246E+02 0.  0.
         13    1    3    3    0    0  0.34860182781E+03 -0.91605717487E+03 -0.11375395396E+03  0.98672384385E+03  0.00000000000E+00 0. -1.
        -14    1    3    3    0    0  0.33405427514E+03 -0.10397529311E+04 -0.18849472660E+03  0.11082457663E+04  0.00000000000E+00 0.  1.
         13    1    5    5    0    0 -0.52654742021E+03  0.12417028543E+04 -0.69746904974E+03  0.15184008823E+04  0.00000000000E+00 0. -1.
        -14    1    5    5    0    0 -0.14786033852E+03  0.32660641994E+03 -0.22890518376E+03  0.42536104241E+03  0.00000000000E+00 0.  1.
          4    1    6    6  502    0 -0.35409687430E+02  0.24955751112E+03 -0.11397461308E+02  0.25231468337E+03  0.00000000000E+00 0. -1.
         -3    1    6    6    0  502  0.27161343209E+02  0.13794332060E+03  0.30158700771E+02  0.14379028304E+03  0.00000000000E+00 0.  1.
<mgrwt>
<rscale>  0 0.20860706E+04</rscale>
<asrwt>0</asrwt>
<pdfrwt beam="1">  1        1 0.43420754E+00 0.20860706E+04</pdfrwt>
<pdfrwt beam="2">  1       -2 0.24807499E+00 0.20860706E+04</pdfrwt>
<totfact> 0.41005359E-02</totfact>
</mgrwt>
</event>
<event>
12    3  0.2269558E-007  0.7147453E+03  0.7818608E-02  0.9692343E-01
          1   -1    0    0  501    0  0.00000000000E+00  0.00000000000E+00  0.17119636695E+04  0.17119636695E+04  0.00000000000E+00 0. -1.
         -2   -1    0    0    0  501 -0.00000000000E+00 -0.00000000000E+00 -0.14068080506E+04  0.14068080506E+04  0.00000000000E+00 0.  1.
        -24    2    1    2    0    0  0.27595965563E+03 -0.56501497502E+03  0.15074555952E+04  0.16352070485E+04  0.78000426251E+02 0.  0.
    5000000    2    1    2    0    0 -0.27595965563E+03  0.56501497502E+03 -0.12022999763E+04  0.14835646715E+04  0.60003603900E+03 0.  0.
        -24    2    4    4    0    0 -0.40468687399E+03  0.33156746412E+03 -0.49968857093E+03  0.72785914299E+03  0.79886262105E+02 0.  0.
         24    2    4    4    0    0  0.12872721836E+03  0.23344751090E+03 -0.70261140538E+03  0.75570552856E+03  0.79747237136E+02 0.  0.
         13    1    3    3    0    0  0.33493487876E+02 -0.83456338666E+02  0.15426065729E+03  0.17855846264E+03  0.00000000000E+00 0. -1.
        -14    1    3    3    0    0  0.24246616775E+03 -0.48155863635E+03  0.13531949379E+04  0.14566485859E+04  0.00000000000E+00 0.  1.
         13    1    5    5    0    0 -0.27445786146E+03  0.21441186209E+03 -0.38137648303E+03  0.51647612349E+03  0.00000000000E+00 0. -1.
        -14    1    5    5    0    0 -0.13022901253E+03  0.11715560203E+03 -0.11831208790E+03  0.21138301950E+03  0.00000000000E+00 0.  1.
          4    1    6    6  502    0  0.12529407066E+03  0.23933113185E+03 -0.69400980734E+03  0.74473324587E+03  0.00000000000E+00 0. -1.
         -3    1    6    6    0  502  0.34331477040E+01 -0.58836209495E+01 -0.86015980409E+01  0.10972282693E+02  0.00000000000E+00 0.  1.
<mgrwt>
<rscale>  0 0.71474531E+03</rscale>
<asrwt>0</asrwt>
<pdfrwt beam="1">  1        1 0.26337903E+00 0.71474531E+03</pdfrwt>
<pdfrwt beam="2">  1       -2 0.21643201E+00 0.71474531E+03</pdfrwt>
<totfact> 0.45159069E-01</totfact>
</mgrwt>
</event>
<event>
12    3  0.2269558E-007  0.5569785E+03  0.7818608E-02  0.9998915E-01
          1   -1    0    0  501    0  0.00000000000E+00  0.00000000000E+00  0.78605947031E+03  0.78605947031E+03  0.00000000000E+00 0. -1.
         -2   -1    0    0    0  501 -0.00000000000E+00 -0.00000000000E+00 -0.59068632988E+03  0.59068632988E+03  0.00000000000E+00 0.  1.
        -24    2    1    2    0    0 -0.40292941872E+03 -0.41709493527E+02 -0.29208933026E+03  0.50359204124E+03  0.64784016795E+02 0.  0.
    5000000    2    1    2    0    0  0.40292941872E+03  0.41709493527E+02  0.48746247069E+03  0.87315375895E+03  0.60057141799E+03 0.  0.
        -24    2    4    4    0    0 -0.13741379245E+02  0.23890053828E+03  0.12558423789E+03  0.28197684268E+03  0.80481341371E+02 0.  0.
         24    2    4    4    0    0  0.41667079797E+03 -0.19719104475E+03  0.36187823280E+03  0.59117691626E+03  0.77688023134E+02 0.  0.
         11    1    5    5    0    0  0.12915706356E+02  0.30367397466E+02 -0.65866353159E+01  0.33650825611E+02  0.00000000000E+00 0. -1.
        -12    1    5    5    0    0 -0.26657085601E+02  0.20853314081E+03  0.13217087321E+03  0.24832601707E+03  0.00000000000E+00 0.  1.
         13    1    3    3    0    0 -0.26045586997E+03  0.56906360239E+00 -0.20394958392E+03  0.33080661544E+03  0.00000000000E+00 0. -1.
        -14    1    3    3    0    0 -0.14247354875E+03 -0.42278557130E+02 -0.88139746332E+02  0.17278542581E+03  0.00000000000E+00 0.  1.
          2    1    6    6  502    0  0.12895129547E+03 -0.48348720370E+02  0.67108968956E+02  0.15319807139E+03  0.00000000000E+00 0. -1.
         -3    1    6    6    0  502  0.28771950250E+03 -0.14884232438E+03  0.29476926384E+03  0.43797884487E+03  0.00000000000E+00 0.  1.
<mgrwt>
<rscale>  0 0.55697851E+03</rscale>
<asrwt>0</asrwt>
<pdfrwt beam="1">  1        1 0.12093223E+00 0.55697851E+03</pdfrwt>
<pdfrwt beam="2">  1       -2 0.90874820E-01 0.55697851E+03</pdfrwt>
<totfact> 0.21476030E+01</totfact>
</mgrwt>
</event>
<event>
12    3  0.2269558E-007  0.1719534E+04  0.7818608E-02  0.8750301E-01
         -2   -1    0    0    0  501 -0.00000000000E+00  0.00000000000E+00  0.13885599269E+04  0.13885599269E+04  0.00000000000E+00 0.  1.
          1   -1    0    0  501    0  0.00000000000E+00 -0.00000000000E+00 -0.23157652005E+04  0.23157652005E+04  0.00000000000E+00 0. -1.
        -24    2    1    2    0    0  0.14469204377E+04 -0.85198304654E+03  0.28328940206E+02  0.16813799945E+04  0.82354673856E+02 0.  0.
    5000000    2    1    2    0    0 -0.14469204377E+04  0.85198304654E+03 -0.95553421373E+03  0.20229451329E+04  0.59983957244E+03 0.  0.
        -24    2    4    4    0    0 -0.26076191599E+03 -0.41065869819E+02 -0.26668739572E+03  0.38387487300E+03  0.80960290181E+02 0.  0.
         24    2    4    4    0    0 -0.11861585217E+04  0.89304891636E+03 -0.68884681801E+03  0.16390702599E+04  0.86792699720E+02 0.  0.
         13    1    5    5    0    0 -0.16675507949E+03  0.11498732953E+02 -0.17977936463E+03  0.24547932161E+03  0.00000000000E+00 0. -1.
        -14    1    5    5    0    0 -0.94006836497E+02 -0.52564602771E+02 -0.86908031100E+02  0.13839555138E+03  0.00000000000E+00 0.  1.
         13    1    3    3    0    0  0.57421599918E+03 -0.34426386200E+03  0.51283469152E+02  0.67146974213E+03  0.00000000000E+00 0. -1.
        -14    1    3    3    0    0  0.87270443851E+03 -0.50771918455E+03 -0.22954528946E+02  0.10099102523E+04  0.00000000000E+00 0.  1.
          2    1    6    6  502    0 -0.10507117133E+04  0.77903860203E+03 -0.57674908960E+03  0.14295229135E+04  0.00000000000E+00 0. -1.
         -1    1    6    6    0  502 -0.13544680844E+03  0.11401031433E+03 -0.11209772841E+03  0.20954734646E+03  0.00000000000E+00 0.  1.
<mgrwt>
<rscale>  0 0.17195345E+04</rscale>
<asrwt>0</asrwt>
<pdfrwt beam="1">  1        1 0.35627157E+00 0.17195345E+04</pdfrwt>
<pdfrwt beam="2">  1       -2 0.21362461E+00 0.17195345E+04</pdfrwt>
<totfact> 0.15877173E-01</totfact>
</mgrwt>
</event>
<event>
12    3  0.2269558E-007  0.1779447E+04  0.7818608E-02  0.8717306E-01
          1   -1    0    0  501    0  0.00000000000E+00  0.00000000000E+00  0.25598132155E+04  0.25598132155E+04  0.00000000000E+00 0. -1.
         -2   -1    0    0    0  501 -0.00000000000E+00 -0.00000000000E+00 -0.13112764079E+04  0.13112764079E+04  0.00000000000E+00 0.  1.
        -24    2    1    2    0    0  0.16946686704E+04  0.53897715664E+03  0.73069875905E+03  0.19241670038E+04  0.78100603224E+02 0.  0.
    5000000    2    1    2    0    0 -0.16946686704E+04 -0.53897715664E+03  0.51783804855E+03  0.19469226197E+04  0.59996096930E+03 0.  0.
        -24    2    4    4    0    0 -0.51649762895E+03 -0.18322039600E+03  0.44641070976E+03  0.71136130001E+03  0.80080354284E+02 0.  0.
         24    2    4    4    0    0 -0.11781710414E+04 -0.35575676064E+03  0.71427338794E+02  0.12355613197E+04  0.82825324007E+02 0.  0.
         11    1    3    3    0    0  0.89092131463E+03  0.27263364007E+03  0.34208146060E+03  0.99251680905E+03  0.00000000000E+00 0. -1.
        -12    1    3    3    0    0  0.80374735577E+03  0.26634351657E+03  0.38861729844E+03  0.93165019475E+03  0.00000000000E+00 0.  1.
         13    1    5    5    0    0 -0.24956353877E+03 -0.69305000554E+02  0.16496079660E+03  0.30707850365E+03  0.00000000000E+00 0. -1.
        -14    1    5    5    0    0 -0.26693409018E+03 -0.11391539544E+03  0.28144991316E+03  0.40428279636E+03  0.00000000000E+00 0.  1.
          4    1    6    6  502    0 -0.74356528524E+03 -0.20646412078E+03  0.80936499207E+02  0.77593007641E+03  0.00000000000E+00 0. -1.
         -3    1    6    6    0  502 -0.43460575620E+03 -0.14929263987E+03 -0.95091604134E+01  0.45963124325E+03  0.00000000000E+00 0.  1.
<mgrwt>
<rscale>  0 0.17794470E+04</rscale>
<asrwt>0</asrwt>
<pdfrwt beam="1">  1        1 0.39381742E+00 0.17794470E+04</pdfrwt>
<pdfrwt beam="2">  1       -2 0.20173483E+00 0.17794470E+04</pdfrwt>
<totfact> 0.12781023E-01</totfact>
</mgrwt>
</event>
<event>
12    3  0.2269558E-007  0.7799229E+03  0.7818608E-02  0.9589541E-01
         -2   -1    0    0    0  501 -0.00000000000E+00  0.00000000000E+00  0.89826210689E+03  0.89826210689E+03  0.00000000000E+00 0.  1.
          1   -1    0    0  501    0  0.00000000000E+00 -0.00000000000E+00 -0.10298621860E+04  0.10298621860E+04  0.00000000000E+00 0. -1.
        -24    2    1    2    0    0  0.36106055571E+03  0.56761465006E+03 -0.60650126949E+03  0.90926380861E+03  0.79785762482E+02 0.  0.
    5000000    2    1    2    0    0 -0.36106055571E+03 -0.56761465006E+03  0.47490119037E+03  0.10188604843E+04  0.59999535830E+03 0.  0.
        -24    2    4    4    0    0 -0.20051460357E+03 -0.65618826492E+03  0.29914291697E+03  0.75247634908E+03  0.77103993978E+02 0.  0.
         24    2    4    4    0    0 -0.16054595214E+03  0.88573614865E+02  0.17575827340E+03  0.26638413521E+03  0.80307215255E+02 0.  0.
         11    1    5    5    0    0 -0.17162637015E+02 -0.16028365320E+03  0.57371610259E+02  0.17110495977E+03  0.00000000000E+00 0. -1.
        -12    1    5    5    0    0 -0.18335196655E+03 -0.49590461172E+03  0.24177130671E+03  0.58137138932E+03  0.00000000000E+00 0.  1.
         13    1    3    3    0    0  0.50847548464E+02  0.11383593665E+03 -0.14757945080E+03  0.19319365403E+03  0.00000000000E+00 0. -1.
        -14    1    3    3    0    0  0.31021300725E+03  0.45377871341E+03 -0.45892181869E+03  0.71607015458E+03  0.00000000000E+00 0.  1.
          4    1    6    6  502    0 -0.30320088705E+01  0.25858845474E+02  0.65378668351E+01  0.26844304234E+02  0.00000000000E+00 0. -1.
         -3    1    6    6    0  502 -0.15751394327E+03  0.62714769391E+02  0.16922040656E+03  0.23953983097E+03  0.00000000000E+00 0.  1.
<mgrwt>
<rscale>  0 0.77992288E+03</rscale>
<asrwt>0</asrwt>
<pdfrwt beam="1">  1        1 0.15844034E+00 0.77992288E+03</pdfrwt>
<pdfrwt beam="2">  1       -2 0.13819417E+00 0.77992288E+03</pdfrwt>
<totfact> 0.47724606E+00</totfact>
</mgrwt>
</event>
<event>
12    3  0.2269558E-007  0.7737263E+03  0.7818608E-02  0.9598846E-01
         -2   -1    0    0    0  501 -0.00000000000E+00  0.00000000000E+00  0.50779923026E+03  0.50779923026E+03  0.00000000000E+00 0.  1.
          1   -1    0    0  501    0  0.00000000000E+00 -0.00000000000E+00 -0.12358790816E+04  0.12358790816E+04  0.00000000000E+00 0. -1.
        -24    2    1    2    0    0 -0.43480577535E+03  0.51134074926E+03 -0.40043824372E+03  0.78560462533E+03  0.79362561492E+02 0.  0.
    5000000    2    1    2    0    0  0.43480577535E+03 -0.51134074926E+03 -0.32764160757E+03  0.95807368649E+03  0.60002561746E+03 0.  0.
        -24    2    4    4    0    0  0.14363616603E+02 -0.45024690648E+03 -0.88230578193E+02  0.46395703001E+03  0.67401042205E+02 0.  0.
         24    2    4    4    0    0  0.42044215874E+03 -0.61093842782E+02 -0.23941102938E+03  0.49411665648E+03  0.79558549180E+02 0.  0.
         13    1    3    3    0    0 -0.25908573929E+03  0.28789169415E+03 -0.18675544922E+03  0.42998214577E+03  0.00000000000E+00 0. -1.
        -14    1    3    3    0    0 -0.17572003606E+03  0.22344905511E+03 -0.21368279450E+03  0.35562247956E+03  0.00000000000E+00 0.  1.
         13    1    5    5    0    0 -0.12196704061E+01 -0.95748455310E+02  0.86000463734E+01  0.96141640758E+02  0.00000000000E+00 0. -1.
        -14    1    5    5    0    0  0.15583287009E+02 -0.35449845117E+03 -0.96830624566E+02  0.36781538925E+03  0.00000000000E+00 0.  1.
          4    1    6    6  502    0  0.16217405321E+03 -0.14233301108E+02 -0.13550983809E+03  0.21181578462E+03  0.00000000000E+00 0. -1.
         -3    1    6    6    0  502  0.25826810554E+03 -0.46860541674E+02 -0.10390119129E+03  0.28230087186E+03  0.00000000000E+00 0.  1.
<mgrwt>
<rscale>  0 0.77372627E+03</rscale>
<asrwt>0</asrwt>
<pdfrwt beam="1">  1        1 0.19013524E+00 0.77372627E+03</pdfrwt>
<pdfrwt beam="2">  1       -2 0.78122960E-01 0.77372627E+03</pdfrwt>
<totfact> 0.13181679E+01</totfact>
</mgrwt>
</event>
<event>
12    3  0.2269558E-007  0.7338823E+03  0.7818608E-02  0.9660981E-01
          1   -1    0    0  501    0  0.00000000000E+00  0.00000000000E+00  0.11484413752E+04  0.11484413752E+04  0.00000000000E+00 0. -1.
         -2   -1    0    0    0  501 -0.00000000000E+00 -0.00000000000E+00 -0.69912174166E+03  0.69912174166E+03  0.00000000000E+00 0.  1.
        -24    2    1    2    0    0 -0.24252580585E+03 -0.55867767740E+03 -0.32441397023E+03  0.69445376719E+03  0.77987800063E+02 0.  0.
    5000000    2    1    2    0    0  0.24252580585E+03  0.55867767740E+03  0.77373360380E+03  0.11531093497E+04  0.60004830556E+03 0.  0.
        -24    2    4    4    0    0 -0.73711875731E+01  0.58657954551E+03  0.54490910101E+03  0.80411597414E+03  0.74475995382E+02 0.  0.
         24    2    4    4    0    0  0.24989699343E+03 -0.27901868106E+02  0.22882450279E+03  0.34899337557E+03  0.78795314240E+02 0.  0.
         11    1    5    5    0    0  0.29975892772E+02  0.26577644657E+03  0.22480177612E+03  0.34938733841E+03  0.00000000000E+00 0. -1.
        -12    1    5    5    0    0 -0.37347080345E+02  0.32080309894E+03  0.32010732489E+03  0.45472863573E+03  0.00000000000E+00 0.  1.
         13    1    3    3    0    0 -0.20491310698E+03 -0.38331334189E+03 -0.23223751634E+03  0.49280093697E+03  0.00000000000E+00 0. -1.
        -14    1    3    3    0    0 -0.37612698876E+02 -0.17536433551E+03 -0.92176453885E+02  0.20165283022E+03  0.00000000000E+00 0.  1.
          2    1    6    6  502    0  0.19285781109E+03  0.12767336625E+02  0.16228597018E+03  0.25237645751E+03  0.00000000000E+00 0. -1.
         -1    1    6    6    0  502  0.57039182332E+02 -0.40669204731E+02  0.66538532607E+02  0.96616918064E+02  0.00000000000E+00 0.  1.
<mgrwt>
<rscale>  0 0.73388230E+03</rscale>
<asrwt>0</asrwt>
<pdfrwt beam="1">  1        1 0.17668329E+00 0.73388230E+03</pdfrwt>
<pdfrwt beam="2">  1       -2 0.10755719E+00 0.73388230E+03</pdfrwt>
<totfact> 0.72997279E+00</totfact>
</mgrwt>
</event>
<event>
12    3  0.2269558E-007  0.1475940E+04  0.7818608E-02  0.8900612E-01
         -2   -1    0    0    0  501 -0.00000000000E+00  0.00000000000E+00  0.13742009114E+04  0.13742009114E+04  0.00000000000E+00 0.  1.
          1   -1    0    0  501    0  0.00000000000E+00 -0.00000000000E+00 -0.18452445471E+04  0.18452445471E+04  0.00000000000E+00 0. -1.
        -24    2    1    2    0    0  0.13321267695E+02  0.14315331280E+04  0.33210833689E+03  0.14717746848E+04  0.79751004586E+02 0.  0.
    5000000    2    1    2    0    0 -0.13321267695E+02 -0.14315331280E+04 -0.80315197261E+03  0.17476707736E+04  0.59986289200E+03 0.  0.
        -24    2    4    4    0    0  0.12919442585E+03 -0.71439373798E+02 -0.16302529489E+02  0.16785300483E+03  0.78192550566E+02 0.  0.
         24    2    4    4    0    0 -0.14251569354E+03 -0.13600937542E+04 -0.78684944312E+03  0.15798177688E+04  0.80786096479E+02 0.  0.
         11    1    3    3    0    0 -0.22306524476E+02  0.29283332135E+03  0.88957049259E+02  0.30685874884E+03  0.00000000000E+00 0. -1.
        -12    1    3    3    0    0  0.35627792171E+02  0.11386998066E+04  0.24315128763E+03  0.11649159360E+04  0.00000000000E+00 0.  1.
         13    1    5    5    0    0  0.68414116373E+02 -0.56644689046E+02 -0.44373866460E+02  0.99288227604E+02  0.00000000000E+00 0. -1.
        -14    1    5    5    0    0  0.60780309476E+02 -0.14794684753E+02  0.28071336971E+02  0.68564777227E+02  0.00000000000E+00 0.  1.
          4    1    6    6  502    0 -0.11419260290E+03 -0.10568127462E+04 -0.57225216071E+03  0.12072140103E+04  0.00000000000E+00 0. -1.
         -3    1    6    6    0  502 -0.28323090643E+02 -0.30328100795E+03 -0.21459728242E+03  0.37260375852E+03  0.00000000000E+00 0.  1.
<mgrwt>
<rscale>  0 0.14759397E+04</rscale>
<asrwt>0</asrwt>
<pdfrwt beam="1">  1        1 0.28388378E+00 0.14759397E+04</pdfrwt>
<pdfrwt beam="2">  1       -2 0.21141553E+00 0.14759397E+04</pdfrwt>
<totfact> 0.35229285E-01</totfact>
</mgrwt>
</event>
<event>
12    3  0.2269558E-007  0.5672606E+03  0.7818608E-02  0.9975759E-01
          1   -1    0    0  501    0  0.00000000000E+00  0.00000000000E+00  0.14687590861E+04  0.14687590861E+04  0.00000000000E+00 0. -1.
         -2   -1    0    0    0  501 -0.00000000000E+00 -0.00000000000E+00 -0.42207148412E+03  0.42207148412E+03  0.00000000000E+00 0.  1.
        -24    2    1    2    0    0  0.14185706905E+03 -0.38688143159E+03  0.10838877644E+04  0.11619480595E+04  0.74228949076E+02 0.  0.
    5000000    2    1    2    0    0 -0.14185706905E+03  0.38688143159E+03 -0.37200162445E+02  0.72888251075E+03  0.60007098934E+03 0.  0.
        -24    2    4    4    0    0 -0.36243858275E+03  0.17688079350E+03 -0.67921693803E+01  0.41248731471E+03  0.86319811503E+02 0.  0.
         24    2    4    4    0    0  0.22058151370E+03  0.21000063809E+03 -0.30407993065E+02  0.31639519604E+03  0.80154861674E+02 0.  0.
         11    1    3    3    0    0  0.34581759466E+02 -0.48204281630E+02  0.10518969426E+03  0.12076598293E+03  0.00000000000E+00 0. -1.
        -12    1    3    3    0    0  0.10727530958E+03 -0.33867714996E+03  0.97869807017E+03  0.10411820765E+04  0.00000000000E+00 0.  1.
         11    1    5    5    0    0 -0.28715074083E+03  0.98909898629E+02 -0.12336301318E+02  0.30395871486E+03  0.00000000000E+00 0. -1.
        -12    1    5    5    0    0 -0.75287841919E+02  0.77970894869E+02  0.55441319378E+01  0.10852859985E+03  0.00000000000E+00 0.  1.
          2    1    6    6  502    0  0.71245586815E+02  0.40558210629E+02  0.21280073028E+02  0.84697955099E+02  0.00000000000E+00 0. -1.
         -1    1    6    6    0  502  0.14933592689E+03  0.16944242746E+03 -0.51688066092E+02  0.23169724094E+03  0.00000000000E+00 0.  1.
<mgrwt>
<rscale>  0 0.56726055E+03</rscale>
<asrwt>0</asrwt>
<pdfrwt beam="1">  1        1 0.22596293E+00 0.56726055E+03</pdfrwt>
<pdfrwt beam="2">  1       -2 0.64934075E-01 0.56726055E+03</pdfrwt>
<totfact> 0.13985146E+01</totfact>
</mgrwt>
</event>
<event>
12    3  0.2269558E-007  0.1053249E+04  0.7818608E-02  0.9251997E-01
          1   -1    0    0  501    0  0.00000000000E+00  0.00000000000E+00  0.29919897136E+04  0.29919897136E+04  0.00000000000E+00 0. -1.
         -2   -1    0    0    0  501 -0.00000000000E+00 -0.00000000000E+00 -0.54793624763E+03  0.54793624763E+03  0.00000000000E+00 0.  1.
        -24    2    1    2    0    0  0.10207429757E+04  0.74875372352E+02  0.26708212022E+03  0.10606529485E+04  0.78289683144E+02 0.  0.
    5000000    2    1    2    0    0 -0.10207429757E+04 -0.74875372352E+02  0.21769713457E+04  0.24792730127E+04  0.60005657023E+03 0.  0.
        -24    2    4    4    0    0 -0.59475339737E+03  0.11426894089E+03  0.70644371748E+03  0.93418899466E+03  0.82809161546E+02 0.  0.
         24    2    4    4    0    0 -0.42598957831E+03 -0.18914431324E+03  0.14705276282E+04  0.15450840180E+04  0.87123046495E+02 0.  0.
         13    1    3    3    0    0  0.50143148780E+03  0.37064504045E+02  0.90779821102E+02  0.51092885056E+03  0.00000000000E+00 0. -1.
        -14    1    3    3    0    0  0.51931148789E+03  0.37810868307E+02  0.17630229912E+03  0.54972409797E+03  0.00000000000E+00 0.  1.
         13    1    5    5    0    0 -0.20352367641E+03  0.65680255484E+01  0.27105958198E+03  0.33902554890E+03  0.00000000000E+00 0. -1.
        -14    1    5    5    0    0 -0.39122972097E+03  0.10770091534E+03  0.43538413549E+03  0.59516344576E+03  0.00000000000E+00 0.  1.
          4    1    6    6  502    0 -0.26508781366E+03 -0.72373162042E+02  0.89023262681E+03  0.93167781629E+03  0.00000000000E+00 0. -1.
         -1    1    6    6    0  502 -0.16090176465E+03 -0.11677115120E+03  0.58029500144E+03  0.61340620173E+03  0.00000000000E+00 0.  1.
<mgrwt>
<rscale>  0 0.10532486E+04</rscale>
<asrwt>0</asrwt>
<pdfrwt beam="1">  1        1 0.46030610E+00 0.10532486E+04</pdfrwt>
<pdfrwt beam="2">  1       -2 0.84297886E-01 0.10532486E+04</pdfrwt>
<totfact> 0.66295348E-01</totfact>
</mgrwt>
</event>
<event>
12    3  0.2269558E-007  0.3034229E+03  0.7818608E-02  0.1083542E+00
         -2   -1    0    0    0  501 -0.00000000000E+00  0.00000000000E+00  0.13948424954E+03  0.13948424954E+03  0.00000000000E+00 0.  1.
          1   -1    0    0  501    0  0.00000000000E+00 -0.00000000000E+00 -0.13080575317E+04  0.13080575317E+04  0.00000000000E+00 0. -1.
        -24    2    1    2    0    0  0.41449763536E+02  0.15066220788E+03 -0.75835427281E+02  0.19120622001E+03  0.79947625099E+02 0.  0.
    5000000    2    1    2    0    0 -0.41449763536E+02 -0.15066220788E+03 -0.10927378548E+04  0.12563355612E+04  0.59990485841E+03 0.  0.
        -24    2    4    4    0    0 -0.19285819037E+03 -0.20663930866E+03 -0.10223553382E+04  0.10636141097E+04  0.78552219470E+02 0.  0.
         24    2    4    4    0    0  0.15140842684E+03  0.55977100780E+02 -0.70382516590E+02  0.19272145152E+03  0.78293752654E+02 0.  0.
         11    1    3    3    0    0  0.16693312028E+02  0.53149977686E+02 -0.71319807391E+02  0.90499180774E+02  0.00000000000E+00 0. -1.
        -12    1    3    3    0    0  0.24756451509E+02  0.97512230190E+02 -0.45156198893E+01  0.10070703923E+03  0.00000000000E+00 0.  1.
         13    1    5    5    0    0 -0.83926519252E+02 -0.84517123107E+02 -0.57648944328E+03  0.58866534036E+03  0.00000000000E+00 0. -1.
        -14    1    5    5    0    0 -0.10893167112E+03 -0.12212218555E+03 -0.44586589496E+03  0.47494876931E+03  0.00000000000E+00 0.  1.
          2    1    6    6  502    0  0.14081162854E+03  0.36281481176E+02 -0.82603279156E+02  0.16723505115E+03  0.00000000000E+00 0. -1.
         -1    1    6    6    0  502  0.10596798302E+02  0.19695619604E+02  0.12220762566E+02  0.25486400364E+02  0.00000000000E+00 0.  1.
<mgrwt>
<rscale>  0 0.30342288E+03</rscale>
<asrwt>0</asrwt>
<pdfrwt beam="1">  1        1 0.20123962E+00 0.30342288E+03</pdfrwt>
<pdfrwt beam="2">  1       -2 0.21459115E-01 0.30342288E+03</pdfrwt>
<totfact> 0.15787306E+02</totfact>
</mgrwt>
</event>
<event>
12    3  0.2269558E-007  0.6024322E+03  0.7818608E-02  0.9900373E-01
          1   -1    0    0  501    0  0.00000000000E+00  0.00000000000E+00  0.16234308702E+04  0.16234308702E+04  0.00000000000E+00 0. -1.
         -2   -1    0    0    0  501 -0.00000000000E+00 -0.00000000000E+00 -0.27760514900E+03  0.27760514900E+03  0.00000000000E+00 0.  1.
        -24    2    1    2    0    0  0.13212486167E+03 -0.46237244340E+03  0.87375253231E+03  0.99874956382E+03  0.53027804194E+02 0.  0.
    5000000    2    1    2    0    0 -0.13212486167E+03  0.46237244340E+03  0.47207318885E+03  0.90228645534E+03  0.60001874668E+03 0.  0.
        -24    2    4    4    0    0 -0.16229166311E+03 -0.76124658267E+02  0.22761358076E+03  0.30269606588E+03  0.87655111874E+02 0.  0.
         24    2    4    4    0    0  0.30166801440E+02  0.53849710167E+03  0.24445960809E+03  0.59959038946E+03  0.94122105441E+02 0.  0.
         11    1    3    3    0    0  0.71708092921E+02 -0.21784493102E+03  0.36528101925E+03  0.43131043065E+03  0.00000000000E+00 0. -1.
        -12    1    3    3    0    0  0.60416768747E+02 -0.24452751238E+03  0.50847151306E+03  0.56743913317E+03  0.00000000000E+00 0.  1.
         11    1    5    5    0    0 -0.79024240573E+02 -0.16046251464E+02  0.16167435278E+03  0.18066795269E+03  0.00000000000E+00 0. -1.
        -12    1    5    5    0    0 -0.83267422535E+02 -0.60078406803E+02  0.65939227988E+02  0.12202811318E+03  0.00000000000E+00 0.  1.
          2    1    6    6  502    0  0.36633898431E+02  0.39915012844E+03  0.22229788338E+03  0.45834399363E+03  0.00000000000E+00 0. -1.
         -1    1    6    6    0  502 -0.64670969908E+01  0.13934697323E+03  0.22161724712E+02  0.14124639583E+03  0.00000000000E+00 0.  1.
<mgrwt>
<rscale>  0 0.60243219E+03</rscale>
<asrwt>0</asrwt>
<pdfrwt beam="1">  1        1 0.24975859E+00 0.60243219E+03</pdfrwt>
<pdfrwt beam="2">  1       -2 0.42708486E-01 0.60243219E+03</pdfrwt>
<totfact> 0.25799821E+01</totfact>
</mgrwt>
</event>
<event>
12    3  0.2269558E-007  0.6507580E+03  0.7818608E-02  0.9805358E-01
          1   -1    0    0  501    0  0.00000000000E+00  0.00000000000E+00  0.18030521703E+04  0.18030521703E+04  0.00000000000E+00 0. -1.
         -2   -1    0    0    0  501 -0.00000000000E+00 -0.00000000000E+00 -0.25583740478E+03  0.25583740478E+03  0.00000000000E+00 0.  1.
        -24    2    1    2    0    0 -0.35441863658E+03 -0.39709846638E+03  0.46154671908E+03  0.70903361403E+03  0.80022059342E+02 0.  0.
    5000000    2    1    2    0    0  0.35441863658E+03  0.39709846638E+03  0.10856680465E+04  0.13498559611E+04  0.60011352806E+03 0.  0.
        -24    2    4    4    0    0 -0.13865961706E+03  0.35265456457E+02  0.37106932665E+03  0.40574022940E+03  0.80389966719E+02 0.  0.
         24    2    4    4    0    0  0.49307825364E+03  0.36183300993E+03  0.71459871981E+03  0.94411573167E+03  0.81571399024E+02 0.  0.
         11    1    5    5    0    0 -0.12234814126E+03  0.12611036450E+02  0.21940915879E+03  0.25153227402E+03  0.00000000000E+00 0. -1.
        -12    1    5    5    0    0 -0.16311475805E+02  0.22654420008E+02  0.15166016786E+03  0.15420795539E+03  0.00000000000E+00 0.  1.
         11    1    3    3    0    0 -0.20634435275E+03 -0.17768191551E+03  0.25798737371E+03  0.37510843766E+03  0.00000000000E+00 0. -1.
        -12    1    3    3    0    0 -0.14807428382E+03 -0.21941655088E+03  0.20355934536E+03  0.33392517637E+03  0.00000000000E+00 0.  1.
          2    1    6    6  502    0  0.43910177311E+03  0.34009411777E+03  0.61425537832E+03  0.82812079185E+03  0.00000000000E+00 0. -1.
         -1    1    6    6    0  502  0.53976480534E+02  0.21738892153E+02  0.10034334149E+03  0.11599493982E+03  0.00000000000E+00 0.  1.
<mgrwt>
<rscale>  0 0.65075800E+03</rscale>
<asrwt>0</asrwt>
<pdfrwt beam="1">  1        1 0.27739263E+00 0.65075800E+03</pdfrwt>
<pdfrwt beam="2">  1       -2 0.39359602E-01 0.65075800E+03</pdfrwt>
<totfact> 0.22780152E+01</totfact>
</mgrwt>
</event>
<event>
12    3  0.2269558E-007  0.4827384E+03  0.7818608E-02  0.1018385E+00
         -2   -1    0    0    0  501 -0.00000000000E+00  0.00000000000E+00  0.24878688413E+03  0.24878688413E+03  0.00000000000E+00 0.  1.
          1   -1    0    0  501    0  0.00000000000E+00 -0.00000000000E+00 -0.12021660930E+04  0.12021660930E+04  0.00000000000E+00 0. -1.
        -24    2    1    2    0    0  0.22615927204E+03 -0.22881325653E+03 -0.75502159536E+02  0.34002837719E+03  0.80094934349E+02 0.  0.
    5000000    2    1    2    0    0 -0.22615927204E+03  0.22881325653E+03 -0.87787704934E+03  0.11109245999E+04  0.59998485838E+03 0.  0.
        -24    2    4    4    0    0 -0.35887964910E+02  0.38687328900E+03 -0.66551642713E+03  0.77525245543E+03  0.84530273361E+02 0.  0.
         24    2    4    4    0    0 -0.19027130713E+03 -0.15806003247E+03 -0.21236062221E+03  0.33567214450E+03  0.79953802574E+02 0.  0.
         11    1    5    5    0    0  0.17964859518E+02  0.20510157505E+03 -0.38659865550E+03  0.43800446653E+03  0.00000000000E+00 0. -1.
        -12    1    5    5    0    0 -0.53852824428E+02  0.18177171395E+03 -0.27891777163E+03  0.33724798890E+03  0.00000000000E+00 0.  1.
         13    1    3    3    0    0  0.17741598958E+03 -0.19008432299E+03 -0.91677730175E+02  0.27570507688E+03  0.00000000000E+00 0. -1.
        -14    1    3    3    0    0  0.48743282462E+02 -0.38728933542E+02  0.16175570639E+02  0.64323300319E+02  0.00000000000E+00 0.  1.
          2    1    6    6  502    0 -0.15675772766E+03 -0.13673490794E+03 -0.21045015955E+03  0.29590317654E+03  0.00000000000E+00 0. -1.
         -1    1    6    6    0  502 -0.33513579477E+02 -0.21325124528E+02 -0.19104626622E+01  0.39768967966E+02  0.00000000000E+00 0.  1.
<mgrwt>
<rscale>  0 0.48273840E+03</rscale>
<asrwt>0</asrwt>
<pdfrwt beam="1">  1        1 0.18494863E+00 0.48273840E+03</pdfrwt>
<pdfrwt beam="2">  1       -2 0.38274905E-01 0.48273840E+03</pdfrwt>
<totfact> 0.63369394E+01</totfact>
</mgrwt>
</event>
<event>
12    3  0.2269558E-007  0.8701360E+03  0.7818608E-02  0.9463703E-01
         -2   -1    0    0    0  501 -0.00000000000E+00  0.00000000000E+00  0.34621924021E+03  0.34621924021E+03  0.00000000000E+00 0.  1.
          1   -1    0    0  501    0  0.00000000000E+00 -0.00000000000E+00 -0.29289777509E+04  0.29289777509E+04  0.00000000000E+00 0. -1.
        -24    2    1    2    0    0  0.82779807063E+03 -0.10413269648E+03 -0.17921850741E+04  0.19785918016E+04  0.82491897121E+02 0.  0.
    5000000    2    1    2    0    0 -0.82779807063E+03  0.10413269648E+03 -0.79057343653E+03  0.12966051895E+04  0.60007115805E+03 0.  0.
        -24    2    4    4    0    0 -0.48448063402E+03 -0.97279689158E+02 -0.12325551004E+03  0.51550791274E+03  0.79822707766E+02 0.  0.
         24    2    4    4    0    0 -0.34331743661E+03  0.20141238564E+03 -0.66731792649E+03  0.78109727678E+03  0.79786774645E+02 0.  0.
         11    1    5    5    0    0 -0.11545642552E+03 -0.35272734911E+01 -0.66604265252E+00  0.11551221349E+03  0.00000000000E+00 0. -1.
        -12    1    5    5    0    0 -0.36902420850E+03 -0.93752415667E+02 -0.12258946739E+03  0.39999569925E+03  0.00000000000E+00 0.  1.
         11    1    3    3    0    0  0.68561505482E+03 -0.11723396423E+03 -0.14940716258E+04  0.16480478843E+04  0.00000000000E+00 0. -1.
        -12    1    3    3    0    0  0.14218301581E+03  0.13101267743E+02 -0.29811344830E+03  0.33054391729E+03  0.00000000000E+00 0.  1.
          2    1    6    6  502    0 -0.10264638110E+03  0.10370668094E+03 -0.25437965488E+03  0.29325818665E+03  0.00000000000E+00 0. -1.
         -1    1    6    6    0  502 -0.24067105551E+03  0.97705704699E+02 -0.41293827161E+03  0.48783909012E+03  0.00000000000E+00 0.  1.
<mgrwt>
<rscale>  0 0.87013602E+03</rscale>
<asrwt>0</asrwt>
<pdfrwt beam="1">  1        1 0.45061197E+00 0.87013602E+03</pdfrwt>
<pdfrwt beam="2">  1       -2 0.53264498E-01 0.87013602E+03</pdfrwt>
<totfact> 0.20526793E+00</totfact>
</mgrwt>
</event>
<event>
12    3  0.2269558E-007  0.6626247E+03  0.7818608E-02  0.9783374E-01
         -2   -1    0    0    0  501 -0.00000000000E+00  0.00000000000E+00  0.99882886838E+03  0.99882886838E+03  0.00000000000E+00 0.  1.
          1   -1    0    0  501    0  0.00000000000E+00 -0.00000000000E+00 -0.64711138143E+03  0.64711138143E+03  0.00000000000E+00 0. -1.
        -24    2    1    2    0    0 -0.31941056393E+03 -0.42115635756E+03 -0.30122001369E+03  0.61359171380E+03  0.79784138398E+02 0.  0.
    5000000    2    1    2    0    0  0.31941056393E+03  0.42115635756E+03  0.65293750064E+03  0.10323485360E+04  0.60001694493E+03 0.  0.
        -24    2    4    4    0    0 -0.14094762557E+03  0.25720471254E+03  0.28228853134E+03  0.41524877039E+03  0.82001396810E+02 0.  0.
         24    2    4    4    0    0  0.46035818949E+03  0.16395164502E+03  0.37064896930E+03  0.61709976562E+03  0.67982775397E+02 0.  0.
         11    1    3    3    0    0 -0.96742287249E+02 -0.17843371638E+03 -0.88075684487E+02  0.22125773994E+03  0.00000000000E+00 0. -1.
        -12    1    3    3    0    0 -0.22266827668E+03 -0.24272264118E+03 -0.21314432920E+03  0.39233397386E+03  0.00000000000E+00 0.  1.
         11    1    5    5    0    0 -0.11901426022E+02 -0.37756580394E+01  0.18861701396E+02  0.22619976007E+02  0.00000000000E+00 0. -1.
        -12    1    5    5    0    0 -0.12904619954E+03  0.26098037058E+03  0.26342682994E+03  0.39262879438E+03  0.00000000000E+00 0.  1.
          2    1    6    6  502    0  0.19162834113E+03  0.55809752639E+02  0.19091602001E+03  0.27619753133E+03  0.00000000000E+00 0. -1.
         -1    1    6    6    0  502  0.26872984836E+03  0.10814189238E+03  0.17973294929E+03  0.34090223429E+03  0.00000000000E+00 0.  1.
<mgrwt>
<rscale>  0 0.66262470E+03</rscale>
<asrwt>0</asrwt>
<pdfrwt beam="1">  1        1 0.99555597E-01 0.66262470E+03</pdfrwt>
<pdfrwt beam="2">  1       -2 0.15366598E+00 0.66262470E+03</pdfrwt>
<totfact> 0.77865353E+00</totfact>
</mgrwt>
</event>
<event>
12    3  0.2269558E-007  0.1247542E+04  0.7818608E-02  0.9072231E-01
          1   -1    0    0  501    0  0.00000000000E+00  0.00000000000E+00  0.20985052060E+04  0.20985052060E+04  0.00000000000E+00 0. -1.
         -2   -1    0    0    0  501 -0.00000000000E+00 -0.00000000000E+00 -0.85173029531E+03  0.85173029531E+03  0.00000000000E+00 0.  1.
        -24    2    1    2    0    0 -0.52774406399E+03 -0.11142402981E+04  0.26462920163E+03  0.12637307620E+04  0.83316178062E+02 0.  0.
    5000000    2    1    2    0    0  0.52774406399E+03  0.11142402981E+04  0.98214570911E+03  0.16865047394E+04  0.59970226197E+03 0.  0.
        -24    2    4    4    0    0  0.12283693274E+03  0.11564791297E+03  0.44094265109E+03  0.47862610149E+03  0.78671288647E+02 0.  0.
         24    2    4    4    0    0  0.40490713125E+03  0.99859238511E+03  0.54120305802E+03  0.12078786379E+04  0.70239001041E+02 0.  0.
         11    1    5    5    0    0 -0.28565907023E+01  0.28879488255E+02  0.11604988614E+03  0.11962341337E+03  0.00000000000E+00 0. -1.
        -12    1    5    5    0    0  0.12569352344E+03  0.86768424717E+02  0.32489276495E+03  0.35900268813E+03  0.00000000000E+00 0.  1.
         11    1    3    3    0    0 -0.10689472602E+03 -0.31093223367E+03  0.75272404558E+02  0.33729997224E+03  0.00000000000E+00 0. -1.
        -12    1    3    3    0    0 -0.42084933797E+03 -0.80330806441E+03  0.18935679707E+03  0.92643078976E+03  0.00000000000E+00 0.  1.
          4    1    6    6  502    0  0.23742821365E+03  0.56589673215E+03  0.34605848452E+03  0.70453370594E+03  0.00000000000E+00 0. -1.
         -3    1    6    6    0  502  0.16747891760E+03  0.43269565296E+03  0.19514457349E+03  0.50334493192E+03  0.00000000000E+00 0.  1.
<mgrwt>
<rscale>  0 0.12475422E+04</rscale>
<asrwt>0</asrwt>
<pdfrwt beam="1">  1        1 0.32284695E+00 0.12475422E+04</pdfrwt>
<pdfrwt beam="2">  1       -2 0.13103543E+00 0.12475422E+04</pdfrwt>
<totfact> 0.92942182E-01</totfact>
</mgrwt>
</event>
<event>
12    3  0.2269558E-007  0.4619133E+03  0.7818608E-02  0.1024228E+00
          1   -1    0    0  501    0  0.00000000000E+00  0.00000000000E+00  0.79931740151E+03  0.79931740151E+03  0.00000000000E+00 0. -1.
         -2   -1    0    0    0  501 -0.00000000000E+00 -0.00000000000E+00 -0.54337574616E+03  0.54337574616E+03  0.00000000000E+00 0.  1.
        -24    2    1    2    0    0  0.18580808741E+02  0.28031084959E+03  0.54622093640E+03  0.61928906402E+03  0.79007687025E+02 0.  0.
    5000000    2    1    2    0    0 -0.18580808741E+02 -0.28031084959E+03 -0.29027928105E+03  0.72340408364E+03  0.60010998024E+03 0.  0.
        -24    2    4    4    0    0  0.70156951541E+02 -0.42953173726E+03 -0.99516459982E+02  0.45355387718E+03  0.79925481084E+02 0.  0.
         24    2    4    4    0    0 -0.88737760282E+02  0.14922088768E+03 -0.19076282106E+03  0.26985020647E+03  0.79293231812E+02 0.  0.
         11    1    3    3    0    0  0.44815361369E+02  0.22966122203E+03  0.45638374685E+03  0.51287310117E+03  0.00000000000E+00 0. -1.
        -12    1    3    3    0    0 -0.26234552627E+02  0.50649627553E+02  0.89837189553E+02  0.10641596285E+03  0.00000000000E+00 0.  1.
         11    1    5    5    0    0 -0.26869707737E+01 -0.23070165810E+03 -0.49230622263E+02  0.23591127364E+03  0.00000000000E+00 0. -1.
        -12    1    5    5    0    0  0.72843922314E+02 -0.19883007917E+03 -0.50285837719E+02  0.21764260354E+03  0.00000000000E+00 0.  1.
          4    1    6    6  502    0 -0.75335858936E+02  0.50500870988E+02 -0.80790628993E+02  0.12146174437E+03  0.00000000000E+00 0. -1.
         -3    1    6    6    0  502 -0.13401901346E+02  0.98720016691E+02 -0.10997219207E+03  0.14838846210E+03  0.00000000000E+00 0.  1.
<mgrwt>
<rscale>  0 0.46191327E+03</rscale>
<asrwt>0</asrwt>
<pdfrwt beam="1">  1        1 0.12297191E+00 0.46191327E+03</pdfrwt>
<pdfrwt beam="2">  1       -2 0.83596268E-01 0.46191327E+03</pdfrwt>
<totfact> 0.25639246E+01</totfact>
</mgrwt>
</event>
<event>
12    3  0.2269558E-007  0.7389695E+03  0.7818608E-02  0.9652816E-01
         -2   -1    0    0    0  501 -0.00000000000E+00  0.00000000000E+00  0.55977976470E+03  0.55977976470E+03  0.00000000000E+00 0.  1.
          1   -1    0    0  501    0  0.00000000000E+00 -0.00000000000E+00 -0.12041645423E+04  0.12041645423E+04  0.00000000000E+00 0. -1.
        -24    2    1    2    0    0 -0.63598860703E+03 -0.24919051113E+03 -0.48501170042E+03  0.84078709162E+03  0.71478421822E+02 0.  0.
    5000000    2    1    2    0    0  0.63598860703E+03  0.24919051113E+03 -0.15937307718E+03  0.92315721538E+03  0.60020167232E+03 0.  0.
        -24    2    4    4    0    0  0.54838420685E+02  0.18461594138E+03  0.15114294717E+03  0.25616347362E+03  0.75400507610E+02 0.  0.
         24    2    4    4    0    0  0.58115018634E+03  0.64574569757E+02 -0.31051602435E+03  0.66699374175E+03  0.80963176886E+02 0.  0.
         11    1    3    3    0    0 -0.32910258991E+03 -0.15845667844E+03 -0.28627750720E+03  0.46408172206E+03  0.00000000000E+00 0. -1.
        -12    1    3    3    0    0 -0.30688601712E+03 -0.90733832693E+02 -0.19873419323E+03  0.37670536956E+03  0.00000000000E+00 0.  1.
         13    1    5    5    0    0 -0.18172550646E+02  0.53599758175E+02  0.35986402097E+02  0.67068597788E+02  0.00000000000E+00 0. -1.
        -14    1    5    5    0    0  0.73010971331E+02  0.13101618320E+03  0.11515654507E+03  0.18909487584E+03  0.00000000000E+00 0.  1.
          4    1    6    6  502    0  0.36318932681E+03  0.20961608096E+02 -0.23090272701E+03  0.43088507222E+03  0.00000000000E+00 0. -1.
         -3    1    6    6    0  502  0.21796085954E+03  0.43612961661E+02 -0.79613297335E+02  0.23610866953E+03  0.00000000000E+00 0.  1.
<mgrwt>
<rscale>  0 0.73896953E+03</rscale>
<asrwt>0</asrwt>
<pdfrwt beam="1">  1        1 0.18525608E+00 0.73896953E+03</pdfrwt>
<pdfrwt beam="2">  1       -2 0.86119965E-01 0.73896953E+03</pdfrwt>
<totfact> 0.11193273E+01</totfact>
</mgrwt>
</event>
<event>
12    3  0.2269558E-007  0.8535977E+03  0.7818608E-02  0.9485521E-01
         -2   -1    0    0    0  501 -0.00000000000E+00  0.00000000000E+00  0.14510549044E+04  0.14510549044E+04  0.00000000000E+00 0.  1.
          1   -1    0    0  501    0  0.00000000000E+00 -0.00000000000E+00 -0.72088965108E+03  0.72088965108E+03  0.00000000000E+00 0. -1.
        -24    2    1    2    0    0  0.77535239297E+03  0.12232385609E+03  0.87028453131E+03  0.11743678516E+04  0.74901443734E+02 0.  0.
    5000000    2    1    2    0    0 -0.77535239297E+03 -0.12232385609E+03 -0.14011927799E+03  0.99757670393E+03  0.59949262640E+03 0.  0.
        -24    2    4    4    0    0 -0.79519525881E+03 -0.10126015820E+02 -0.22947718162E+03  0.83175611383E+03  0.81978168977E+02 0.  0.
         24    2    4    4    0    0  0.19842865844E+02 -0.11219784027E+03  0.89357903631E+02  0.16582059009E+03  0.80805559655E+02 0.  0.
         11    1    3    3    0    0  0.28226365795E+03  0.36889557182E+02  0.26412612285E+03  0.38832489078E+03  0.00000000000E+00 0. -1.
        -12    1    3    3    0    0  0.49308873502E+03  0.85434298910E+02  0.60615840847E+03  0.78604296078E+03  0.00000000000E+00 0.  1.
         13    1    5    5    0    0 -0.54405127988E+03  0.15748755615E+02 -0.12455608038E+03  0.55834938489E+03  0.00000000000E+00 0. -1.
        -14    1    5    5    0    0 -0.25114397893E+03 -0.25874771435E+02 -0.10492110124E+03  0.27340672895E+03  0.00000000000E+00 0.  1.
          4    1    6    6  502    0  0.29852754340E+02 -0.29251202097E+02  0.67614331309E+02  0.79489103430E+02  0.00000000000E+00 0. -1.
         -3    1    6    6    0  502 -0.10009888496E+02 -0.82946638174E+02  0.21743572322E+02  0.86331486663E+02  0.00000000000E+00 0.  1.
<mgrwt>
<rscale>  0 0.85359766E+03</rscale>
<asrwt>0</asrwt>
<pdfrwt beam="1">  1        1 0.11090610E+00 0.85359766E+03</pdfrwt>
<pdfrwt beam="2">  1       -2 0.22323922E+00 0.85359766E+03</pdfrwt>
<totfact> 0.21876185E+00</totfact>
</mgrwt>
</event>
<event>
12    3  0.2269558E-007  0.9676262E+03  0.7818608E-02  0.9344782E-01
         -2   -1    0    0    0  501 -0.00000000000E+00  0.00000000000E+00  0.23246185329E+04  0.23246185329E+04  0.00000000000E+00 0.  1.
          1   -1    0    0  501    0  0.00000000000E+00 -0.00000000000E+00 -0.58880868658E+03  0.58880868658E+03  0.00000000000E+00 0. -1.
        -24    2    1    2    0    0  0.42013473200E+03 -0.77956288935E+03  0.16064466533E+04  0.18360179046E+04  0.77842178777E+02 0.  0.
    5000000    2    1    2    0    0 -0.42013473200E+03  0.77956288935E+03  0.12936319298E+03  0.10774093148E+04  0.59987040635E+03 0.  0.
        -24    2    4    4    0    0 -0.35511545040E+03  0.86464881846E+03  0.74347509174E+02  0.94132007301E+03  0.82652074099E+02 0.  0.
         24    2    4    4    0    0 -0.65019281606E+02 -0.85085929105E+02  0.55015683802E+02  0.13608924179E+03  0.63454187839E+02 0.  0.
         11    1    3    3    0    0  0.29109179154E+03 -0.53911285403E+03  0.10347826581E+04  0.12025607054E+04  0.00000000000E+00 0. -1.
        -12    1    3    3    0    0  0.12904294046E+03 -0.24045003532E+03  0.57166399516E+03  0.63345719929E+03  0.00000000000E+00 0.  1.
         13    1    5    5    0    0 -0.96795143010E+02  0.22777319851E+03 -0.16677341237E+02  0.24804851013E+03  0.00000000000E+00 0. -1.
        -14    1    5    5    0    0 -0.25832030739E+03  0.63687561995E+03  0.91024850411E+02  0.69327156287E+03  0.00000000000E+00 0.  1.
          4    1    6    6  502    0 -0.43718621424E+02 -0.23233633692E+02 -0.16583323265E+01  0.49536548728E+02  0.00000000000E+00 0. -1.
         -3    1    6    6    0  502 -0.21300660182E+02 -0.61852295413E+02  0.56674016128E+02  0.86552693061E+02  0.00000000000E+00 0.  1.
<mgrwt>
<rscale>  0 0.96762615E+03</rscale>
<asrwt>0</asrwt>
<pdfrwt beam="1">  1        1 0.90585953E-01 0.96762615E+03</pdfrwt>
<pdfrwt beam="2">  1       -2 0.35763361E+00 0.96762615E+03</pdfrwt>
<totfact> 0.43901881E-01</totfact>
</mgrwt>
</event>
<event>
12    3  0.2269558E-007  0.7560336E+03  0.7818608E-02  0.9625932E-01
         -2   -1    0    0    0  501 -0.00000000000E+00  0.00000000000E+00  0.68299590943E+03  0.68299590943E+03  0.00000000000E+00 0.  1.
          1   -1    0    0  501    0  0.00000000000E+00 -0.00000000000E+00 -0.11495804366E+04  0.11495804366E+04  0.00000000000E+00 0. -1.
        -24    2    1    2    0    0 -0.55660953611E+03 -0.35038907221E+03 -0.64505212032E+03  0.92450966948E+03  0.77712376280E+02 0.  0.
    5000000    2    1    2    0    0  0.55660953611E+03  0.35038907221E+03  0.17846759312E+03  0.90806667659E+03  0.60012309548E+03 0.  0.
        -24    2    4    4    0    0 -0.33231695563E+02 -0.86372819385E+02 -0.53846379670E+02  0.13394170008E+03  0.80475691343E+02 0.  0.
         24    2    4    4    0    0  0.58984123167E+03  0.43676189159E+03  0.23231397279E+03  0.77412497651E+03  0.81400668214E+02 0.  0.
         11    1    3    3    0    0 -0.46626458277E+03 -0.29378313070E+03 -0.49728100997E+03  0.74229346751E+03  0.00000000000E+00 0. -1.
        -12    1    3    3    0    0 -0.90344953341E+02 -0.56605941506E+02 -0.14777111035E+03  0.18221620197E+03  0.00000000000E+00 0.  1.
         11    1    5    5    0    0 -0.56879939259E+02 -0.48840603453E+02 -0.18499111982E+02  0.77220134550E+02  0.00000000000E+00 0. -1.
        -12    1    5    5    0    0  0.23648243696E+02 -0.37532215932E+02 -0.35347267688E+02  0.56721565526E+02  0.00000000000E+00 0.  1.
          2    1    6    6  502    0  0.29317570335E+03  0.19236681391E+03  0.14806464491E+03  0.38063121679E+03  0.00000000000E+00 0. -1.
         -1    1    6    6    0  502  0.29666552832E+03  0.24439507768E+03  0.84249327881E+02  0.39349375972E+03  0.00000000000E+00 0.  1.
<mgrwt>
<rscale>  0 0.75603359E+03</rscale>
<asrwt>0</asrwt>
<pdfrwt beam="1">  1        1 0.17685853E+00 0.75603359E+03</pdfrwt>
<pdfrwt beam="2">  1       -2 0.10507629E+00 0.75603359E+03</pdfrwt>
<totfact> 0.76842710E+00</totfact>
</mgrwt>
</event>
<event>
12    3  0.2269558E-007  0.9177626E+03  0.7818608E-02  0.9403646E-01
         -2   -1    0    0    0  501 -0.00000000000E+00  0.00000000000E+00  0.13417194860E+04  0.13417194860E+04  0.00000000000E+00 0.  1.
          1   -1    0    0  501    0  0.00000000000E+00 -0.00000000000E+00 -0.11642541744E+04  0.11642541744E+04  0.00000000000E+00 0. -1.
        -24    2    1    2    0    0 -0.80913518008E+03  0.34966999341E+03  0.86463437669E+03  0.12373407042E+04  0.80315433520E+02 0.  0.
    5000000    2    1    2    0    0  0.80913518008E+03 -0.34966999341E+03 -0.68716906502E+03  0.12686329562E+04  0.60021613592E+03 0.  0.
        -24    2    4    4    0    0  0.14001682507E+03  0.68662396658E+02 -0.37955612096E+03  0.41772843873E+03  0.78198232352E+02 0.  0.
         24    2    4    4    0    0  0.66911835501E+03 -0.41833239006E+03 -0.30761294406E+03  0.85090451752E+03  0.81801057401E+02 0.  0.
         13    1    3    3    0    0 -0.23061044823E+03  0.10870626847E+03  0.30105425555E+03  0.39450208671E+03  0.00000000000E+00 0. -1.
        -14    1    3    3    0    0 -0.57852473185E+03  0.24096372494E+03  0.56358012115E+03  0.84283861744E+03  0.00000000000E+00 0.  1.
         13    1    5    5    0    0  0.27783611334E+02  0.34140766373E+02 -0.44072659480E+02  0.62289006261E+02  0.00000000000E+00 0. -1.
        -14    1    5    5    0    0  0.11223321374E+03  0.34521630285E+02 -0.33548346148E+03  0.35543943247E+03  0.00000000000E+00 0.  1.
          2    1    6    6  502    0  0.27845619672E+03 -0.13249759420E+03 -0.13974418992E+03  0.33855856890E+03  0.00000000000E+00 0. -1.
         -1    1    6    6    0  502  0.39066215829E+03 -0.28583479587E+03 -0.16786875414E+03  0.51234594862E+03  0.00000000000E+00 0.  1.
<mgrwt>
<rscale>  0 0.91776262E+03</rscale>
<asrwt>0</asrwt>
<pdfrwt beam="1">  1        1 0.17911603E+00 0.91776262E+03</pdfrwt>
<pdfrwt beam="2">  1       -2 0.20641838E+00 0.91776262E+03</pdfrwt>
<totfact> 0.12128758E+00</totfact>
</mgrwt>
</event>
<event>
12    3  0.2269558E-007  0.6510470E+03  0.7818608E-02  0.9804817E-01
         -2   -1    0    0    0  501 -0.00000000000E+00  0.00000000000E+00  0.25219742560E+03  0.25219742560E+03  0.00000000000E+00 0.  1.
          1   -1    0    0  501    0  0.00000000000E+00 -0.00000000000E+00 -0.21170132033E+04  0.21170132033E+04  0.00000000000E+00 0. -1.
        -24    2    1    2    0    0 -0.33273460040E+03  0.48223593746E+03 -0.53621109392E+03  0.79823472496E+03  0.79953268906E+02 0.  0.
    5000000    2    1    2    0    0  0.33273460040E+03 -0.48223593746E+03 -0.13286046838E+04  0.15709759039E+04  0.59959242098E+03 0.  0.
        -24    2    4    4    0    0  0.21470114185E+03 -0.11474862464E+02 -0.86360730091E+03  0.89348356372E+03  0.79164737643E+02 0.  0.
         24    2    4    4    0    0  0.11803345856E+03 -0.47076107500E+03 -0.46499738287E+03  0.67749234021E+03  0.85002458158E+02 0.  0.
         11    1    5    5    0    0  0.45476986309E+02  0.17028082062E+02 -0.10466232853E+03  0.11537900535E+03  0.00000000000E+00 0. -1.
        -12    1    5    5    0    0  0.16922415554E+03 -0.28502944526E+02 -0.75894497238E+03  0.77810455837E+03  0.00000000000E+00 0.  1.
         11    1    3    3    0    0 -0.20983363182E+03  0.36736523338E+03 -0.38049555420E+03  0.56900284227E+03  0.00000000000E+00 0. -1.
        -12    1    3    3    0    0 -0.12290096858E+03  0.11487070408E+03 -0.15571553972E+03  0.22923188269E+03  0.00000000000E+00 0.  1.
          2    1    6    6  502    0  0.12767752836E+03 -0.42062699630E+03 -0.39588876689E+03  0.59157124424E+03  0.00000000000E+00 0. -1.
         -1    1    6    6    0  502 -0.96440698027E+01 -0.50134078696E+02 -0.69108615984E+02  0.85921095968E+02  0.00000000000E+00 0.  1.
<mgrwt>
<rscale>  0 0.65104701E+03</rscale>
<asrwt>0</asrwt>
<pdfrwt beam="1">  1        1 0.32569435E+00 0.65104701E+03</pdfrwt>
<pdfrwt beam="2">  1       -2 0.38799603E-01 0.65104701E+03</pdfrwt>
<totfact> 0.14467250E+01</totfact>
</mgrwt>
</event>
<event>
12    3  0.2269558E-007  0.9252794E+03  0.7818608E-02  0.9394521E-01
          1   -1    0    0  501    0  0.00000000000E+00  0.00000000000E+00  0.56024277557E+03  0.56024277557E+03  0.00000000000E+00 0. -1.
         -2   -1    0    0    0  501 -0.00000000000E+00 -0.00000000000E+00 -0.15629770329E+04  0.15629770329E+04  0.00000000000E+00 0.  1.
        -24    2    1    2    0    0  0.64682783120E+03  0.53072732069E+03 -0.41580518959E+03  0.93801847834E+03  0.83228467986E+02 0.  0.
    5000000    2    1    2    0    0 -0.64682783120E+03 -0.53072732069E+03 -0.58692906775E+03  0.11852013301E+04  0.60013226063E+03 0.  0.
        -24    2    4    4    0    0 -0.42885857965E+03 -0.63719946986E+03 -0.47706483864E+03  0.90767331248E+03  0.79606131567E+02 0.  0.
         24    2    4    4    0    0 -0.21796925154E+03  0.10647214917E+03 -0.10986422911E+03  0.27752801766E+03  0.78132826529E+02 0.  0.
         13    1    3    3    0    0  0.51492718718E+03  0.38917781935E+03 -0.34592399640E+03  0.73230648942E+03  0.00000000000E+00 0. -1.
        -14    1    3    3    0    0  0.13190064402E+03  0.14154950135E+03 -0.69881193195E+02  0.20571198892E+03  0.00000000000E+00 0.  1.
         13    1    5    5    0    0 -0.13772485532E+03 -0.19573499434E+03 -0.19255587791E+03  0.30717761947E+03  0.00000000000E+00 0. -1.
        -14    1    5    5    0    0 -0.29113372433E+03 -0.44146447552E+03 -0.28450896073E+03  0.60049569302E+03  0.00000000000E+00 0.  1.
          4    1    6    6  502    0 -0.76873253075E+02  0.48753511379E+02 -0.82082276085E+02  0.12257202763E+03  0.00000000000E+00 0. -1.
         -3    1    6    6    0  502 -0.14109599847E+03  0.57718637791E+02 -0.27781953022E+02  0.15495599003E+03  0.00000000000E+00 0.  1.
<mgrwt>
<rscale>  0 0.92527936E+03</rscale>
<asrwt>0</asrwt>
<pdfrwt beam="1">  1        1 0.86191196E-01 0.92527936E+03</pdfrwt>
<pdfrwt beam="2">  1       -2 0.24045800E+00 0.92527936E+03</pdfrwt>
<totfact> 0.24596726E+00</totfact>
</mgrwt>
</event>
<event>
12    3  0.2269558E-007  0.5906001E+03  0.7818608E-02  0.9925102E-01
         -2   -1    0    0    0  501 -0.00000000000E+00  0.00000000000E+00  0.10114634232E+04  0.10114634232E+04  0.00000000000E+00 0.  1.
          1   -1    0    0  501    0  0.00000000000E+00 -0.00000000000E+00 -0.49295964787E+03  0.49295964787E+03  0.00000000000E+00 0. -1.
        -24    2    1    2    0    0 -0.41174614678E+03  0.15757051095E+03 -0.18047292475E+03  0.48317759258E+03  0.80788328940E+02 0.  0.
    5000000    2    1    2    0    0  0.41174614678E+03 -0.15757051095E+03  0.69897670010E+03  0.10212454785E+04  0.60000878728E+03 0.  0.
        -24    2    4    4    0    0  0.20432069361E+03 -0.37301224086E+03  0.36848268955E+03  0.56799686035E+03  0.77174239251E+02 0.  0.
         24    2    4    4    0    0  0.20742545317E+03  0.21544172991E+03  0.33049401055E+03  0.45324861817E+03  0.82265188578E+02 0.  0.
         13    1    5    5    0    0  0.75320098510E+02 -0.18000751812E+03  0.21144852149E+03  0.28772608687E+03  0.00000000000E+00 0. -1.
        -14    1    5    5    0    0  0.12900059510E+03 -0.19300472274E+03  0.15703416806E+03  0.28027077349E+03  0.00000000000E+00 0.  1.
         13    1    3    3    0    0 -0.17475467553E+03  0.27196304832E+02 -0.56760851816E+02  0.18574345187E+03  0.00000000000E+00 0. -1.
        -14    1    3    3    0    0 -0.23699147126E+03  0.13037420612E+03 -0.12371207293E+03  0.29743414070E+03  0.00000000000E+00 0.  1.
          2    1    6    6  502    0  0.33437584300E+02  0.77965210275E+02  0.62282293837E+02  0.10524129504E+03  0.00000000000E+00 0. -1.
         -1    1    6    6    0  502  0.17398786887E+03  0.13747651964E+03  0.26821171672E+03  0.34800732313E+03  0.00000000000E+00 0.  1.
<mgrwt>
<rscale>  0 0.59060006E+03</rscale>
<asrwt>0</asrwt>
<pdfrwt beam="1">  1        1 0.75839946E-01 0.59060006E+03</pdfrwt>
<pdfrwt beam="2">  1       -2 0.15560976E+00 0.59060006E+03</pdfrwt>
<totfact> 0.11153352E+01</totfact>
</mgrwt>
</event>
<event>
12    3  0.2269558E-007  0.1586491E+04  0.7818608E-02  0.8828890E-01
          1   -1    0    0  501    0  0.00000000000E+00  0.00000000000E+00  0.23506917286E+04  0.23506917286E+04  0.00000000000E+00 0. -1.
         -2   -1    0    0    0  501 -0.00000000000E+00 -0.00000000000E+00 -0.11933027747E+04  0.11933027747E+04  0.00000000000E+00 0.  1.
        -24    2    1    2    0    0  0.10964314993E+04  0.10992652599E+04  0.70936779918E+02  0.15562717281E+04  0.80022000378E+02 0.  0.
    5000000    2    1    2    0    0 -0.10964314993E+04 -0.10992652599E+04  0.10864521740E+04  0.19877227751E+04  0.60009779215E+03 0.  0.
        -24    2    4    4    0    0 -0.25386352489E+03 -0.28060903003E+02  0.45782290352E+02  0.27112654513E+03  0.78609680187E+02 0.  0.
         24    2    4    4    0    0 -0.84256797443E+03 -0.10712043569E+04  0.10406698836E+04  0.17165962300E+04  0.79430752305E+02 0.  0.
         13    1    3    3    0    0  0.11040223039E+03  0.14076546174E+03  0.22350397754E+02  0.18028618353E+03  0.00000000000E+00 0. -1.
        -14    1    3    3    0    0  0.98602926893E+03  0.95849979818E+03  0.48586382164E+02  0.13759855446E+04  0.00000000000E+00 0.  1.
         13    1    5    5    0    0 -0.89090818909E+02 -0.18452658905E+02 -0.20499311727E+02  0.93262513454E+02  0.00000000000E+00 0. -1.
        -14    1    5    5    0    0 -0.16477270598E+03 -0.96082440983E+01  0.66281602079E+02  0.17786403168E+03  0.00000000000E+00 0.  1.
          4    1    6    6  502    0 -0.78563587275E+03 -0.10039564780E+04  0.94754023629E+03  0.15883906426E+04  0.00000000000E+00 0. -1.
         -3    1    6    6    0  502 -0.56932101679E+02 -0.67247878940E+02  0.93129647318E+02  0.12820558737E+03  0.00000000000E+00 0.  1.
<mgrwt>
<rscale>  0 0.15864914E+04</rscale>
<asrwt>0</asrwt>
<pdfrwt beam="1">  1        1 0.36164488E+00 0.15864914E+04</pdfrwt>
<pdfrwt beam="2">  1       -2 0.18358504E+00 0.15864914E+04</pdfrwt>
<totfact> 0.24113029E-01</totfact>
</mgrwt>
</event>
<event>
12    3  0.2269558E-007  0.9703476E+03  0.7818608E-02  0.9341679E-01
         -2   -1    0    0    0  501 -0.00000000000E+00  0.00000000000E+00  0.76844720345E+03  0.76844720345E+03  0.00000000000E+00 0.  1.
          1   -1    0    0  501    0  0.00000000000E+00 -0.00000000000E+00 -0.14609712810E+04  0.14609712810E+04  0.00000000000E+00 0. -1.
        -24    2    1    2    0    0  0.46516388089E+03 -0.80739828800E+03 -0.24927607649E+02  0.93566488608E+03  0.81104635288E+02 0.  0.
    5000000    2    1    2    0    0 -0.46516388089E+03  0.80739828800E+03 -0.66759646986E+03  0.12937535983E+04  0.59986989846E+03 0.  0.
        -24    2    4    4    0    0 -0.94761927131E+02  0.52390377421E+03 -0.61497917523E+03  0.81732782002E+03  0.79814735172E+02 0.  0.
         24    2    4    4    0    0 -0.37040195376E+03  0.28349451379E+03 -0.52617294626E+02  0.47642577831E+03  0.81524204032E+02 0.  0.
         11    1    5    5    0    0 -0.14728373376E+02  0.24494099395E+03 -0.32315656602E+03  0.40576246951E+03  0.00000000000E+00 0. -1.
        -12    1    5    5    0    0 -0.80033553756E+02  0.27896278026E+03 -0.29182260921E+03  0.41156535051E+03  0.00000000000E+00 0.  1.
         11    1    3    3    0    0  0.37795900475E+03 -0.66004365064E+03 -0.51723944981E+02  0.76235555780E+03  0.00000000000E+00 0. -1.
        -12    1    3    3    0    0  0.87204876145E+02 -0.14735463736E+03  0.26796337332E+02  0.17330932828E+03  0.00000000000E+00 0.  1.
          2    1    6    6  502    0 -0.17602002649E+03  0.85066058853E+02 -0.14269412682E+02  0.19601760184E+03  0.00000000000E+00 0. -1.
         -1    1    6    6    0  502 -0.19438192727E+03  0.19842845494E+03 -0.38347881944E+02  0.28040817647E+03  0.00000000000E+00 0.  1.
<mgrwt>
<rscale>  0 0.97034756E+03</rscale>
<asrwt>0</asrwt>
<pdfrwt beam="1">  1        1 0.22476481E+00 0.97034756E+03</pdfrwt>
<pdfrwt beam="2">  1       -2 0.11822265E+00 0.97034756E+03</pdfrwt>
<totfact> 0.33754457E+00</totfact>
</mgrwt>
</event>
<event>
12    3  0.2269558E-007  0.1229472E+04  0.7818608E-02  0.9087444E-01
         -2   -1    0    0    0  501 -0.00000000000E+00  0.00000000000E+00  0.11822950011E+04  0.11822950011E+04  0.00000000000E+00 0.  1.
          1   -1    0    0  501    0  0.00000000000E+00 -0.00000000000E+00 -0.17464738515E+04  0.17464738515E+04  0.00000000000E+00 0. -1.
        -24    2    1    2    0    0  0.16956390583E+03 -0.11684940629E+04  0.44435508487E+03  0.12640714950E+04  0.79341098307E+02 0.  0.
    5000000    2    1    2    0    0 -0.16956390583E+03  0.11684940629E+04 -0.10085339352E+04  0.16646973576E+04  0.59995524879E+03 0.  0.
        -24    2    4    4    0    0 -0.31054700917E+03  0.10019816250E+04 -0.96488304758E+03  0.14273110502E+04  0.76229370730E+02 0.  0.
         24    2    4    4    0    0  0.14098310334E+03  0.16651243794E+03 -0.43650887633E+02  0.23738630731E+03  0.82729870601E+02 0.  0.
         11    1    5    5    0    0 -0.26356518789E+03  0.90617907818E+03 -0.88766758261E+03  0.12956005817E+04  0.00000000000E+00 0. -1.
        -12    1    5    5    0    0 -0.46981821283E+02  0.95802546792E+02 -0.77215464964E+02  0.13171046858E+03  0.00000000000E+00 0.  1.
         11    1    3    3    0    0  0.24611305952E+01 -0.23524603526E+03  0.83881426900E+02  0.24976558619E+03  0.00000000000E+00 0. -1.
        -12    1    3    3    0    0  0.16710277523E+03 -0.93324802766E+03  0.36047365797E+03  0.10143059088E+04  0.00000000000E+00 0.  1.
          2    1    6    6  502    0  0.38814228924E+02  0.13342529138E+02  0.15692122595E+02  0.43940984995E+02  0.00000000000E+00 0. -1.
         -1    1    6    6    0  502  0.10216887442E+03  0.15316990880E+03 -0.59343010227E+02  0.19344532231E+03  0.00000000000E+00 0.  1.
<mgrwt>
<rscale>  0 0.12294719E+04</rscale>
<asrwt>0</asrwt>
<pdfrwt beam="1">  1        1 0.26868828E+00 0.12294719E+04</pdfrwt>
<pdfrwt beam="2">  1       -2 0.18189154E+00 0.12294719E+04</pdfrwt>
<totfact> 0.66415891E-01</totfact>
</mgrwt>
</event>
<event>
12    3  0.2269558E-007  0.6251588E+03  0.7818608E-02  0.9854542E-01
         -4   -1    0    0    0  501 -0.00000000000E+00  0.00000000000E+00  0.22542150141E+03  0.22542150141E+03  0.00000000000E+00 0.  1.
          3   -1    0    0  501    0  0.00000000000E+00 -0.00000000000E+00 -0.22630121574E+04  0.22630121574E+04  0.00000000000E+00 0. -1.
        -24    2    1    2    0    0 -0.28131498229E+03  0.50937718832E+03 -0.94694456688E+03  0.11143562284E+04  0.80514295886E+02 0.  0.
    5000000    2    1    2    0    0  0.28131498229E+03 -0.50937718832E+03 -0.10906460891E+04  0.13740774304E+04  0.59998054451E+03 0.  0.
        -24    2    4    4    0    0 -0.48620587066E+02 -0.10471614862E+03 -0.70836233216E+03  0.72223396654E+03  0.80717256685E+02 0.  0.
         24    2    4    4    0    0  0.32993556936E+03 -0.40466103970E+03 -0.38228375696E+03  0.65184346387E+03  0.78428270240E+02 0.  0.
         11    1    5    5    0    0  0.53445266007E+01 -0.82216060043E+02 -0.41930568280E+03  0.42732341396E+03  0.00000000000E+00 0. -1.
        -12    1    5    5    0    0 -0.53965113667E+02 -0.22500088577E+02 -0.28905664937E+03  0.29491055258E+03  0.00000000000E+00 0.  1.
         13    1    3    3    0    0 -0.10058166385E+03  0.22080910798E+03 -0.32876706299E+03  0.40860875539E+03  0.00000000000E+00 0. -1.
        -14    1    3    3    0    0 -0.18073331844E+03  0.28856808034E+03 -0.61817750389E+03  0.70574747303E+03  0.00000000000E+00 0.  1.
          2    1    6    6  502    0  0.22474192221E+03 -0.22422906377E+03 -0.25552362207E+03  0.40752904936E+03  0.00000000000E+00 0. -1.
         -1    1    6    6    0  502  0.10519364715E+03 -0.18043197593E+03 -0.12676013489E+03  0.24431441451E+03  0.00000000000E+00 0.  1.
<mgrwt>
<rscale>  0 0.62515878E+03</rscale>
<asrwt>0</asrwt>
<pdfrwt beam="1">  1        3 0.34815571E+00 0.62515878E+03</pdfrwt>
<pdfrwt beam="2">  1       -4 0.34680231E-01 0.62515878E+03</pdfrwt>
<totfact> 0.40388318E-01</totfact>
</mgrwt>
</event>
<event>
12    3  0.2269558E-007  0.5019888E+03  0.7818608E-02  0.1013261E+00
         -2   -1    0    0    0  501 -0.00000000000E+00  0.00000000000E+00  0.91403896726E+03  0.91403896726E+03  0.00000000000E+00 0.  1.
          1   -1    0    0  501    0  0.00000000000E+00 -0.00000000000E+00 -0.45044663032E+03  0.45044663032E+03  0.00000000000E+00 0. -1.
        -24    2    1    2    0    0  0.38192673882E+03 -0.18131553094E+03  0.45981263023E+03  0.63047635035E+03  0.85612019291E+02 0.  0.
    5000000    2    1    2    0    0 -0.38192673882E+03  0.18131553094E+03  0.37797067171E+01  0.73400924723E+03  0.60000994429E+03 0.  0.
        -24    2    4    4    0    0 -0.39924704863E+03  0.20498649178E+02 -0.20706795021E+03  0.45676558281E+03  0.77066602230E+02 0.  0.
         24    2    4    4    0    0  0.17320309809E+02  0.16081688177E+03  0.21084765692E+03  0.27724366442E+03  0.79026909585E+02 0.  0.
         11    1    5    5    0    0 -0.25623206633E+03  0.47619100806E+02 -0.14768416825E+03  0.29955477651E+03  0.00000000000E+00 0. -1.
        -12    1    5    5    0    0 -0.14301498230E+03 -0.27120451627E+02 -0.59383781959E+02  0.15721080630E+03  0.00000000000E+00 0.  1.
         13    1    3    3    0    0  0.23905493343E+03 -0.85886357228E+02  0.32257303982E+03  0.41058140919E+03  0.00000000000E+00 0. -1.
        -14    1    3    3    0    0  0.14287180539E+03 -0.95429173716E+02  0.13723959040E+03  0.21989494115E+03  0.00000000000E+00 0.  1.
          2    1    6    6  502    0  0.35387675261E+02  0.14000449575E+03  0.13960539849E+03  0.20085620150E+03  0.00000000000E+00 0. -1.
         -1    1    6    6    0  502 -0.18067365452E+02  0.20812386016E+02  0.71242258429E+02  0.76387462925E+02  0.00000000000E+00 0.  1.
<mgrwt>
<rscale>  0 0.50198882E+03</rscale>
<asrwt>0</asrwt>
<pdfrwt beam="1">  1        1 0.69299482E-01 0.50198882E+03</pdfrwt>
<pdfrwt beam="2">  1       -2 0.14062138E+00 0.50198882E+03</pdfrwt>
<totfact> 0.16609159E+01</totfact>
</mgrwt>
</event>
<event>
12    3  0.2269558E-007  0.9241400E+03  0.7818608E-02  0.9395898E-01
          1   -1    0    0  501    0  0.00000000000E+00  0.00000000000E+00  0.21112389629E+04  0.21112389629E+04  0.00000000000E+00 0. -1.
         -2   -1    0    0    0  501 -0.00000000000E+00 -0.00000000000E+00 -0.48415454749E+03  0.48415454749E+03  0.00000000000E+00 0.  1.
        -24    2    1    2    0    0 -0.76060654538E+03 -0.51478808334E+03  0.67071347324E+03  0.11400118414E+04  0.79002200388E+02 0.  0.
    5000000    2    1    2    0    0  0.76060654538E+03  0.51478808334E+03  0.95637094221E+03  0.14553816691E+04  0.59996777905E+03 0.  0.
        -24    2    4    4    0    0  0.34355778434E+03  0.18576332279E+03  0.49415119799E+02  0.40140588900E+03  0.78389223681E+02 0.  0.
         24    2    4    4    0    0  0.41704876105E+03  0.32902476056E+03  0.90695582241E+03  0.10539757801E+04  0.78160853342E+02 0.  0.
         11    1    5    5    0    0  0.20169284997E+03  0.12435243447E+03 -0.64519579177E+01  0.23703409342E+03  0.00000000000E+00 0. -1.
        -12    1    5    5    0    0  0.14186493437E+03  0.61410888321E+02  0.55867077717E+02  0.16437179558E+03  0.00000000000E+00 0.  1.
         13    1    3    3    0    0 -0.52291971540E+03 -0.39368461935E+03  0.45895226709E+03  0.79941840842E+03  0.00000000000E+00 0. -1.
        -14    1    3    3    0    0 -0.23768682999E+03 -0.12110346399E+03  0.21176120616E+03  0.34059343296E+03  0.00000000000E+00 0.  1.
          2    1    6    6  502    0  0.26572841585E+03  0.24946664331E+03  0.65309344388E+03  0.74791459643E+03  0.00000000000E+00 0. -1.
         -1    1    6    6    0  502  0.15132034520E+03  0.79558117244E+02  0.25386237853E+03  0.30606118363E+03  0.00000000000E+00 0.  1.
<mgrwt>
<rscale>  0 0.92414003E+03</rscale>
<asrwt>0</asrwt>
<pdfrwt beam="1">  1        1 0.32480599E+00 0.92414003E+03</pdfrwt>
<pdfrwt beam="2">  1       -2 0.74485316E-01 0.92414003E+03</pdfrwt>
<totfact> 0.36331611E+00</totfact>
</mgrwt>
</event>
<event>
12    3  0.2269558E-007  0.4585690E+03  0.7818608E-02  0.1025197E+00
         -2   -1    0    0    0  501 -0.00000000000E+00  0.00000000000E+00  0.43573619765E+03  0.43573619765E+03  0.00000000000E+00 0.  1.
          1   -1    0    0  501    0  0.00000000000E+00 -0.00000000000E+00 -0.63545352421E+03  0.63545352421E+03  0.00000000000E+00 0. -1.
        -24    2    1    2    0    0 -0.21087008228E+03  0.27569663218E+03 -0.10816417834E+03  0.37201020525E+03  0.78849722516E+02 0.  0.
    5000000    2    1    2    0    0  0.21087008228E+03 -0.27569663218E+03 -0.91553148215E+02  0.69917951661E+03  0.59999599407E+03 0.  0.
        -24    2    4    4    0    0  0.12084823189E+03 -0.38996357994E+03  0.11722383848E+03  0.43241447674E+03  0.81024456539E+02 0.  0.
         24    2    4    4    0    0  0.90021850387E+02  0.11426694775E+03 -0.20877698670E+03  0.26676503987E+03  0.80092992364E+02 0.  0.
         11    1    3    3    0    0 -0.65204806030E+02  0.14859506227E+03 -0.41212209026E+02  0.16742343155E+03  0.00000000000E+00 0. -1.
        -12    1    3    3    0    0 -0.14566527625E+03  0.12710156992E+03 -0.66951969317E+02  0.20458677370E+03  0.00000000000E+00 0.  1.
         13    1    5    5    0    0  0.89149159031E+02 -0.15426060137E+03  0.43119785762E+02  0.18331181527E+03  0.00000000000E+00 0. -1.
        -14    1    5    5    0    0  0.31699072860E+02 -0.23570297856E+03  0.74104052718E+02  0.24910266147E+03  0.00000000000E+00 0.  1.
          4    1    6    6  502    0  0.82248498465E+02  0.10650507403E+03 -0.12959088488E+03  0.18682061915E+03  0.00000000000E+00 0. -1.
         -3    1    6    6    0  502  0.77733519225E+01  0.77618737209E+01 -0.79186101812E+02  0.79944420718E+02  0.00000000000E+00 0.  1.
<mgrwt>
<rscale>  0 0.45856904E+03</rscale>
<asrwt>0</asrwt>
<pdfrwt beam="1">  1        1 0.97762081E-01 0.45856904E+03</pdfrwt>
<pdfrwt beam="2">  1       -2 0.67036338E-01 0.45856904E+03</pdfrwt>
<totfact> 0.58847148E+01</totfact>
</mgrwt>
</event>
<event>
12    3  0.2269558E-007  0.1296026E+04  0.7818608E-02  0.9032723E-01
          1   -1    0    0  501    0  0.00000000000E+00  0.00000000000E+00  0.18372134997E+04  0.18372134997E+04  0.00000000000E+00 0. -1.
         -2   -1    0    0    0  501 -0.00000000000E+00 -0.00000000000E+00 -0.15216410635E+04  0.15216410635E+04  0.00000000000E+00 0.  1.
        -24    2    1    2    0    0  0.43396265881E+03  0.11619706682E+04 -0.88951420823E+03  0.15283730303E+04  0.78671278252E+02 0.  0.
    5000000    2    1    2    0    0 -0.43396265881E+03 -0.11619706682E+04  0.12050866444E+04  0.18304815329E+04  0.59994116283E+03 0.  0.
        -24    2    4    4    0    0 -0.51333577988E+03 -0.11563767346E+04  0.11265305089E+04  0.16959105570E+04  0.79503801528E+02 0.  0.
         24    2    4    4    0    0  0.79373121067E+02 -0.55939335980E+01  0.78556135432E+02  0.13457097593E+03  0.74879214121E+02 0.  0.
         11    1    3    3    0    0  0.25458747983E+03  0.63494199296E+03 -0.53397281438E+03  0.86780936029E+03  0.00000000000E+00 0. -1.
        -12    1    3    3    0    0  0.17937517899E+03  0.52702867524E+03 -0.35554139384E+03  0.66056366998E+03  0.00000000000E+00 0.  1.
         13    1    5    5    0    0 -0.72304466122E+02 -0.22700957653E+03  0.23491734562E+03  0.33458547926E+03  0.00000000000E+00 0. -1.
        -14    1    5    5    0    0 -0.44103131376E+03 -0.92936715807E+03  0.89161316331E+03  0.13613250777E+04  0.00000000000E+00 0.  1.
          4    1    6    6  502    0  0.54778560287E+02 -0.16770418572E+02  0.88802713982E+02  0.10567809431E+03  0.00000000000E+00 0. -1.
         -3    1    6    6    0  502  0.24594560780E+02  0.11176484974E+02 -0.10246578550E+02  0.28892881620E+02  0.00000000000E+00 0.  1.
<mgrwt>
<rscale>  0 0.12960258E+04</rscale>
<asrwt>0</asrwt>
<pdfrwt beam="1">  1        1 0.28264823E+00 0.12960258E+04</pdfrwt>
<pdfrwt beam="2">  1       -2 0.23409863E+00 0.12960258E+04</pdfrwt>
<totfact> 0.26173874E-01</totfact>
</mgrwt>
</event>
<event>
12    3  0.2269558E-007  0.7429800E+03  0.7818608E-02  0.9646428E-01
         -2   -1    0    0    0  501 -0.00000000000E+00  0.00000000000E+00  0.38719450276E+03  0.38719450276E+03  0.00000000000E+00 0.  1.
          1   -1    0    0  501    0  0.00000000000E+00 -0.00000000000E+00 -0.35250094844E+04  0.35250094844E+04  0.00000000000E+00 0. -1.
        -24    2    1    2    0    0  0.23580721202E+03 -0.57342891750E+03  0.32893500896E+02  0.62619423383E+03  0.81310955075E+02 0.  0.
    5000000    2    1    2    0    0 -0.23580721202E+03  0.57342891750E+03 -0.31707084825E+04  0.32860097533E+04  0.60003504323E+03 0.  0.
        -24    2    4    4    0    0  0.16611372474E+03  0.35085771141E+03 -0.14661984577E+04  0.15188693940E+04  0.80817173567E+02 0.  0.
         24    2    4    4    0    0 -0.40192093676E+03  0.22257120609E+03 -0.17045100248E+04  0.17671403593E+04  0.79700963192E+02 0.  0.
         11    1    3    3    0    0  0.71794181687E+02 -0.26497203553E+03  0.35660651067E+02  0.27683255981E+03  0.00000000000E+00 0. -1.
        -12    1    3    3    0    0  0.16401303033E+03 -0.30845688197E+03 -0.27671501711E+01  0.34936167402E+03  0.00000000000E+00 0.  1.
         13    1    5    5    0    0  0.46495930011E+02  0.33703471240E+02 -0.22641074653E+03  0.23358001118E+03  0.00000000000E+00 0. -1.
        -14    1    5    5    0    0  0.11961779473E+03  0.31715424017E+03 -0.12397877112E+04  0.12852893829E+04  0.00000000000E+00 0.  1.
          2    1    6    6  502    0 -0.11118599254E+03  0.24363747394E+02 -0.37920959646E+03  0.39592402702E+03  0.00000000000E+00 0. -1.
         -1    1    6    6    0  502 -0.29073494422E+03  0.19820745870E+03 -0.13253004284E+04  0.13712163323E+04  0.00000000000E+00 0.  1.
<mgrwt>
<rscale>  0 0.74298001E+03</rscale>
<asrwt>0</asrwt>
<pdfrwt beam="1">  1        1 0.54230915E+00 0.74298001E+03</pdfrwt>
<pdfrwt beam="2">  1       -2 0.59568386E-01 0.74298001E+03</pdfrwt>
<totfact> 0.60178196E-01</totfact>
</mgrwt>
</event>
<event>
12    3  0.2269558E-007  0.1134400E+04  0.7818608E-02  0.9172297E-01
          1   -1    0    0  501    0  0.00000000000E+00  0.00000000000E+00  0.24954259806E+04  0.24954259806E+04  0.00000000000E+00 0. -1.
         -2   -1    0    0    0  501 -0.00000000000E+00 -0.00000000000E+00 -0.69088386356E+03  0.69088386356E+03  0.00000000000E+00 0.  1.
        -24    2    1    2    0    0 -0.50416602026E+03  0.10087271203E+04  0.22124268514E+03  0.11519981811E+04  0.80235305127E+02 0.  0.
    5000000    2    1    2    0    0  0.50416602026E+03 -0.10087271203E+04  0.15832994319E+04  0.20343116631E+04  0.59989421754E+03 0.  0.
        -24    2    4    4    0    0  0.27507516672E+03 -0.65778126344E+03  0.13940984918E+04  0.15678679652E+04  0.79729627064E+02 0.  0.
         24    2    4    4    0    0  0.22909085354E+03 -0.35094585690E+03  0.18920094011E+03  0.46644369794E+03  0.78275883648E+02 0.  0.
         11    1    5    5    0    0  0.57078107722E+02 -0.82024602588E+02  0.15815160176E+03  0.18707718981E+03  0.00000000000E+00 0. -1.
        -12    1    5    5    0    0  0.21799705900E+03 -0.57575666086E+03  0.12359468901E+04  0.13807907754E+04  0.00000000000E+00 0.  1.
         11    1    3    3    0    0 -0.40050289737E+03  0.81531653703E+03  0.14609168743E+03  0.92004695940E+03  0.00000000000E+00 0. -1.
        -12    1    3    3    0    0 -0.10366312289E+03  0.19341058331E+03  0.75150997717E+02  0.23195122168E+03  0.00000000000E+00 0.  1.
          4    1    6    6  502    0  0.93692903160E+02 -0.21007959494E+03  0.86875706233E+02  0.24588449452E+03  0.00000000000E+00 0. -1.
         -3    1    6    6    0  502  0.13539795038E+03 -0.14086626196E+03  0.10232523387E+03  0.22055920342E+03  0.00000000000E+00 0.  1.
<mgrwt>
<rscale>  0 0.11344002E+04</rscale>
<asrwt>0</asrwt>
<pdfrwt beam="1">  1        1 0.38391168E+00 0.11344002E+04</pdfrwt>
<pdfrwt beam="2">  1       -2 0.10628983E+00 0.11344002E+04</pdfrwt>
<totfact> 0.84981493E-01</totfact>
</mgrwt>
</event>
<event>
12    3  0.2269558E-007  0.6013426E+03  0.7818608E-02  0.9902624E-01
         -2   -1    0    0    0  501 -0.00000000000E+00  0.00000000000E+00  0.45175965524E+03  0.45175965524E+03  0.00000000000E+00 0.  1.
          1   -1    0    0  501    0  0.00000000000E+00 -0.00000000000E+00 -0.11764988265E+04  0.11764988265E+04  0.00000000000E+00 0. -1.
        -24    2    1    2    0    0 -0.22370436005E+03 -0.40523683291E+03  0.12848516817E+03  0.48709490733E+03  0.80575919818E+02 0.  0.
    5000000    2    1    2    0    0  0.22370436005E+03  0.40523683291E+03 -0.85322433943E+03  0.11411635744E+04  0.60000166557E+03 0.  0.
        -24    2    4    4    0    0  0.22751253138E+03  0.54318542074E+03 -0.75657345656E+03  0.96189792573E+03  0.77665121649E+02 0.  0.
         24    2    4    4    0    0 -0.38081713311E+01 -0.13794858783E+03 -0.96650882868E+02  0.17926564866E+03  0.61241036724E+02 0.  0.
         11    1    3    3    0    0 -0.92826352371E+02 -0.17510307536E+03  0.14076566292E+02  0.19868560193E+03  0.00000000000E+00 0. -1.
        -12    1    3    3    0    0 -0.13087800767E+03 -0.23013375755E+03  0.11440860188E+03  0.28840930540E+03  0.00000000000E+00 0.  1.
         13    1    5    5    0    0  0.71870713363E+02  0.19469013189E+03 -0.20992992525E+03  0.29519522423E+03  0.00000000000E+00 0. -1.
        -14    1    5    5    0    0  0.15564181801E+03  0.34849528885E+03 -0.54664353131E+03  0.66670270150E+03  0.00000000000E+00 0.  1.
          2    1    6    6  502    0 -0.12732034669E+02 -0.42843275741E+00 -0.12197239089E+02  0.17636918745E+02  0.00000000000E+00 0. -1.
         -1    1    6    6    0  502  0.89238633377E+01 -0.13752015507E+03 -0.84453643779E+02  0.16162872992E+03  0.00000000000E+00 0.  1.
<mgrwt>
<rscale>  0 0.60134265E+03</rscale>
<asrwt>0</asrwt>
<pdfrwt beam="1">  1        1 0.18099982E+00 0.60134265E+03</pdfrwt>
<pdfrwt beam="2">  1       -2 0.69501485E-01 0.60134265E+03</pdfrwt>
<totfact> 0.19246812E+01</totfact>
</mgrwt>
</event>
<event>
12    3  0.2269558E-007  0.4115389E+03  0.7818608E-02  0.1039856E+00
         -2   -1    0    0    0  501 -0.00000000000E+00  0.00000000000E+00  0.22413069386E+03  0.22413069386E+03  0.00000000000E+00 0.  1.
          1   -1    0    0  501    0  0.00000000000E+00 -0.00000000000E+00 -0.12249793378E+04  0.12249793378E+04  0.00000000000E+00 0. -1.
        -24    2    1    2    0    0 -0.19845507390E+03  0.23873269219E+02  0.51661420029E+02  0.22129686537E+03  0.79680932240E+02 0.  0.
    5000000    2    1    2    0    0  0.19845507390E+03 -0.23873269219E+02 -0.10525100639E+04  0.12278131663E+04  0.59982779798E+03 0.  0.
        -24    2    4    4    0    0 -0.70844688175E+02  0.22842090272E+03 -0.36852299555E+03  0.44658013868E+03  0.80184433479E+02 0.  0.
         24    2    4    4    0    0  0.26929976207E+03 -0.25229417194E+03 -0.68398706837E+03  0.78123302757E+03  0.79448238657E+02 0.  0.
         11    1    5    5    0    0  0.18040994983E+02  0.35662987315E+02 -0.57101608947E+02  0.69698779821E+02  0.00000000000E+00 0. -1.
        -12    1    5    5    0    0 -0.88885683158E+02  0.19275791540E+03 -0.31142138660E+03  0.37688135886E+03  0.00000000000E+00 0.  1.
         13    1    3    3    0    0 -0.42677659520E+02 -0.51043005251E+01 -0.19986125788E+02  0.47401284054E+02  0.00000000000E+00 0. -1.
        -14    1    3    3    0    0 -0.15577741438E+03  0.28977569744E+02  0.71647545817E+02  0.17389558131E+03  0.00000000000E+00 0.  1.
          4    1    6    6  502    0  0.22215728015E+03 -0.19888496022E+03 -0.47905450400E+03  0.56427147928E+03  0.00000000000E+00 0. -1.
         -3    1    6    6    0  502  0.47142481920E+02 -0.53409211718E+02 -0.20493256437E+03  0.21696154829E+03  0.00000000000E+00 0.  1.
<mgrwt>
<rscale>  0 0.41153885E+03</rscale>
<asrwt>0</asrwt>
<pdfrwt beam="1">  1        1 0.18845836E+00 0.41153885E+03</pdfrwt>
<pdfrwt beam="2">  1       -2 0.34481645E-01 0.41153885E+03</pdfrwt>
<totfact> 0.75233527E+01</totfact>
</mgrwt>
</event>
<event>
12    3  0.2269558E-007  0.5964315E+03  0.7818608E-02  0.9912837E-01
          1   -1    0    0  501    0  0.00000000000E+00  0.00000000000E+00  0.68866474180E+03  0.68866474180E+03  0.00000000000E+00 0. -1.
         -2   -1    0    0    0  501 -0.00000000000E+00 -0.00000000000E+00 -0.59180936632E+03  0.59180936632E+03  0.00000000000E+00 0.  1.
        -24    2    1    2    0    0  0.40668475965E+03  0.22310859684E+03  0.20673191363E+03  0.51421236789E+03  0.80661858778E+02 0.  0.
    5000000    2    1    2    0    0 -0.40668475965E+03 -0.22310859684E+03 -0.10987653816E+03  0.76626174023E+03  0.59992854674E+03 0.  0.
        -24    2    4    4    0    0 -0.53744218345E+03 -0.23357491043E+03 -0.26629216285E+02  0.59186130357E+03  0.78672410494E+02 0.  0.
         24    2    4    4    0    0  0.13075742380E+03  0.10466313596E+02 -0.83247321872E+02  0.17440043666E+03  0.79236027835E+02 0.  0.
         13    1    3    3    0    0  0.19471731028E+03  0.61301984396E+02  0.87381388016E+02  0.22205465811E+03  0.00000000000E+00 0. -1.
        -14    1    3    3    0    0  0.21196744936E+03  0.16180661244E+03  0.11935052562E+03  0.29215770978E+03  0.00000000000E+00 0.  1.
         13    1    5    5    0    0 -0.51140282686E+03 -0.20192699831E+03 -0.30667395785E+02  0.55067944680E+03  0.00000000000E+00 0. -1.
        -14    1    5    5    0    0 -0.26039356589E+02 -0.31647912124E+02  0.40381795007E+01  0.41181856770E+02  0.00000000000E+00 0.  1.
          4    1    6    6  502    0  0.84058924241E+02  0.88237664778E+01 -0.94042090449E+02  0.12644238362E+03  0.00000000000E+00 0. -1.
         -3    1    6    6    0  502  0.46698499562E+02  0.16425471181E+01  0.10794768577E+02  0.47958053036E+02  0.00000000000E+00 0.  1.
<mgrwt>
<rscale>  0 0.59643151E+03</rscale>
<asrwt>0</asrwt>
<pdfrwt beam="1">  1        1 0.10594842E+00 0.59643151E+03</pdfrwt>
<pdfrwt beam="2">  1       -2 0.91047594E-01 0.59643151E+03</pdfrwt>
<totfact> 0.26052750E+01</totfact>
</mgrwt>
</event>
<event>
12    3  0.2269558E-007  0.1018811E+04  0.7818608E-02  0.9288151E-01
         -2   -1    0    0    0  501 -0.00000000000E+00  0.00000000000E+00  0.53019565116E+03  0.53019565116E+03  0.00000000000E+00 0.  1.
          1   -1    0    0  501    0  0.00000000000E+00 -0.00000000000E+00 -0.22684948514E+04  0.22684948514E+04  0.00000000000E+00 0. -1.
        -24    2    1    2    0    0  0.80246173559E+03  0.52476404266E+03 -0.12227645161E+04  0.15559558595E+04  0.80767799210E+02 0.  0.
    5000000    2    1    2    0    0 -0.80246173559E+03 -0.52476404266E+03 -0.51553468412E+03  0.12427346430E+04  0.59940907973E+03 0.  0.
        -24    2    4    4    0    0 -0.18203921745E+03 -0.40183294656E+03 -0.45519946743E+02  0.45065444046E+03  0.80058513118E+02 0.  0.
         24    2    4    4    0    0 -0.62042251814E+03 -0.12293109610E+03 -0.47001473738E+03  0.79208020256E+03  0.80256080902E+02 0.  0.
         11    1    5    5    0    0 -0.37855047225E+02 -0.11013434731E+03  0.21525916442E+02  0.11843117891E+03  0.00000000000E+00 0. -1.
        -12    1    5    5    0    0 -0.14418417023E+03 -0.29169859925E+03 -0.67045863185E+02  0.33222326155E+03  0.00000000000E+00 0.  1.
         13    1    3    3    0    0  0.44189436694E+03  0.24219331223E+03 -0.62478618925E+03  0.80267428905E+03  0.00000000000E+00 0. -1.
        -14    1    3    3    0    0  0.36056736865E+03  0.28257073043E+03 -0.59797832685E+03  0.75328157047E+03  0.00000000000E+00 0.  1.
          4    1    6    6  502    0 -0.56147667866E+03 -0.98968843192E+02 -0.44679520849E+03  0.72434580894E+03  0.00000000000E+00 0. -1.
         -3    1    6    6    0  502 -0.58945839478E+02 -0.23962252907E+02 -0.23219528892E+02  0.67734393612E+02  0.00000000000E+00 0.  1.
<mgrwt>
<rscale>  0 0.10188105E+04</rscale>
<asrwt>0</asrwt>
<pdfrwt beam="1">  1        1 0.34899921E+00 0.10188105E+04</pdfrwt>
<pdfrwt beam="2">  1       -2 0.81568562E-01 0.10188105E+04</pdfrwt>
<totfact> 0.22912238E+00</totfact>
</mgrwt>
</event>
<event>
12    3  0.2269558E-007  0.6827756E+03  0.7818608E-02  0.9747150E-01
          1   -1    0    0  501    0  0.00000000000E+00  0.00000000000E+00  0.13659926412E+04  0.13659926412E+04  0.00000000000E+00 0. -1.
         -2   -1    0    0    0  501 -0.00000000000E+00 -0.00000000000E+00 -0.57858076832E+03  0.57858076832E+03  0.00000000000E+00 0.  1.
        -24    2    1    2    0    0  0.41650034041E+03 -0.42599777981E+03 -0.21047051374E+03  0.63663696010E+03  0.77859744680E+02 0.  0.
    5000000    2    1    2    0    0 -0.41650034041E+03  0.42599777981E+03  0.99788238659E+03  0.13079364494E+04  0.59998487998E+03 0.  0.
        -24    2    4    4    0    0 -0.23263291282E+03  0.50228215897E+03  0.44494626598E+03  0.71470529390E+03  0.80131380651E+02 0.  0.
         24    2    4    4    0    0 -0.18386742759E+03 -0.76284379163E+02  0.55293612061E+03  0.59323115549E+03  0.80983411481E+02 0.  0.
         11    1    5    5    0    0 -0.11372147997E+03  0.25580426669E+03  0.27584239946E+03  0.39301072149E+03  0.00000000000E+00 0. -1.
        -12    1    5    5    0    0 -0.11891143285E+03  0.24647789228E+03  0.16910386652E+03  0.32169457241E+03  0.00000000000E+00 0.  1.
         13    1    3    3    0    0  0.28135973921E+03 -0.32439568335E+03 -0.12529065129E+03  0.44731824189E+03  0.00000000000E+00 0. -1.
        -14    1    3    3    0    0  0.13514060120E+03 -0.10160209647E+03 -0.85179862449E+02  0.18931871821E+03  0.00000000000E+00 0.  1.
          4    1    6    6  502    0 -0.58567464707E+02 -0.65239734254E+02  0.26160645155E+03  0.27590633617E+03  0.00000000000E+00 0. -1.
         -3    1    6    6    0  502 -0.12529996288E+03 -0.11044644909E+02  0.29132966906E+03  0.31732481932E+03  0.00000000000E+00 0.  1.
<mgrwt>
<rscale>  0 0.68277563E+03</rscale>
<asrwt>0</asrwt>
<pdfrwt beam="1">  1        1 0.21015271E+00 0.68277563E+03</pdfrwt>
<pdfrwt beam="2">  1       -2 0.89012426E-01 0.68277563E+03</pdfrwt>
<totfact> 0.80303541E+00</totfact>
</mgrwt>
</event>
