<event>
12    3  0.4773567E-008  0.2301027E+04  0.7818608E-02  0.8477516E-01
          2   -1    0    0  501    0  0.00000000000E+00  0.00000000000E+00  0.15820629349E+04  0.15820629349E+04  0.00000000000E+00 0. -1.
         -2   -1    0    0    0  501 -0.00000000000E+00 -0.00000000000E+00 -0.83668023162E+03  0.83668023162E+03  0.00000000000E+00 0.  1.
         23    2    1    2    0    0  0.27104421893E+03 -0.35821725882E+03  0.12318448835E+04  0.13143524235E+04  0.91081846886E+02 0.  0.
        254    2    1    2    0    0 -0.27104421893E+03  0.35821725882E+03 -0.48646218029E+03  0.11043907430E+04  0.88388284706E+03 0.  0.
         23    2    4    4    0    0  0.17198789918E+03  0.48042479239E+03 -0.30934789026E+03  0.60394404434E+03  0.93083150325E+02 0.  0.
         23    2    4    4    0    0 -0.44303211811E+03 -0.12220753357E+03 -0.17711429003E+03  0.50044669870E+03  0.88686456521E+02 0.  0.
          3    1    3    3  502    0  0.14375523180E+03 -0.15799362319E+03  0.70274029559E+03  0.73448721887E+03  0.00000000000E+00 0. -1.
         -3    1    3    3    0  502  0.12728898713E+03 -0.20022363563E+03  0.52910458795E+03  0.57986520459E+03  0.00000000000E+00 0.  1.
         13    1    5    5    0    0  0.76861746630E+02  0.10137780556E+03 -0.89494403093E+02  0.15554560663E+03  0.00000000000E+00 0. -1.
        -13    1    5    5    0    0  0.95126152550E+02  0.37904698683E+03 -0.21985348717E+03  0.44839843771E+03  0.00000000000E+00 0.  1.
          3    1    6    6  503    0 -0.13442501498E+03  0.42653266245E+00 -0.32835460442E+02  0.13837786689E+03  0.00000000000E+00 0. -1.
         -3    1    6    6    0  503 -0.30860710313E+03 -0.12263406623E+03 -0.14427882958E+03  0.36206883181E+03  0.00000000000E+00 0.  1.
<mgrwt>
<rscale>  0 0.23010265E+04</rscale>
<asrwt>0</asrwt>
<pdfrwt beam="1">  1        2 0.24339430E+00 0.23010265E+04</pdfrwt>
<pdfrwt beam="2">  1       -2 0.12872004E+00 0.23010265E+04</pdfrwt>
<totfact> 0.46081535E+00</totfact>
</mgrwt>
</event>
<event>
12    3  0.4773567E-008  0.2968277E+04  0.7818608E-02  0.8252848E-01
          1   -1    0    0  501    0  0.00000000000E+00  0.00000000000E+00  0.22260001495E+04  0.22260001495E+04  0.00000000000E+00 0. -1.
         -1   -1    0    0    0  501 -0.00000000000E+00 -0.00000000000E+00 -0.98951774268E+03  0.98951774268E+03  0.00000000000E+00 0.  1.
         23    2    1    2    0    0 -0.34993801467E+02  0.10521127039E+04  0.14755330536E+04  0.18148488523E+04  0.91174869519E+02 0.  0.
        254    2    1    2    0    0  0.34993801467E+02 -0.10521127039E+04 -0.23905064677E+03  0.14006690398E+04  0.89250369163E+03 0.  0.
         23    2    4    4    0    0 -0.18495223776E+02 -0.76988027492E+03  0.25984149130E+03  0.81787181216E+03  0.91318067823E+02 0.  0.
         23    2    4    4    0    0  0.53489025243E+02 -0.28223242896E+03 -0.49889213807E+03  0.58279722766E+03  0.90791097353E+02 0.  0.
          2    1    3    3  502    0 -0.58588496601E+02  0.58662073989E+03  0.78454959318E+03  0.98136362709E+03  0.00000000000E+00 0. -1.
         -2    1    3    3    0  502  0.23594695133E+02  0.46549196399E+03  0.69098346039E+03  0.83348522525E+03  0.00000000000E+00 0.  1.
         13    1    5    5    0    0 -0.25614932972E+02 -0.81388610688E+02  0.12348222655E+02  0.86213162241E+02  0.00000000000E+00 0.  1.
        -13    1    5    5    0    0  0.71197091959E+01 -0.68849166423E+03  0.24749326864E+03  0.73165864992E+03  0.00000000000E+00 0. -1.
          2    1    6    6  503    0  0.67101828131E+01 -0.14383689271E+03 -0.32642804526E+03  0.35677632627E+03  0.00000000000E+00 0. -1.
         -2    1    6    6    0  503  0.46778842430E+02 -0.13839553625E+03 -0.17246409281E+03  0.22602090138E+03  0.00000000000E+00 0.  1.
<mgrwt>
<rscale>  0 0.29682767E+04</rscale>
<asrwt>0</asrwt>
<pdfrwt beam="1">  1        1 0.34246156E+00 0.29682767E+04</pdfrwt>
<pdfrwt beam="2">  1       -1 0.15223350E+00 0.29682767E+04</pdfrwt>
<totfact> 0.59811508E-01</totfact>
</mgrwt>
</event>
<event>
12    3  0.4773567E-008  0.1618130E+04  0.7818608E-02  0.8809487E-01
         -3   -1    0    0    0  501 -0.00000000000E+00  0.00000000000E+00  0.41957566522E+03  0.41957566522E+03  0.00000000000E+00 0.  1.
          3   -1    0    0  501    0  0.00000000000E+00 -0.00000000000E+00 -0.15601146941E+04  0.15601146941E+04  0.00000000000E+00 0. -1.
         23    2    1    2    0    0  0.40508330183E+03 -0.30352180485E+03 -0.71944147857E+03  0.88460526309E+03  0.93340575151E+02 0.  0.
        254    2    1    2    0    0 -0.40508330183E+03  0.30352180485E+03 -0.42109755031E+03  0.10950850962E+04  0.87502585884E+03 0.  0.
         23    2    4    4    0    0 -0.66459997847E+03  0.15524324719E+03 -0.35579079686E+03  0.77510284205E+03  0.91671846516E+02 0.  0.
         23    2    4    4    0    0  0.25951667664E+03  0.14827855766E+03 -0.65306753451E+02  0.31998225417E+03  0.93745585598E+02 0.  0.
          1    1    3    3  502    0  0.27881327727E+03 -0.25716461108E+03 -0.50749310513E+03  0.63357693498E+03  0.00000000000E+00 0. -1.
         -1    1    3    3    0  502  0.12627002456E+03 -0.46357193765E+02 -0.21194837343E+03  0.25102832812E+03  0.00000000000E+00 0.  1.
         13    1    5    5    0    0 -0.58546706701E+03  0.10518261452E+03 -0.31273381479E+03  0.67203981122E+03  0.00000000000E+00 0.  1.
        -13    1    5    5    0    0 -0.79132911464E+02  0.50060632665E+02 -0.43056982069E+02  0.10306303083E+03  0.00000000000E+00 0. -1.
          4    1    6    6  503    0  0.18296608506E+03  0.52324856062E+02 -0.45242012739E+02  0.19560500648E+03  0.00000000000E+00 0. -1.
         -4    1    6    6    0  503  0.76550591582E+02  0.95953701601E+02 -0.20064740712E+02  0.12437724769E+03  0.00000000000E+00 0.  1.
<mgrwt>
<rscale>  0 0.16181300E+04</rscale>
<asrwt>0</asrwt>
<pdfrwt beam="1">  1        3 0.24001765E+00 0.16181300E+04</pdfrwt>
<pdfrwt beam="2">  1       -3 0.64550102E-01 0.16181300E+04</pdfrwt>
<totfact> 0.49234820E-01</totfact>
</mgrwt>
</event>
<event>
12    3  0.4773567E-008  0.2260935E+04  0.7818608E-02  0.8493485E-01
          2   -1    0    0  501    0  0.00000000000E+00  0.00000000000E+00  0.14944000261E+04  0.14944000261E+04  0.00000000000E+00 0. -1.
         -2   -1    0    0    0  501 -0.00000000000E+00 -0.00000000000E+00 -0.85516349174E+03  0.85516349174E+03  0.00000000000E+00 0.  1.
         23    2    1    2    0    0 -0.25662478067E+03  0.80394751104E+03  0.72548414593E+03  0.11163177569E+04  0.87465478169E+02 0.  0.
        254    2    1    2    0    0  0.25662478067E+03 -0.80394751104E+03 -0.86247611576E+02  0.12332457609E+04  0.89513606660E+03 0.  0.
         23    2    4    4    0    0  0.14928315578E+03 -0.99323425928E+01 -0.34439642432E+03  0.38651407148E+03  0.91652159466E+02 0.  0.
         23    2    4    4    0    0  0.10734162490E+03 -0.79401516845E+03  0.25814881275E+03  0.84673168943E+03  0.91276679402E+02 0.  0.
          4    1    3    3  502    0 -0.20525924102E+03  0.71178079066E+03  0.60744442560E+03  0.95799372658E+03  0.00000000000E+00 0. -1.
         -4    1    3    3    0  502 -0.51365539654E+02  0.92166720385E+02  0.11803972033E+03  0.15832403035E+03  0.00000000000E+00 0.  1.
         13    1    5    5    0    0  0.73465923733E+02 -0.49188375756E+02 -0.20170316579E+03  0.22022921093E+03  0.00000000000E+00 0. -1.
        -13    1    5    5    0    0  0.75817232043E+02  0.39256033163E+02 -0.14269325854E+03  0.16628486055E+03  0.00000000000E+00 0.  1.
          2    1    6    6  503    0  0.85407925318E+02 -0.38472879718E+03  0.15953871280E+03  0.42516274762E+03  0.00000000000E+00 0. -1.
         -2    1    6    6    0  503  0.21933699580E+02 -0.40928637127E+03  0.98610099947E+02  0.42156894181E+03  0.00000000000E+00 0.  1.
<mgrwt>
<rscale>  0 0.22609346E+04</rscale>
<asrwt>0</asrwt>
<pdfrwt beam="1">  1        2 0.22990770E+00 0.22609346E+04</pdfrwt>
<pdfrwt beam="2">  1       -2 0.13156361E+00 0.22609346E+04</pdfrwt>
<totfact> 0.49006435E+00</totfact>
</mgrwt>
</event>
<event>
12    3  0.4773567E-008  0.2226560E+04  0.7818608E-02  0.8507454E-01
          1   -1    0    0  501    0  0.00000000000E+00  0.00000000000E+00  0.85679214548E+03  0.85679214548E+03  0.00000000000E+00 0. -1.
         -1   -1    0    0    0  501 -0.00000000000E+00 -0.00000000000E+00 -0.14465490287E+04  0.14465490287E+04  0.00000000000E+00 0.  1.
         23    2    1    2    0    0  0.78375403152E+03 -0.44953796337E+03 -0.77784701866E+01  0.90810494599E+03  0.90770732621E+02 0.  0.
        254    2    1    2    0    0 -0.78375403152E+03  0.44953796337E+03 -0.58197841301E+03  0.13952362282E+04  0.88973619505E+03 0.  0.
         23    2    4    4    0    0 -0.35269533019E+03 -0.20950836215E+03 -0.15535440738E+02  0.42090264139E+03  0.92897437345E+02 0.  0.
         23    2    4    4    0    0 -0.43105870133E+03  0.65904632552E+03 -0.56644297227E+03  0.97433358678E+03  0.91184616709E+02 0.  0.
          1    1    3    3  502    0  0.61379741308E+03 -0.32476558114E+03  0.24263453947E+02  0.69484434386E+03  0.00000000000E+00 0. -1.
         -1    1    3    3    0  502  0.16995661843E+03 -0.12477238223E+03 -0.32041924133E+02  0.21326060213E+03  0.00000000000E+00 0.  1.
         13    1    5    5    0    0 -0.41401379870E+02 -0.24989626217E+02  0.28863488392E+02  0.56317462973E+02  0.00000000000E+00 0. -1.
        -13    1    5    5    0    0 -0.31129395032E+03 -0.18451873594E+03 -0.44398929130E+02  0.36458517842E+03  0.00000000000E+00 0.  1.
          1    1    6    6  503    0 -0.27394072117E+03  0.33591110544E+03 -0.31032357731E+03  0.53308583934E+03  0.00000000000E+00 0. -1.
         -1    1    6    6    0  503 -0.15711798016E+03  0.32313522008E+03 -0.25611939496E+03  0.44124774744E+03  0.00000000000E+00 0.  1.
<mgrwt>
<rscale>  0 0.22265595E+04</rscale>
<asrwt>0</asrwt>
<pdfrwt beam="1">  1        1 0.13181418E+00 0.22265595E+04</pdfrwt>
<pdfrwt beam="2">  1       -1 0.22254600E+00 0.22265595E+04</pdfrwt>
<totfact> 0.19022867E+00</totfact>
</mgrwt>
</event>
<event>
12    3  0.4773567E-008  0.1409563E+04  0.7818608E-02  0.8946925E-01
          1   -1    0    0  501    0  0.00000000000E+00  0.00000000000E+00  0.43552100562E+03  0.43552100562E+03  0.00000000000E+00 0. -1.
         -1   -1    0    0    0  501 -0.00000000000E+00 -0.00000000000E+00 -0.11405125229E+04  0.11405125229E+04  0.00000000000E+00 0.  1.
         23    2    1    2    0    0 -0.15182734911E+03  0.17897102636E+03  0.16490074789E+03  0.30079252140E+03  0.90563304157E+02 0.  0.
        254    2    1    2    0    0  0.15182734911E+03 -0.17897102636E+03 -0.86989226519E+03  0.12752410071E+04  0.90246601103E+03 0.  0.
         23    2    4    4    0    0 -0.34261996646E+03 -0.23176349875E+03 -0.45054308015E+03  0.61827970035E+03  0.90432074092E+02 0.  0.
         23    2    4    4    0    0  0.49444731557E+03  0.52792472383E+02 -0.41934918503E+03  0.65696130679E+03  0.92082716170E+02 0.  0.
          3    1    3    3  502    0 -0.15546602746E+03  0.18671464342E+03  0.15826998366E+03  0.28996798356E+03  0.00000000000E+00 0. -1.
         -3    1    3    3    0  502  0.36386783460E+01 -0.77436170567E+01  0.66307642304E+01  0.10824537843E+02  0.00000000000E+00 0.  1.
         13    1    5    5    0    0 -0.30475728831E+02 -0.22235503380E+02 -0.89135289411E+02  0.96789914127E+02  0.00000000000E+00 0. -1.
        -13    1    5    5    0    0 -0.31214423763E+03 -0.20952799537E+03 -0.36140779074E+03  0.52148978623E+03  0.00000000000E+00 0.  1.
          1    1    6    6  503    0  0.64897444358E+01 -0.88902320803E+01 -0.22258431055E+02  0.24831245686E+02  0.00000000000E+00 0. -1.
         -1    1    6    6    0  503  0.48795757114E+03  0.61682704464E+02 -0.39709075398E+03  0.63213006111E+03  0.00000000000E+00 0.  1.
<mgrwt>
<rscale>  0 0.14095633E+04</rscale>
<asrwt>0</asrwt>
<pdfrwt beam="1">  1        1 0.67003233E-01 0.14095633E+04</pdfrwt>
<pdfrwt beam="2">  1       -1 0.17546346E+00 0.14095633E+04</pdfrwt>
<totfact> 0.11702658E+01</totfact>
</mgrwt>
</event>
<event>
12    3  0.4773567E-008  0.1377437E+04  0.7818608E-02  0.8970315E-01
          2   -1    0    0  501    0  0.00000000000E+00  0.00000000000E+00  0.27281540924E+04  0.27281540924E+04  0.00000000000E+00 0. -1.
         -2   -1    0    0    0  501 -0.00000000000E+00 -0.00000000000E+00 -0.17386596650E+03  0.17386596650E+03  0.00000000000E+00 0.  1.
         23    2    1    2    0    0  0.12120574907E+03  0.12679021029E+03  0.95573490520E+01  0.19838278849E+03  0.92183495339E+02 0.  0.
        254    2    1    2    0    0 -0.12120574907E+03 -0.12679021029E+03  0.25447307768E+04  0.27036372704E+04  0.89623276680E+03 0.  0.
         23    2    4    4    0    0 -0.39781466072E+03 -0.34688332616E+03  0.17248088947E+04  0.18061972385E+04  0.93798692714E+02 0.  0.
         23    2    4    4    0    0  0.27660891165E+03  0.22009311586E+03  0.81992188211E+03  0.89744003191E+03  0.90406020037E+02 0.  0.
          1    1    3    3  502    0  0.23795147648E+02  0.67994101666E+02  0.37512233377E+02  0.81219299220E+02  0.00000000000E+00 0. -1.
         -1    1    3    3    0  502  0.97410601427E+02  0.58796108627E+02 -0.27954884325E+02  0.11716348927E+03  0.00000000000E+00 0.  1.
         13    1    5    5    0    0 -0.20879371168E+03 -0.13186941300E+03  0.70680145523E+03  0.74870064327E+03  0.00000000000E+00 0.  1.
        -13    1    5    5    0    0 -0.18902094904E+03 -0.21501391316E+03  0.10180074395E+04  0.10574965952E+04  0.00000000000E+00 0. -1.
          3    1    6    6  503    0  0.29140240233E+02  0.55460467540E+02  0.20662306324E+03  0.21591226765E+03  0.00000000000E+00 0. -1.
         -3    1    6    6    0  503  0.24746867141E+03  0.16463264832E+03  0.61329881887E+03  0.68152776426E+03  0.00000000000E+00 0.  1.
<mgrwt>
<rscale>  0 0.13774370E+04</rscale>
<asrwt>0</asrwt>
<pdfrwt beam="1">  1        2 0.41971598E+00 0.13774370E+04</pdfrwt>
<pdfrwt beam="2">  1       -2 0.26748612E-01 0.13774370E+04</pdfrwt>
<totfact> 0.31777636E+01</totfact>
</mgrwt>
</event>
<event>
12    3  0.4773567E-008  0.1314006E+04  0.7818608E-02  0.9018532E-01
          1   -1    0    0  501    0  0.00000000000E+00  0.00000000000E+00  0.47671845556E+03  0.47671845556E+03  0.00000000000E+00 0. -1.
         -1   -1    0    0    0  501 -0.00000000000E+00 -0.00000000000E+00 -0.90546708533E+03  0.90546708533E+03  0.00000000000E+00 0.  1.
         23    2    1    2    0    0  0.25052033592E+02  0.10069469418E+03  0.22616964701E+03  0.26486745138E+03  0.90747075691E+02 0.  0.
        254    2    1    2    0    0 -0.25052033592E+02 -0.10069469418E+03 -0.65491827678E+03  0.11173180895E+04  0.89928568212E+03 0.  0.
         23    2    4    4    0    0 -0.43407825079E+03 -0.24284142236E+02 -0.18021079333E+03  0.47913218733E+03  0.89878114887E+02 0.  0.
         23    2    4    4    0    0  0.40902621719E+03 -0.76410551945E+02 -0.47470748345E+03  0.63818590218E+03  0.93771168763E+02 0.  0.
          1    1    3    3  502    0 -0.34473188481E+00  0.92363775316E+02  0.21825092841E+03  0.23699083017E+03  0.00000000000E+00 0. -1.
         -1    1    3    3    0  502  0.25396765476E+02  0.83309188651E+01  0.79187185992E+01  0.27876621210E+02  0.00000000000E+00 0.  1.
         13    1    5    5    0    0 -0.29802951431E+03 -0.31396522390E+02 -0.16486851666E+03  0.34203649046E+03  0.00000000000E+00 0.  1.
        -13    1    5    5    0    0 -0.13604873647E+03  0.71123801543E+01 -0.15342276665E+02  0.13709569687E+03  0.00000000000E+00 0. -1.
          2    1    6    6  503    0  0.39519839480E+03 -0.78336711533E+02 -0.47662758356E+03  0.62409315414E+03  0.00000000000E+00 0. -1.
         -2    1    6    6    0  503  0.13827822394E+02  0.19261595874E+01  0.19201001105E+01  0.14092748041E+02  0.00000000000E+00 0.  1.
<mgrwt>
<rscale>  0 0.13140059E+04</rscale>
<asrwt>0</asrwt>
<pdfrwt beam="1">  1        1 0.73341302E-01 0.13140059E+04</pdfrwt>
<pdfrwt beam="2">  1       -1 0.13930263E+00 0.13140059E+04</pdfrwt>
<totfact> 0.19731581E+01</totfact>
</mgrwt>
</event>
<event>
12    3  0.4773567E-008  0.3143812E+04  0.7818608E-02  0.8203816E-01
          1   -1    0    0  501    0  0.00000000000E+00  0.00000000000E+00  0.35831980060E+04  0.35831980060E+04  0.00000000000E+00 0. -1.
         -1   -1    0    0    0  501 -0.00000000000E+00 -0.00000000000E+00 -0.68957635499E+03  0.68957635499E+03  0.00000000000E+00 0.  1.
         23    2    1    2    0    0  0.11768429820E+04 -0.23622178171E+03  0.24870982318E+03  0.12293438531E+04  0.93110678489E+02 0.  0.
        254    2    1    2    0    0 -0.11768429820E+04  0.23622178171E+03  0.26449118278E+04  0.30434305079E+04  0.90892823974E+03 0.  0.
         23    2    4    4    0    0 -0.11737661871E+04 -0.74899558575E+02  0.19992907635E+04  0.23213758100E+04  0.91022461222E+02 0.  0.
         23    2    4    4    0    0 -0.30767948884E+01  0.31112134028E+03  0.64562106427E+03  0.72205469782E+03  0.87923108334E+02 0.  0.
          3    1    3    3  502    0  0.89421872830E+03 -0.21204887253E+03  0.16613099190E+03  0.93391186140E+03  0.00000000000E+00 0. -1.
         -3    1    3    3    0  502  0.28262425373E+03 -0.24172909177E+02  0.82578831282E+02  0.29543199168E+03  0.00000000000E+00 0.  1.
         13    1    5    5    0    0 -0.47945830433E+03 -0.26840565960E+02  0.90509058418E+03  0.10245924298E+04  0.00000000000E+00 0.  1.
        -13    1    5    5    0    0 -0.69430788281E+03 -0.48058992615E+02  0.10942001793E+04  0.12967833803E+04  0.00000000000E+00 0. -1.
          1    1    6    6  503    0  0.65929554275E+00  0.19043485431E+03  0.48547952883E+03  0.52149423901E+03  0.00000000000E+00 0. -1.
         -1    1    6    6    0  503 -0.37360904312E+01  0.12068648597E+03  0.16014153544E+03  0.20056045881E+03  0.00000000000E+00 0.  1.
<mgrwt>
<rscale>  0 0.31438121E+04</rscale>
<asrwt>0</asrwt>
<pdfrwt beam="1">  1        1 0.55126122E+00 0.31438121E+04</pdfrwt>
<pdfrwt beam="2">  1       -1 0.10608867E+00 0.31438121E+04</pdfrwt>
<totfact> 0.14973904E-01</totfact>
</mgrwt>
</event>
<event>
12    3  0.4773567E-008  0.2382830E+04  0.7818608E-02  0.8445960E-01
         -1   -1    0    0    0  501 -0.00000000000E+00  0.00000000000E+00  0.52479720757E+03  0.52479720757E+03  0.00000000000E+00 0.  1.
          1   -1    0    0  501    0  0.00000000000E+00 -0.00000000000E+00 -0.27047974959E+04  0.27047974959E+04  0.00000000000E+00 0. -1.
         23    2    1    2    0    0  0.12365675109E+03 -0.87915240641E+03 -0.25381089916E+03  0.92763011139E+03  0.88756437723E+02 0.  0.
        254    2    1    2    0    0 -0.12365675109E+03  0.87915240641E+03 -0.19261893891E+04  0.23019645921E+04  0.89478236148E+03 0.  0.
         23    2    4    4    0    0 -0.45859635154E+03  0.76087813681E+03 -0.13601156740E+04  0.16273201810E+04  0.94921926638E+02 0.  0.
         23    2    4    4    0    0  0.33493960045E+03  0.11827426960E+03 -0.56607371515E+03  0.67464441104E+03  0.92370404163E+02 0.  0.
          4    1    3    3  502    0  0.10069275437E+02 -0.32687710862E+02 -0.28073107140E+02  0.44249023647E+02  0.00000000000E+00 0. -1.
         -4    1    3    3    0  502  0.11358747566E+03 -0.84646469555E+03 -0.22573779202E+03  0.88338108774E+03  0.00000000000E+00 0.  1.
         13    1    5    5    0    0 -0.32495181251E+03  0.61301101281E+03 -0.10379957009E+04  0.12485236311E+04  0.00000000000E+00 0. -1.
        -13    1    5    5    0    0 -0.13364453903E+03  0.14786712400E+03 -0.32211997308E+03  0.37879654992E+03  0.00000000000E+00 0.  1.
          2    1    6    6  503    0  0.12572838602E+03  0.30402896533E+02 -0.13185892992E+03  0.18471258909E+03  0.00000000000E+00 0.  1.
         -2    1    6    6    0  503  0.20921121443E+03  0.87871373065E+02 -0.43421478522E+03  0.48993182194E+03  0.00000000000E+00 0. -1.
<mgrwt>
<rscale>  0 0.23828304E+04</rscale>
<asrwt>0</asrwt>
<pdfrwt beam="1">  1        1 0.41612268E+00 0.23828304E+04</pdfrwt>
<pdfrwt beam="2">  1       -1 0.80738033E-01 0.23828304E+04</pdfrwt>
<totfact> 0.13366109E+00</totfact>
</mgrwt>
</event>
<event>
12    3  0.4773567E-008  0.2959731E+04  0.7818608E-02  0.8255324E-01
          2   -1    0    0  501    0  0.00000000000E+00  0.00000000000E+00  0.22302454960E+04  0.22302454960E+04  0.00000000000E+00 0. -1.
         -2   -1    0    0    0  501 -0.00000000000E+00 -0.00000000000E+00 -0.98195579601E+03  0.98195579601E+03  0.00000000000E+00 0.  1.
         23    2    1    2    0    0 -0.35516569494E+03 -0.62160541781E+03  0.17980509361E+04  0.19376985327E+04  0.95668533902E+02 0.  0.
        254    2    1    2    0    0  0.35516569494E+03  0.62160541781E+03 -0.54976123615E+03  0.12745027593E+04  0.89976880387E+03 0.  0.
         23    2    4    4    0    0  0.57462862833E+03  0.58495244515E+03 -0.61106149051E+03  0.10265740722E+04  0.89948634700E+02 0.  0.
         23    2    4    4    0    0 -0.21946293339E+03  0.36652972655E+02  0.61300254366E+02  0.24792868714E+03  0.90573137225E+02 0.  0.
          2    1    3    3  502    0 -0.23461295733E+03 -0.31457613586E+03  0.97892725164E+03  0.10546563180E+04  0.00000000000E+00 0. -1.
         -2    1    3    3    0  502 -0.12055273761E+03 -0.30702928195E+03  0.81912368447E+03  0.88304221472E+03  0.00000000000E+00 0.  1.
         13    1    5    5    0    0  0.15888286319E+01  0.17980173310E+02 -0.20263150550E+02  0.27136806719E+02  0.00000000000E+00 0.  1.
        -13    1    5    5    0    0  0.57303979970E+03  0.56697227184E+03 -0.59079833996E+03  0.99943726545E+03  0.00000000000E+00 0. -1.
          3    1    6    6  503    0 -0.18523798930E+03  0.59935339590E+02  0.67523964989E+02  0.20606999650E+03  0.00000000000E+00 0. -1.
         -3    1    6    6    0  503 -0.34224944087E+02 -0.23282366935E+02 -0.62237106236E+01  0.41858690636E+02  0.00000000000E+00 0.  1.
<mgrwt>
<rscale>  0 0.29597314E+04</rscale>
<asrwt>0</asrwt>
<pdfrwt beam="1">  1        2 0.34311469E+00 0.29597314E+04</pdfrwt>
<pdfrwt beam="2">  1       -2 0.15107012E+00 0.29597314E+04</pdfrwt>
<totfact> 0.12536846E+00</totfact>
</mgrwt>
</event>
<event>
12    3  0.4773567E-008  0.1804565E+04  0.7818608E-02  0.8703875E-01
          2   -1    0    0  501    0  0.00000000000E+00  0.00000000000E+00  0.31473717778E+04  0.31473717778E+04  0.00000000000E+00 0. -1.
         -2   -1    0    0    0  501 -0.00000000000E+00 -0.00000000000E+00 -0.25866474740E+03  0.25866474740E+03  0.00000000000E+00 0.  1.
         23    2    1    2    0    0  0.58145396005E+03  0.80946128325E+02  0.59088826832E+03  0.83783666377E+03  0.90445266192E+02 0.  0.
        254    2    1    2    0    0 -0.58145396005E+03 -0.80946128325E+02  0.22978187620E+04  0.25681998614E+04  0.98541284825E+03 0.  0.
         23    2    4    4    0    0 -0.16507731486E+03 -0.50330031491E+03  0.91370356277E+03  0.10595800846E+04  0.85405082606E+02 0.  0.
         23    2    4    4    0    0 -0.41637664519E+03  0.42235418659E+03  0.13841151993E+04  0.15086197768E+04  0.91685203581E+02 0.  0.
          4    1    3    3  502    0  0.80477325836E+02  0.39098375248E+02  0.67148919098E+02  0.11186715450E+03  0.00000000000E+00 0. -1.
         -4    1    3    3    0  502  0.50097663421E+03  0.41847753077E+02  0.52373934922E+03  0.72596950927E+03  0.00000000000E+00 0.  1.
         13    1    5    5    0    0 -0.59625303535E+02 -0.11710796730E+03  0.29095134372E+03  0.31925246630E+03  0.00000000000E+00 0.  1.
        -13    1    5    5    0    0 -0.10545201132E+03 -0.38619234761E+03  0.62275221905E+03  0.74032761827E+03  0.00000000000E+00 0. -1.
          4    1    6    6  503    0 -0.26922106261E+03  0.21751557813E+03  0.85772522003E+03  0.92492462415E+03  0.00000000000E+00 0. -1.
         -4    1    6    6    0  503 -0.14715558258E+03  0.20483860846E+03  0.52638997923E+03  0.58369515266E+03  0.00000000000E+00 0.  1.
<mgrwt>
<rscale>  0 0.18045655E+04</rscale>
<asrwt>0</asrwt>
<pdfrwt beam="1">  1        2 0.48421102E+00 0.18045655E+04</pdfrwt>
<pdfrwt beam="2">  1       -2 0.39794579E-01 0.18045655E+04</pdfrwt>
<totfact> 0.79488980E+00</totfact>
</mgrwt>
</event>
<event>
12    3  0.4773567E-008  0.2041416E+04  0.7818608E-02  0.8587498E-01
          2   -1    0    0  501    0  0.00000000000E+00  0.00000000000E+00  0.11300286546E+04  0.11300286546E+04  0.00000000000E+00 0. -1.
         -2   -1    0    0    0  501 -0.00000000000E+00 -0.00000000000E+00 -0.92196341959E+03  0.92196341959E+03  0.00000000000E+00 0.  1.
         23    2    1    2    0    0 -0.76334043629E+03  0.34863885070E+02  0.35067178151E+03  0.84562070969E+03  0.90551499971E+02 0.  0.
        254    2    1    2    0    0  0.76334043629E+03 -0.34863885070E+02 -0.14260654653E+03  0.12063713645E+04  0.92254600413E+03 0.  0.
         23    2    4    4    0    0  0.47408052930E+03  0.27847471108E+03 -0.41347483722E+03  0.69287272112E+03  0.82526684639E+02 0.  0.
         23    2    4    4    0    0  0.28925990699E+03 -0.31333859615E+03  0.27086829069E+03  0.51349864335E+03  0.91972040288E+02 0.  0.
          1    1    3    3  502    0 -0.29843593227E+03 -0.29201150018E+02  0.14870521706E+03  0.33470876059E+03  0.00000000000E+00 0. -1.
         -1    1    3    3    0  502 -0.46490450402E+03  0.64065035088E+02  0.20196656446E+03  0.51091194911E+03  0.00000000000E+00 0.  1.
         13    1    5    5    0    0  0.27007612192E+02  0.33731370122E+02 -0.14411073065E+02  0.45551020554E+02  0.00000000000E+00 0. -1.
        -13    1    5    5    0    0  0.44707291711E+03  0.24474334096E+03 -0.39906376416E+03  0.64732170056E+03  0.00000000000E+00 0.  1.
          2    1    6    6  503    0  0.57195693270E+02 -0.32887267304E+02  0.12597538248E+02  0.67168576353E+02  0.00000000000E+00 0. -1.
         -2    1    6    6    0  503  0.23206421372E+03 -0.28045132884E+03  0.25827075245E+03  0.44633006700E+03  0.00000000000E+00 0.  1.
<mgrwt>
<rscale>  0 0.20414163E+04</rscale>
<asrwt>0</asrwt>
<pdfrwt beam="1">  1        2 0.17385056E+00 0.20414163E+04</pdfrwt>
<pdfrwt beam="2">  1       -2 0.14184053E+00 0.20414163E+04</pdfrwt>
<totfact> 0.67118107E+00</totfact>
</mgrwt>
</event>
<event>
12    3  0.4773567E-008  0.2101002E+04  0.7818608E-02  0.8560802E-01
         -2   -1    0    0    0  501 -0.00000000000E+00  0.00000000000E+00  0.88612013353E+03  0.88612013353E+03  0.00000000000E+00 0.  1.
          2   -1    0    0  501    0  0.00000000000E+00 -0.00000000000E+00 -0.12453758559E+04  0.12453758559E+04  0.00000000000E+00 0. -1.
         23    2    1    2    0    0  0.44469725376E+03  0.72752172658E+03 -0.19224351050E+03  0.87877792964E+03  0.90827155377E+02 0.  0.
        254    2    1    2    0    0 -0.44469725376E+03 -0.72752172658E+03 -0.16701221185E+03  0.12527180598E+04  0.90242226714E+03 0.  0.
         23    2    4    4    0    0  0.51138650386E+02  0.14699584176E+03  0.10335350221E+03  0.20768142847E+03  0.90701103943E+02 0.  0.
         23    2    4    4    0    0 -0.49583590415E+03 -0.87451756833E+03 -0.27036571407E+03  0.10450366313E+04  0.91486175186E+02 0.  0.
          3    1    3    3  502    0  0.41921730044E+03  0.71208559483E+03 -0.19448968839E+03  0.84890239618E+03  0.00000000000E+00 0. -1.
         -3    1    3    3    0  502  0.25479953322E+02  0.15436131752E+02  0.22461778900E+01  0.29875533466E+02  0.00000000000E+00 0.  1.
         13    1    5    5    0    0  0.50622068133E+02  0.79413308139E+02  0.10371982309E+03  0.14009592782E+03  0.00000000000E+00 0.  1.
        -13    1    5    5    0    0  0.51658225234E+00  0.67582533618E+02 -0.36632087132E+00  0.67585500652E+02  0.00000000000E+00 0. -1.
          3    1    6    6  503    0 -0.39286266599E+03 -0.75597199529E+03 -0.23981372871E+03  0.88506799539E+03  0.00000000000E+00 0. -1.
         -3    1    6    6    0  503 -0.10297323815E+03 -0.11854557305E+03 -0.30551985353E+02  0.15996863591E+03  0.00000000000E+00 0.  1.
<mgrwt>
<rscale>  0 0.21010023E+04</rscale>
<asrwt>0</asrwt>
<pdfrwt beam="1">  1        2 0.19159628E+00 0.21010023E+04</pdfrwt>
<pdfrwt beam="2">  1       -2 0.13632618E+00 0.21010023E+04</pdfrwt>
<totfact> 0.63115852E+00</totfact>
</mgrwt>
</event>
<event>
12    3  0.4773567E-008  0.1114416E+04  0.7818608E-02  0.9191254E-01
          2   -1    0    0  501    0  0.00000000000E+00  0.00000000000E+00  0.86851224631E+03  0.86851224631E+03  0.00000000000E+00 0. -1.
         -2   -1    0    0    0  501 -0.00000000000E+00 -0.00000000000E+00 -0.35748559353E+03  0.35748559353E+03  0.00000000000E+00 0.  1.
         23    2    1    2    0    0  0.10229268442E+03 -0.98434587426E+02  0.18843273583E+03  0.25283452211E+03  0.90913356285E+02 0.  0.
        254    2    1    2    0    0 -0.10229268442E+03  0.98434587426E+02  0.32259391695E+03  0.97316331772E+03  0.90709803573E+03 0.  0.
         23    2    4    4    0    0  0.25323210257E+03  0.27368777908E+03 -0.90648385520E+02  0.39335693267E+03  0.86493054612E+02 0.  0.
         23    2    4    4    0    0 -0.35552478699E+03 -0.17525319165E+03  0.41324230247E+03  0.57980638505E+03  0.91075179094E+02 0.  0.
          1    1    3    3  502    0  0.95289692290E+02 -0.81496141266E+02  0.19626802454E+03  0.23290101750E+03  0.00000000000E+00 0. -1.
         -1    1    3    3    0  502  0.70029921259E+01 -0.16938446160E+02 -0.78352887016E+01  0.19933504611E+02  0.00000000000E+00 0.  1.
         13    1    5    5    0    0  0.74827803429E+02  0.34628829789E+02 -0.32086335512E+01  0.82514552339E+02  0.00000000000E+00 0. -1.
        -13    1    5    5    0    0  0.17840429914E+03  0.23905894929E+03 -0.87439751969E+02  0.31084238033E+03  0.00000000000E+00 0.  1.
          4    1    6    6  503    0 -0.33907971965E+03 -0.13820796855E+03  0.37297777650E+03  0.52267477518E+03  0.00000000000E+00 0.  1.
         -4    1    6    6    0  503 -0.16445067341E+02 -0.37045223107E+02  0.40264525968E+02  0.57131609870E+02  0.00000000000E+00 0. -1.
<mgrwt>
<rscale>  0 0.11144157E+04</rscale>
<asrwt>0</asrwt>
<pdfrwt beam="1">  1        2 0.13361727E+00 0.11144157E+04</pdfrwt>
<pdfrwt beam="2">  1       -2 0.54997784E-01 0.11144157E+04</pdfrwt>
<totfact> 0.95050179E+01</totfact>
</mgrwt>
</event>
<event>
12    3  0.4773567E-008  0.1432044E+04  0.7818608E-02  0.8930945E-01
         -2   -1    0    0    0  501 -0.00000000000E+00  0.00000000000E+00  0.70019006627E+03  0.70019006627E+03  0.00000000000E+00 0.  1.
          2   -1    0    0  501    0  0.00000000000E+00 -0.00000000000E+00 -0.73221165326E+03  0.73221165326E+03  0.00000000000E+00 0. -1.
         23    2    1    2    0    0  0.11077741298E+03  0.86968515665E+02 -0.41435680316E+03  0.44671696617E+03  0.89606526501E+02 0.  0.
        254    2    1    2    0    0 -0.11077741298E+03 -0.86968515665E+02  0.38233521617E+03  0.98568475336E+03  0.89752941876E+03 0.  0.
         23    2    4    4    0    0 -0.20573004034E+03 -0.34193442035E+03  0.52501137484E+03  0.66556767342E+03  0.89996593698E+02 0.  0.
         23    2    4    4    0    0  0.94952627363E+02  0.25496590469E+03 -0.14267615867E+03  0.32011707994E+03  0.89971354447E+02 0.  0.
          3    1    3    3  502    0  0.81070312601E+02  0.11192197169E+02 -0.25446293918E+03  0.26729954785E+03  0.00000000000E+00 0. -1.
         -3    1    3    3    0  502  0.29707100376E+02  0.75776318496E+02 -0.15989386398E+03  0.17941741832E+03  0.00000000000E+00 0.  1.
         13    1    5    5    0    0 -0.20470760402E+03 -0.34724983764E+03  0.51324800272E+03  0.65261869815E+03  0.00000000000E+00 0.  1.
        -13    1    5    5    0    0 -0.10224363207E+01  0.53154172867E+01  0.11763372116E+02  0.12948975268E+02  0.00000000000E+00 0. -1.
          2    1    6    6  503    0  0.23082921547E+02  0.18493907010E+02 -0.46085759841E+02  0.54760780890E+02  0.00000000000E+00 0. -1.
         -2    1    6    6    0  503  0.71869705816E+02  0.23647199768E+03 -0.96590398825E+02  0.26535629905E+03  0.00000000000E+00 0.  1.
<mgrwt>
<rscale>  0 0.14320438E+04</rscale>
<asrwt>0</asrwt>
<pdfrwt beam="1">  1        2 0.11264795E+00 0.14320438E+04</pdfrwt>
<pdfrwt beam="2">  1       -2 0.10772155E+00 0.14320438E+04</pdfrwt>
<totfact> 0.25964464E+01</totfact>
</mgrwt>
</event>
<event>
12    3  0.4773567E-008  0.1776837E+04  0.7818608E-02  0.8718715E-01
         -2   -1    0    0    0  501 -0.00000000000E+00  0.00000000000E+00  0.24193402249E+03  0.24193402249E+03  0.00000000000E+00 0.  1.
          2   -1    0    0  501    0  0.00000000000E+00 -0.00000000000E+00 -0.32624092324E+04  0.32624092324E+04  0.00000000000E+00 0. -1.
         23    2    1    2    0    0 -0.32120092557E+03  0.51245873869E+03 -0.64268093678E+03  0.88736008620E+03  0.92656044724E+02 0.  0.
        254    2    1    2    0    0  0.32120092557E+03 -0.51245873869E+03 -0.23777942731E+04  0.26169831687E+04  0.91044566364E+03 0.  0.
         23    2    4    4    0    0  0.96087836637E+02 -0.37867209810E+03 -0.25333889450E+03  0.47454536407E+03  0.91582077257E+02 0.  0.
         23    2    4    4    0    0  0.22511308893E+03 -0.13378664060E+03 -0.21244553786E+04  0.21424378046E+04  0.90301289263E+02 0.  0.
          4    1    3    3  502    0 -0.95605953830E+01  0.63659815041E+02 -0.84987985572E+02  0.10661582775E+03  0.00000000000E+00 0. -1.
         -4    1    3    3    0  502 -0.31164033019E+03  0.44879892365E+03 -0.55769295121E+03  0.78074425845E+03  0.00000000000E+00 0.  1.
         13    1    5    5    0    0  0.10426150489E+03 -0.28362104177E+03 -0.21883663175E+03  0.37309627193E+03  0.00000000000E+00 0.  1.
        -13    1    5    5    0    0 -0.81736682525E+01 -0.95051056329E+02 -0.34502262749E+02  0.10144909214E+03  0.00000000000E+00 0. -1.
          2    1    6    6  503    0  0.67102088721E+02 -0.50254135187E+01 -0.74075417319E+03  0.74380420151E+03  0.00000000000E+00 0.  1.
         -2    1    6    6    0  503  0.15801100021E+03 -0.12876122708E+03 -0.13837012054E+04  0.13986336031E+04  0.00000000000E+00 0. -1.
<mgrwt>
<rscale>  0 0.17768374E+04</rscale>
<asrwt>0</asrwt>
<pdfrwt beam="1">  1        2 0.50190910E+00 0.17768374E+04</pdfrwt>
<pdfrwt beam="2">  1       -2 0.37220620E-01 0.17768374E+04</pdfrwt>
<totfact> 0.76411805E+00</totfact>
</mgrwt>
</event>
<event>
12    3  0.5761753E-008  0.2493968E+04  0.7818608E-02  0.8405138E-01
          4   -1    0    0  501    0  0.00000000000E+00  0.00000000000E+00  0.15418932884E+04  0.15418932884E+04  0.00000000000E+00 0. -1.
         -4   -1    0    0    0  501 -0.00000000000E+00 -0.00000000000E+00 -0.10084803856E+04  0.10084803856E+04  0.00000000000E+00 0.  1.
         23    2    1    2    0    0  0.98654855134E+03  0.38123360864E+03  0.47498580991E+03  0.11622031519E+04  0.80545255680E+02 0.  0.
        254    2    1    2    0    0 -0.98654855134E+03 -0.38123360864E+03  0.58427092867E+02  0.13881705221E+04  0.89721043508E+03 0.  0.
         23    2    4    4    0    0 -0.63737446323E+03 -0.66129530698E+03 -0.27756595486E+02  0.92353210613E+03  0.92646818827E+02 0.  0.
         23    2    4    4    0    0 -0.34917408811E+03  0.28006169834E+03  0.86183688353E+02  0.46463841600E+03  0.90022945962E+02 0.  0.
          3    1    3    3  502    0  0.96363355052E+03  0.38432125614E+03  0.46178580213E+03  0.11355785198E+04  0.00000000000E+00 0. -1.
         -3    1    3    3    0  502  0.22915000813E+02 -0.30876474964E+01  0.13200007783E+02  0.26624632107E+02  0.00000000000E+00 0.  1.
         13    1    5    5    0    0 -0.60135118366E+03 -0.64794758454E+03 -0.19387635866E+02  0.88421445297E+03  0.00000000000E+00 0. -1.
        -13    1    5    5    0    0 -0.36023279563E+02 -0.13347722441E+02 -0.83689596207E+01  0.39317653159E+02  0.00000000000E+00 0.  1.
          2    1    6    6  503    0 -0.35072108384E+03  0.27059893330E+03  0.73970429791E+02  0.44911099500E+03  0.00000000000E+00 0. -1.
         -2    1    6    6    0  503  0.15469957286E+01  0.94627650482E+01  0.12213258562E+02  0.15527420998E+02  0.00000000000E+00 0.  1.
<mgrwt>
<rscale>  0 0.24939680E+04</rscale>
<asrwt>0</asrwt>
<pdfrwt beam="1">  1        4 0.23721435E+00 0.24939680E+04</pdfrwt>
<pdfrwt beam="2">  1       -4 0.15515083E+00 0.24939680E+04</pdfrwt>
<totfact> 0.36760125E-02</totfact>
</mgrwt>
</event>
<event>
12    3  0.4773567E-008  0.1160838E+04  0.7818608E-02  0.9147843E-01
         -1   -1    0    0    0  501 -0.00000000000E+00  0.00000000000E+00  0.39750855151E+03  0.39750855151E+03  0.00000000000E+00 0.  1.
          1   -1    0    0  501    0  0.00000000000E+00 -0.00000000000E+00 -0.84749361097E+03  0.84749361097E+03  0.00000000000E+00 0. -1.
         23    2    1    2    0    0  0.71974559183E+02 -0.13742878093E+03 -0.24487838309E+03  0.31196838310E+03  0.11529025350E+03 0.  0.
        254    2    1    2    0    0 -0.71974559183E+02  0.13742878093E+03 -0.20510667637E+03  0.93303377938E+03  0.89689256758E+03 0.  0.
         23    2    4    4    0    0 -0.18381105498E+03 -0.30842617961E+03 -0.27185495188E+03  0.45923613663E+03  0.89886050765E+02 0.  0.
         23    2    4    4    0    0  0.11183649580E+03  0.44585496054E+03  0.66748275507E+02  0.47379764276E+03  0.93460293010E+02 0.  0.
          4    1    3    3  502    0  0.82271380178E+02 -0.63555202904E+02 -0.19867092510E+03  0.22422751903E+03  0.00000000000E+00 0. -1.
         -4    1    3    3    0  502 -0.10296820994E+02 -0.73873578030E+02 -0.46207457990E+02  0.87740864068E+02  0.00000000000E+00 0.  1.
         13    1    5    5    0    0 -0.29227421646E+02 -0.14669527520E+02 -0.50814189603E+02  0.60427800545E+02  0.00000000000E+00 0. -1.
        -13    1    5    5    0    0 -0.15458363334E+03 -0.29375665209E+03 -0.22104076228E+03  0.39880833608E+03  0.00000000000E+00 0.  1.
          3    1    6    6  503    0  0.37567039959E+02  0.34310068096E+02  0.67408002007E+01  0.51321551529E+02  0.00000000000E+00 0. -1.
         -3    1    6    6    0  503  0.74269455842E+02  0.41154489244E+03  0.60007475306E+02  0.42247609123E+03  0.00000000000E+00 0.  1.
<mgrwt>
<rscale>  0 0.11608376E+04</rscale>
<asrwt>0</asrwt>
<pdfrwt beam="1">  1        1 0.13038363E+00 0.11608376E+04</pdfrwt>
<pdfrwt beam="2">  1       -1 0.61155162E-01 0.11608376E+04</pdfrwt>
<totfact> 0.54169191E+01</totfact>
</mgrwt>
</event>
<event>
12    3  0.4773567E-008  0.1999151E+04  0.7818608E-02  0.8607018E-01
          1   -1    0    0  501    0  0.00000000000E+00  0.00000000000E+00  0.12460940985E+04  0.12460940985E+04  0.00000000000E+00 0. -1.
         -1   -1    0    0    0  501 -0.00000000000E+00 -0.00000000000E+00 -0.80182618822E+03  0.80182618822E+03  0.00000000000E+00 0.  1.
         23    2    1    2    0    0  0.25205701488E+03 -0.20097072901E+03  0.92118257563E+03  0.98021120007E+03  0.91184902395E+02 0.  0.
        254    2    1    2    0    0 -0.25205701488E+03  0.20097072901E+03 -0.47691466535E+03  0.10677090867E+04  0.89924030327E+03 0.  0.
         23    2    4    4    0    0  0.41848501061E+01  0.21255319090E+03 -0.68648517119E+03  0.72455119311E+03  0.92283092964E+02 0.  0.
         23    2    4    4    0    0 -0.25624186499E+03 -0.11582461889E+02  0.20957050584E+03  0.34315789354E+03  0.89685540573E+02 0.  0.
          2    1    3    3  502    0  0.18487747010E+03 -0.11016342212E+03  0.50439803145E+03  0.54839131344E+03  0.00000000000E+00 0.  1.
         -2    1    3    3    0  502  0.67179544781E+02 -0.90807306893E+02  0.41678454418E+03  0.43181988663E+03  0.00000000000E+00 0. -1.
         13    1    5    5    0    0  0.11285972324E+02  0.78886688633E+01 -0.82021049304E+01  0.16027438754E+02  0.00000000000E+00 0. -1.
        -13    1    5    5    0    0 -0.71011222182E+01  0.20466452204E+03 -0.67828306625E+03  0.70852375436E+03  0.00000000000E+00 0.  1.
          1    1    6    6  503    0 -0.21727648455E+03 -0.26408020483E+02  0.13339880842E+03  0.25632342143E+03  0.00000000000E+00 0. -1.
         -1    1    6    6    0  503 -0.38965380437E+02  0.14825558594E+02  0.76171697415E+02  0.86834472113E+02  0.00000000000E+00 0.  1.
<mgrwt>
<rscale>  0 0.19991507E+04</rscale>
<asrwt>0</asrwt>
<pdfrwt beam="1">  1        1 0.19170678E+00 0.19991507E+04</pdfrwt>
<pdfrwt beam="2">  1       -1 0.12335788E+00 0.19991507E+04</pdfrwt>
<totfact> 0.53072480E+00</totfact>
</mgrwt>
</event>
<event>
12    3  0.4773567E-008  0.2180027E+04  0.7818608E-02  0.8526788E-01
         -1   -1    0    0    0  501 -0.00000000000E+00  0.00000000000E+00  0.63360897779E+03  0.63360897779E+03  0.00000000000E+00 0.  1.
          1   -1    0    0  501    0  0.00000000000E+00 -0.00000000000E+00 -0.18751769019E+04  0.18751769019E+04  0.00000000000E+00 0. -1.
         23    2    1    2    0    0 -0.48250514992E+03 -0.74839259030E+03 -0.31971122581E+03  0.94961227434E+03  0.81520026682E+02 0.  0.
        254    2    1    2    0    0  0.48250514992E+03  0.74839259030E+03 -0.92185669827E+03  0.15591736053E+04  0.88786252901E+03 0.  0.
         23    2    4    4    0    0  0.40889035162E+03  0.92966493127E+03 -0.63603877209E+03  0.12017859849E+04  0.90972687542E+02 0.  0.
         23    2    4    4    0    0  0.73614798304E+02 -0.18127234097E+03 -0.28581792618E+03  0.35738762038E+03  0.88063750493E+02 0.  0.
          1    1    3    3  502    0 -0.19654542487E+03 -0.29211921072E+03 -0.16836484013E+03  0.39026972301E+03  0.00000000000E+00 0. -1.
         -1    1    3    3    0  502 -0.28595972505E+03 -0.45627337959E+03 -0.15134638568E+03  0.55934255133E+03  0.00000000000E+00 0.  1.
         13    1    5    5    0    0  0.40165455969E+03  0.92900851370E+03 -0.62886937035E+03  0.11915787380E+04  0.00000000000E+00 0.  1.
        -13    1    5    5    0    0  0.72357919327E+01  0.65641757546E+00 -0.71694017442E+01  0.10207246950E+02  0.00000000000E+00 0. -1.
          4    1    6    6  503    0  0.29601858598E+02 -0.29980823136E+02 -0.16267053075E+02  0.45163445441E+02  0.00000000000E+00 0. -1.
         -4    1    6    6    0  503  0.44012939706E+02 -0.15129151783E+03 -0.26955087310E+03  0.31222417494E+03  0.00000000000E+00 0.  1.
<mgrwt>
<rscale>  0 0.21800265E+04</rscale>
<asrwt>0</asrwt>
<pdfrwt beam="1">  1        1 0.28848875E+00 0.21800265E+04</pdfrwt>
<pdfrwt beam="2">  1       -1 0.97478307E-01 0.21800265E+04</pdfrwt>
<totfact> 0.33413604E+00</totfact>
</mgrwt>
</event>
<event>
12    3  0.4773567E-008  0.1329934E+04  0.7818608E-02  0.9006159E-01
         -1   -1    0    0    0  501 -0.00000000000E+00  0.00000000000E+00  0.43289519926E+03  0.43289519926E+03  0.00000000000E+00 0.  1.
          1   -1    0    0  501    0  0.00000000000E+00 -0.00000000000E+00 -0.10214502997E+04  0.10214502997E+04  0.00000000000E+00 0. -1.
         23    2    1    2    0    0 -0.99195948070E+01 -0.34803686158E+03 -0.21992366678E+03  0.42557705751E+03  0.10733758562E+03 0.  0.
        254    2    1    2    0    0  0.99195948070E+01  0.34803686158E+03 -0.36863143369E+03  0.10287684415E+04  0.89512419077E+03 0.  0.
         23    2    4    4    0    0  0.27973409901E+03  0.12203561039E+02 -0.49051872532E+03  0.57209843758E+03  0.91037955473E+02 0.  0.
         23    2    4    4    0    0 -0.26981450420E+03  0.33583330054E+03  0.12188729163E+03  0.45667000391E+03  0.90039481204E+02 0.  0.
          4    1    3    3  502    0 -0.31201630015E+02 -0.26361623505E+02 -0.14661828412E+02  0.43398688020E+02  0.00000000000E+00 0.  1.
         -4    1    3    3    0  502  0.21282035208E+02 -0.32167523808E+03 -0.20526183837E+03  0.38217836949E+03  0.00000000000E+00 0. -1.
         13    1    5    5    0    0  0.19437813985E+02  0.33304226197E+01 -0.38103130922E+01  0.20085786347E+02  0.00000000000E+00 0.  1.
        -13    1    5    5    0    0  0.26029628502E+03  0.88731384194E+01 -0.48670841223E+03  0.55201265123E+03  0.00000000000E+00 0. -1.
          3    1    6    6  503    0 -0.25911382455E+03  0.33494704721E+03  0.13025973810E+03  0.44305428322E+03  0.00000000000E+00 0. -1.
         -3    1    6    6    0  503 -0.10700679648E+02  0.88625333682E+00 -0.83724464734E+01  0.13615720688E+02  0.00000000000E+00 0.  1.
<mgrwt>
<rscale>  0 0.13299337E+04</rscale>
<asrwt>0</asrwt>
<pdfrwt beam="1">  1        1 0.15714620E+00 0.13299337E+04</pdfrwt>
<pdfrwt beam="2">  1       -1 0.66599262E-01 0.13299337E+04</pdfrwt>
<totfact> 0.32608758E+01</totfact>
</mgrwt>
</event>
<event>
12    3  0.4773567E-008  0.1678752E+04  0.7818608E-02  0.8773577E-01
         -2   -1    0    0    0  501 -0.00000000000E+00  0.00000000000E+00  0.36142532619E+03  0.36142532619E+03  0.00000000000E+00 0.  1.
          2   -1    0    0  501    0  0.00000000000E+00 -0.00000000000E+00 -0.19493708026E+04  0.19493708026E+04  0.00000000000E+00 0. -1.
         23    2    1    2    0    0 -0.16788106273E+03  0.54853455468E+02 -0.11928340578E+04  0.12106157141E+04  0.10744470693E+03 0.  0.
        254    2    1    2    0    0  0.16788106273E+03 -0.54853455468E+02 -0.39511141860E+03  0.11001804146E+04  0.10114795890E+04 0.  0.
         23    2    4    4    0    0  0.22382646294E+03  0.32922665635E+03 -0.53978918351E+03  0.67683616420E+03  0.90809436608E+02 0.  0.
         23    2    4    4    0    0 -0.55945400212E+02 -0.38408011182E+03  0.14467776491E+03  0.42334425044E+03  0.87414407431E+02 0.  0.
          2    1    3    3  502    0 -0.18660409379E+02  0.54144637847E+02 -0.35743079191E+03  0.36198981158E+03  0.00000000000E+00 0.  1.
         -2    1    3    3    0  502 -0.14922065335E+03  0.70881762066E+00 -0.83540326590E+03  0.84862590255E+03  0.00000000000E+00 0. -1.
         13    1    5    5    0    0  0.55546530513E+02  0.15051247738E+03 -0.25003258156E+03  0.29707863393E+03  0.00000000000E+00 0. -1.
        -13    1    5    5    0    0  0.16827993243E+03  0.17871417897E+03 -0.28975660195E+03  0.37975753027E+03  0.00000000000E+00 0.  1.
          1    1    6    6  503    0 -0.32356310269E+01  0.23063561893E+01 -0.43331593515E+01  0.58791884626E+01  0.00000000000E+00 0. -1.
         -1    1    6    6    0  503 -0.52709769185E+02 -0.38638646800E+03  0.14901092426E+03  0.41746506198E+03  0.00000000000E+00 0.  1.
<mgrwt>
<rscale>  0 0.16787519E+04</rscale>
<asrwt>0</asrwt>
<pdfrwt beam="1">  1        2 0.29990320E+00 0.16787519E+04</pdfrwt>
<pdfrwt beam="2">  1       -2 0.55603896E-01 0.16787519E+04</pdfrwt>
<totfact> 0.20650176E+01</totfact>
</mgrwt>
</event>
<event>
12    3  0.4773567E-008  0.2229567E+04  0.7818608E-02  0.8506221E-01
         -1   -1    0    0    0  501 -0.00000000000E+00  0.00000000000E+00  0.87724345186E+03  0.87724345186E+03  0.00000000000E+00 0.  1.
          1   -1    0    0  501    0  0.00000000000E+00 -0.00000000000E+00 -0.14166448615E+04  0.14166448615E+04  0.00000000000E+00 0. -1.
         23    2    1    2    0    0 -0.66299286528E+03  0.55878170183E+03  0.12864692040E+03  0.88121745325E+03  0.90540819905E+02 0.  0.
        254    2    1    2    0    0  0.66299286528E+03 -0.55878170183E+03 -0.66804833009E+03  0.14126708601E+04  0.89305870919E+03 0.  0.
         23    2    4    4    0    0  0.76860481690E+03 -0.20360225298E+03 -0.64979620483E+03  0.10309825579E+04  0.92101492532E+02 0.  0.
         23    2    4    4    0    0 -0.10561195162E+03 -0.35517944885E+03 -0.18252125253E+02  0.38168830223E+03  0.89702256222E+02 0.  0.
          1    1    3    3  502    0 -0.10088282366E+03  0.12267217888E+03  0.43610126125E+02  0.16470473788E+03  0.00000000000E+00 0. -1.
         -1    1    3    3    0  502 -0.56211004163E+03  0.43610952295E+03  0.85036794278E+02  0.71651271537E+03  0.00000000000E+00 0.  1.
         13    1    5    5    0    0  0.56008749826E+03 -0.11201469120E+03 -0.49259876778E+03  0.75425383179E+03  0.00000000000E+00 0.  1.
        -13    1    5    5    0    0  0.20851731865E+03 -0.91587561783E+02 -0.15719743705E+03  0.27672872613E+03  0.00000000000E+00 0. -1.
          4    1    6    6  503    0  0.13907447834E+02 -0.55276095671E+02 -0.14543949672E+02  0.58825082490E+02  0.00000000000E+00 0. -1.
         -4    1    6    6    0  503 -0.11951939945E+03 -0.29990335318E+03 -0.37081755810E+01  0.32286321974E+03  0.00000000000E+00 0.  1.
<mgrwt>
<rscale>  0 0.22295672E+04</rscale>
<asrwt>0</asrwt>
<pdfrwt beam="1">  1        1 0.21794536E+00 0.22295672E+04</pdfrwt>
<pdfrwt beam="2">  1       -1 0.13496053E+00 0.22295672E+04</pdfrwt>
<totfact> 0.31353596E+00</totfact>
</mgrwt>
</event>
<event>
12    3  0.4773567E-008  0.3091676E+04  0.7818608E-02  0.8218026E-01
         -2   -1    0    0    0  501 -0.00000000000E+00  0.00000000000E+00  0.16336704337E+04  0.16336704337E+04  0.00000000000E+00 0.  1.
          2   -1    0    0  501    0  0.00000000000E+00 -0.00000000000E+00 -0.14627274152E+04  0.14627274152E+04  0.00000000000E+00 0. -1.
         23    2    1    2    0    0 -0.42447656354E+03  0.30901899194E+02 -0.12604327173E+04  0.13334496143E+04  0.90895316538E+02 0.  0.
        254    2    1    2    0    0  0.42447656354E+03 -0.30901899194E+02  0.14313757359E+04  0.17629482346E+04  0.93702438610E+03 0.  0.
         23    2    4    4    0    0  0.42168941428E+03  0.39945647151E+03  0.77653422362E+03  0.97409015836E+03  0.91971742457E+02 0.  0.
         23    2    4    4    0    0  0.27871492566E+01 -0.43035837071E+03  0.65484151226E+03  0.78885807622E+03  0.90904140658E+02 0.  0.
          3    1    3    3  502    0 -0.52936444167E+02 -0.26344675579E+02 -0.15986065742E+03  0.17044570644E+03  0.00000000000E+00 0.  1.
         -3    1    3    3    0  502 -0.37154011937E+03  0.57246574773E+02 -0.11005720599E+04  0.11630039079E+04  0.00000000000E+00 0. -1.
         13    1    5    5    0    0  0.48187043447E+01  0.32036092175E+02  0.44192126093E+02  0.54794845761E+02  0.00000000000E+00 0. -1.
        -13    1    5    5    0    0  0.41687070994E+03  0.36742037934E+03  0.73234209752E+03  0.91929531260E+03  0.00000000000E+00 0.  1.
          1    1    6    6  503    0 -0.19089946740E+02 -0.89252830576E+02  0.87082829373E+02  0.12615035872E+03  0.00000000000E+00 0. -1.
         -1    1    6    6    0  503  0.21877095996E+02 -0.34110554013E+03  0.56775868289E+03  0.66270771750E+03  0.00000000000E+00 0.  1.
<mgrwt>
<rscale>  0 0.30916756E+04</rscale>
<asrwt>0</asrwt>
<pdfrwt beam="1">  1        2 0.22503499E+00 0.30916756E+04</pdfrwt>
<pdfrwt beam="2">  1       -2 0.25133391E+00 0.30916756E+04</pdfrwt>
<totfact> 0.71396279E-01</totfact>
</mgrwt>
</event>
<event>
12    3  0.4773567E-008  0.1353149E+04  0.7818608E-02  0.8988448E-01
          2   -1    0    0  501    0  0.00000000000E+00  0.00000000000E+00  0.35307244381E+03  0.35307244381E+03  0.00000000000E+00 0.  1.
         -2   -1    0    0    0  501 -0.00000000000E+00 -0.00000000000E+00 -0.12964839849E+04  0.12964839849E+04  0.00000000000E+00 0. -1.
         23    2    1    2    0    0 -0.30701873254E+03 -0.26474347316E+02 -0.51877565304E+03  0.61032866436E+03  0.91714269109E+02 0.  0.
        254    2    1    2    0    0  0.30701873254E+03  0.26474347316E+02 -0.42463588806E+03  0.10392277644E+04  0.89706037455E+03 0.  0.
         23    2    4    4    0    0  0.44675972123E+03  0.35636329107E+03 -0.25188783415E+03  0.63127507073E+03  0.92041785088E+02 0.  0.
         23    2    4    4    0    0 -0.13974098869E+03 -0.32988894375E+03 -0.17274805391E+03  0.40795269362E+03  0.90715219083E+02 0.  0.
          1    1    3    3  502    0 -0.15287244583E+03 -0.47230307997E+02 -0.20436041795E+03  0.25954550105E+03  0.00000000000E+00 0. -1.
         -1    1    3    3    0  502 -0.15414628670E+03  0.20755960680E+02 -0.31441523509E+03  0.35078316331E+03  0.00000000000E+00 0.  1.
         13    1    5    5    0    0  0.38654119767E+02  0.22959459770E+02  0.45960332718E+01  0.45192934069E+02  0.00000000000E+00 0. -1.
        -13    1    5    5    0    0  0.40810560146E+03  0.33340383130E+03 -0.25648386742E+03  0.58608213666E+03  0.00000000000E+00 0.  1.
          2    1    6    6  503    0 -0.11069958711E+03 -0.14693803049E+03 -0.95076815917E+02  0.20708641751E+03  0.00000000000E+00 0. -1.
         -2    1    6    6    0  503 -0.29041401582E+02 -0.18295091326E+03 -0.77671237989E+02  0.20086627611E+03  0.00000000000E+00 0.  1.
<mgrwt>
<rscale>  0 0.13531486E+04</rscale>
<asrwt>0</asrwt>
<pdfrwt beam="1">  1        2 0.54318837E-01 0.13531486E+04</pdfrwt>
<pdfrwt beam="2">  1       -2 0.19945907E+00 0.13531486E+04</pdfrwt>
<totfact> 0.11971944E+01</totfact>
</mgrwt>
</event>
<event>
12    3  0.4773567E-008  0.1413820E+04  0.7818608E-02  0.8943875E-01
         -2   -1    0    0    0  501 -0.00000000000E+00  0.00000000000E+00  0.41770568115E+03  0.41770568115E+03  0.00000000000E+00 0. -1.
          2   -1    0    0  501    0  0.00000000000E+00 -0.00000000000E+00 -0.11963483775E+04  0.11963483775E+04  0.00000000000E+00 0.  1.
         23    2    1    2    0    0 -0.29963453138E+03 -0.26597979665E+03 -0.11252228104E+03  0.42613223454E+03  0.91658676408E+02 0.  0.
        254    2    1    2    0    0  0.29963453138E+03  0.26597979665E+03 -0.66612041530E+03  0.11879218241E+04  0.89828489237E+03 0.  0.
         23    2    4    4    0    0 -0.17095891400E+03  0.40901214088E+03 -0.46437674322E+03  0.64849829837E+03  0.91577298945E+02 0.  0.
         23    2    4    4    0    0  0.47059344538E+03 -0.14303234422E+03 -0.20174367207E+03  0.53942352573E+03  0.91437347724E+02 0.  0.
          4    1    3    3  502    0 -0.23023258848E+03 -0.19775724797E+03 -0.12456280913E+03  0.32807143634E+03  0.00000000000E+00 0. -1.
         -4    1    3    3    0  502 -0.69401942898E+02 -0.68222548679E+02  0.12040528093E+02  0.98060798197E+02  0.00000000000E+00 0.  1.
         13    1    5    5    0    0 -0.14893828398E+03  0.38448228982E+03 -0.39179463779E+03  0.56878140074E+03  0.00000000000E+00 0. -1.
        -13    1    5    5    0    0 -0.22020630022E+02  0.24529851052E+02 -0.72582105434E+02  0.79716897634E+02  0.00000000000E+00 0.  1.
          4    1    6    6  503    0  0.36404330923E+03 -0.76960648823E+02 -0.17519251740E+03  0.41126985133E+03  0.00000000000E+00 0. -1.
         -4    1    6    6    0  503  0.10655013615E+03 -0.66071695400E+02 -0.26551154676E+02  0.12815367439E+03  0.00000000000E+00 0.  1.
<mgrwt>
<rscale>  0 0.14138197E+04</rscale>
<asrwt>0</asrwt>
<pdfrwt beam="1">  1        2 0.18405359E+00 0.14138197E+04</pdfrwt>
<pdfrwt beam="2">  1       -2 0.64262414E-01 0.14138197E+04</pdfrwt>
<totfact> 0.41415308E+01</totfact>
</mgrwt>
</event>
<event>
12    3  0.4773567E-008  0.1658735E+04  0.7818608E-02  0.8785256E-01
         -1   -1    0    0    0  501 -0.00000000000E+00  0.00000000000E+00  0.19173500167E+03  0.19173500167E+03  0.00000000000E+00 0.  1.
          1   -1    0    0  501    0  0.00000000000E+00 -0.00000000000E+00 -0.35875045813E+04  0.35875045813E+04  0.00000000000E+00 0. -1.
         23    2    1    2    0    0 -0.43027448928E+03  0.25634162247E+03 -0.18731051254E+04  0.19411055503E+04  0.92308087343E+02 0.  0.
        254    2    1    2    0    0  0.43027448928E+03 -0.25634162247E+03 -0.15226644543E+04  0.18381340327E+04  0.89965688930E+03 0.  0.
         23    2    4    4    0    0  0.37292089252E+03 -0.13334987798E+03 -0.11712701261E+03  0.42302905805E+03  0.91556893973E+02 0.  0.
         23    2    4    4    0    0  0.57353596754E+02 -0.12299174449E+03 -0.14055374417E+04  0.14151049747E+04  0.92575294660E+02 0.  0.
          2    1    3    3  502    0 -0.36249208869E+03  0.21750786717E+03 -0.14304034030E+04  0.14915643070E+04  0.00000000000E+00 0. -1.
         -2    1    3    3    0  502 -0.67782400582E+02  0.38833755305E+02 -0.44270172239E+03  0.44954124325E+03  0.00000000000E+00 0.  1.
         13    1    5    5    0    0  0.33704446776E+03 -0.10157467760E+03 -0.12676142821E+03  0.37414549049E+03  0.00000000000E+00 0. -1.
        -13    1    5    5    0    0  0.35876424767E+02 -0.31775200381E+02  0.96344155970E+01  0.48883567558E+02  0.00000000000E+00 0.  1.
          2    1    6    6  503    0  0.26379655480E+02  0.94957087766E+01 -0.21625071817E+03  0.21806060584E+03  0.00000000000E+00 0.  1.
         -2    1    6    6    0  503  0.30973941274E+02 -0.13248745327E+03 -0.11892867235E+04  0.11970443689E+04  0.00000000000E+00 0. -1.
<mgrwt>
<rscale>  0 0.16587347E+04</rscale>
<asrwt>0</asrwt>
<pdfrwt beam="1">  1        1 0.55192378E+00 0.16587347E+04</pdfrwt>
<pdfrwt beam="2">  1       -1 0.29497693E-01 0.16587347E+04</pdfrwt>
<totfact> 0.21572817E+00</totfact>
</mgrwt>
</event>
<event>
12    3  0.4773567E-008  0.1646915E+04  0.7818608E-02  0.8792233E-01
         -2   -1    0    0    0  501 -0.00000000000E+00  0.00000000000E+00  0.32266539693E+03  0.32266539693E+03  0.00000000000E+00 0. -1.
          2   -1    0    0  501    0  0.00000000000E+00 -0.00000000000E+00 -0.21015035619E+04  0.21015035619E+04  0.00000000000E+00 0.  1.
         23    2    1    2    0    0  0.12499727825E+03  0.17447287536E+03 -0.14211021355E+04  0.14404472643E+04  0.96394697931E+02 0.  0.
        254    2    1    2    0    0 -0.12499727825E+03 -0.17447287536E+03 -0.35773602941E+03  0.98372169450E+03  0.89088057656E+03 0.  0.
         23    2    4    4    0    0 -0.40044138527E+03 -0.12014643418E+03  0.97248936221E+02  0.43981368783E+03  0.95865821487E+02 0.  0.
         23    2    4    4    0    0  0.27544410702E+03 -0.54326441180E+02 -0.45498496563E+03  0.54390800667E+03  0.10001891055E+03 0.  0.
          2    1    3    3  502    0  0.23930655555E+02  0.65290403189E+02 -0.23566295020E+03  0.24570823984E+03  0.00000000000E+00 0. -1.
         -2    1    3    3    0  502  0.10106662269E+03  0.10918247217E+03 -0.11854391853E+04  0.11947390244E+04  0.00000000000E+00 0.  1.
         13    1    5    5    0    0 -0.33581027433E+03 -0.87248211274E+02  0.11432271615E+03  0.36530873812E+03  0.00000000000E+00 0. -1.
        -13    1    5    5    0    0 -0.64631110932E+02 -0.32898222903E+02 -0.17073779931E+02  0.74504949712E+02  0.00000000000E+00 0.  1.
          4    1    6    6  503    0  0.24139702143E+03 -0.81148021809E+02 -0.38655087291E+03  0.46290290639E+03  0.00000000000E+00 0. -1.
         -4    1    6    6    0  503  0.34047085586E+02  0.26821580630E+02 -0.68434092719E+02  0.81005100276E+02  0.00000000000E+00 0.  1.
<mgrwt>
<rscale>  0 0.16469153E+04</rscale>
<asrwt>0</asrwt>
<pdfrwt beam="1">  1        2 0.32330824E+00 0.16469153E+04</pdfrwt>
<pdfrwt beam="2">  1       -2 0.49640830E-01 0.16469153E+04</pdfrwt>
<totfact> 0.21527370E+01</totfact>
</mgrwt>
</event>
<event>
12    3  0.4773567E-008  0.3213104E+04  0.7818608E-02  0.8185365E-01
         -1   -1    0    0    0  501 -0.00000000000E+00  0.00000000000E+00  0.39779656372E+04  0.39779656372E+04  0.00000000000E+00 0.  1.
          1   -1    0    0  501    0  0.00000000000E+00 -0.00000000000E+00 -0.64882646672E+03  0.64882646672E+03  0.00000000000E+00 0. -1.
         23    2    1    2    0    0  0.60935997957E+03 -0.41446931021E+03 -0.28755360826E+03  0.79634063236E+03  0.91470931605E+02 0.  0.
        254    2    1    2    0    0 -0.60935997957E+03  0.41446931021E+03  0.36166927788E+04  0.38304514716E+04  0.10241032303E+04 0.  0.
         23    2    4    4    0    0 -0.48278059940E+02 -0.19629558929E+03  0.15698525124E+03  0.27156144381E+03  0.90766288963E+02 0.  0.
         23    2    4    4    0    0 -0.56108191963E+03  0.61076489949E+03  0.34597075275E+04  0.35588900278E+04  0.90969064994E+02 0.  0.
          3    1    3    3  502    0  0.46399743424E+03 -0.30877773936E+03 -0.25813579447E+03  0.61422422591E+03  0.00000000000E+00 0. -1.
         -3    1    3    3    0  502  0.14536254533E+03 -0.10569157084E+03 -0.29417813786E+02  0.18211640645E+03  0.00000000000E+00 0.  1.
         13    1    5    5    0    0 -0.34002847711E+02 -0.16445001123E+03  0.77897742858E+02  0.18511633691E+03  0.00000000000E+00 0.  1.
        -13    1    5    5    0    0 -0.14275212229E+02 -0.31845578054E+02  0.79087508379E+02  0.86445106902E+02  0.00000000000E+00 0. -1.
          1    1    6    6  503    0 -0.19729600484E+01  0.19172176275E+02  0.56795165793E+02  0.59976293416E+02  0.00000000000E+00 0. -1.
         -1    1    6    6    0  503 -0.55910895958E+03  0.59159272322E+03  0.34029123617E+04  0.34989137344E+04  0.00000000000E+00 0.  1.
<mgrwt>
<rscale>  0 0.32131040E+04</rscale>
<asrwt>0</asrwt>
<pdfrwt beam="1">  1        1 0.99819458E-01 0.32131040E+04</pdfrwt>
<pdfrwt beam="2">  1       -1 0.61199470E+00 0.32131040E+04</pdfrwt>
<totfact> 0.10023193E-02</totfact>
</mgrwt>
</event>
<event>
12    3  0.4773567E-008  0.3081274E+04  0.7818608E-02  0.8220896E-01
         -2   -1    0    0    0  501 -0.00000000000E+00  0.00000000000E+00  0.14746919273E+04  0.14746919273E+04  0.00000000000E+00 0.  1.
          2   -1    0    0  501    0  0.00000000000E+00 -0.00000000000E+00 -0.16095306162E+04  0.16095306162E+04  0.00000000000E+00 0. -1.
         23    2    1    2    0    0 -0.93227530941E+03  0.10255990005E+04  0.79546914422E+02  0.13900634512E+04  0.70413950595E+02 0.  0.
        254    2    1    2    0    0  0.93227530941E+03 -0.10255990005E+04 -0.21438560328E+03  0.16941590923E+04  0.95038059783E+03 0.  0.
         23    2    4    4    0    0  0.57121805468E+03 -0.13219577682E+03  0.22143549993E+03  0.63290344416E+03  0.88132284580E+02 0.  0.
         23    2    4    4    0    0  0.36105725473E+03 -0.89340322367E+03 -0.43582110322E+03  0.10612556481E+04  0.88271487079E+02 0.  0.
          4    1    3    3  502    0 -0.56672713347E+02  0.55138415870E+02  0.20306455572E+02  0.81635736541E+02  0.00000000000E+00 0. -1.
         -4    1    3    3    0  502 -0.87560259607E+03  0.97046058462E+03  0.59240458850E+02  0.13084277147E+04  0.00000000000E+00 0.  1.
         13    1    5    5    0    0  0.81546056832E+02  0.11985366607E+02  0.28877502568E+02  0.87334520965E+02  0.00000000000E+00 0.  1.
        -13    1    5    5    0    0  0.48967199785E+03 -0.14418114343E+03  0.19255799736E+03  0.54556892319E+03  0.00000000000E+00 0. -1.
          1    1    6    6  503    0  0.12550413238E+03 -0.42624053287E+03 -0.20834501487E+03  0.49075444402E+03  0.00000000000E+00 0. -1.
         -1    1    6    6    0  503  0.23555312235E+03 -0.46716269080E+03 -0.22747608835E+03  0.57050120411E+03  0.00000000000E+00 0.  1.
<mgrwt>
<rscale>  0 0.30812736E+04</rscale>
<asrwt>0</asrwt>
<pdfrwt beam="1">  1        2 0.24762009E+00 0.30812736E+04</pdfrwt>
<pdfrwt beam="2">  1       -2 0.22687568E+00 0.30812736E+04</pdfrwt>
<totfact> 0.83786982E-01</totfact>
</mgrwt>
</event>
<event>
12    3  0.4773567E-008  0.1903338E+04  0.7818608E-02  0.8653197E-01
          1   -1    0    0  501    0  0.00000000000E+00  0.00000000000E+00  0.10594369991E+04  0.10594369991E+04  0.00000000000E+00 0. -1.
         -1   -1    0    0    0  501 -0.00000000000E+00 -0.00000000000E+00 -0.85486321078E+03  0.85486321078E+03  0.00000000000E+00 0.  1.
         23    2    1    2    0    0  0.11783488832E+03 -0.43131780211E+03  0.66213302420E+03  0.80435311988E+03  0.92971460224E+02 0.  0.
        254    2    1    2    0    0 -0.11783488832E+03  0.43131780211E+03 -0.45755923587E+03  0.11099470900E+04  0.90702920623E+03 0.  0.
         23    2    4    4    0    0 -0.48826499973E+03  0.10880749296E+03 -0.19121030337E+03  0.54377902310E+03  0.94299869395E+02 0.  0.
         23    2    4    4    0    0  0.37043011140E+03  0.32251030915E+03 -0.26634893250E+03  0.56616806690E+03  0.91504968127E+02 0.  0.
          4    1    3    3  502    0  0.10909889365E+03 -0.42518615225E+03  0.61230285836E+03  0.75339274155E+03  0.00000000000E+00 0. -1.
         -4    1    3    3    0  502  0.87359946773E+01 -0.61316498540E+01  0.49830165832E+02  0.50960378333E+02  0.00000000000E+00 0.  1.
         13    1    5    5    0    0 -0.41326022223E+03  0.10117840056E+03 -0.12501844434E+03  0.44345314458E+03  0.00000000000E+00 0.  1.
        -13    1    5    5    0    0 -0.75004777496E+02  0.76290923997E+01 -0.66191859030E+02  0.10032587852E+03  0.00000000000E+00 0. -1.
          3    1    6    6  503    0  0.35900936202E+02  0.14657689716E+02  0.94357205562E+00  0.38789372465E+02  0.00000000000E+00 0. -1.
         -3    1    6    6    0  503  0.33452917520E+03  0.30785261943E+03 -0.26729250456E+03  0.52737869444E+03  0.00000000000E+00 0.  1.
<mgrwt>
<rscale>  0 0.19033378E+04</rscale>
<asrwt>0</asrwt>
<pdfrwt beam="1">  1        1 0.16299031E+00 0.19033378E+04</pdfrwt>
<pdfrwt beam="2">  1       -1 0.13151742E+00 0.19033378E+04</pdfrwt>
<totfact> 0.62699405E+00</totfact>
</mgrwt>
</event>
<event>
12    3  0.4773567E-008  0.1445547E+04  0.7818608E-02  0.8921493E-01
          2   -1    0    0  501    0  0.00000000000E+00  0.00000000000E+00  0.27299107234E+04  0.27299107234E+04  0.00000000000E+00 0. -1.
         -2   -1    0    0    0  501 -0.00000000000E+00 -0.00000000000E+00 -0.19136216038E+03  0.19136216038E+03  0.00000000000E+00 0.  1.
         23    2    1    2    0    0  0.24144266123E+03  0.28840449569E+03  0.12403721173E+04  0.12989275759E+04  0.84959675147E+02 0.  0.
        254    2    1    2    0    0 -0.24144266123E+03 -0.28840449569E+03  0.12981764457E+04  0.16223453078E+04  0.89736865436E+03 0.  0.
         23    2    4    4    0    0 -0.53650621833E+03 -0.47955673559E+02  0.53569447980E+03  0.76509152581E+03  0.90872428468E+02 0.  0.
         23    2    4    4    0    0  0.29506355709E+03 -0.24044882213E+03  0.76248196593E+03  0.85725378203E+03  0.92882504498E+02 0.  0.
          3    1    3    3  502    0  0.16170169824E+03  0.12759961392E+03  0.67957285608E+03  0.71010447641E+03  0.00000000000E+00 0. -1.
         -3    1    3    3    0  502  0.79740962989E+02  0.16080488177E+03  0.56079926117E+03  0.58882309951E+03  0.00000000000E+00 0.  1.
         13    1    5    5    0    0 -0.29766175025E+03  0.18179222671E+02  0.30307417208E+03  0.42519049317E+03  0.00000000000E+00 0.  1.
        -13    1    5    5    0    0 -0.23884446807E+03 -0.66134896230E+02  0.23262030772E+03  0.33990103264E+03  0.00000000000E+00 0. -1.
          2    1    6    6  503    0  0.19047282829E+03 -0.98480511002E+02  0.38719759172E+03  0.44260624080E+03  0.00000000000E+00 0. -1.
         -2    1    6    6    0  503  0.10459072880E+03 -0.14196831113E+03  0.37528437421E+03  0.41464754123E+03  0.00000000000E+00 0.  1.
<mgrwt>
<rscale>  0 0.14455471E+04</rscale>
<asrwt>0</asrwt>
<pdfrwt beam="1">  1        2 0.41998624E+00 0.14455471E+04</pdfrwt>
<pdfrwt beam="2">  1       -2 0.29440334E-01 0.14455471E+04</pdfrwt>
<totfact> 0.26396823E+01</totfact>
</mgrwt>
</event>
<event>
12    3  0.4773567E-008  0.1747684E+04  0.7818608E-02  0.8734626E-01
         -2   -1    0    0    0  501 -0.00000000000E+00  0.00000000000E+00  0.26377336884E+03  0.26377336884E+03  0.00000000000E+00 0.  1.
          2   -1    0    0  501    0  0.00000000000E+00 -0.00000000000E+00 -0.28949099075E+04  0.28949099075E+04  0.00000000000E+00 0. -1.
         23    2    1    2    0    0 -0.12279044089E+01  0.53915159129E+03 -0.35254514914E+03  0.65033524096E+03  0.89229464336E+02 0.  0.
        254    2    1    2    0    0  0.12279044089E+01 -0.53915159129E+03 -0.22785913895E+04  0.25083480353E+04  0.89952498580E+03 0.  0.
         23    2    4    4    0    0  0.68002677640E+02 -0.70155296951E+03 -0.10753365051E+04  0.12890274388E+04  0.91881475192E+02 0.  0.
         23    2    4    4    0    0 -0.66774773231E+02  0.16240137821E+03 -0.12032548843E+04  0.12193205966E+04  0.89929541932E+02 0.  0.
          1    1    3    3  502    0  0.18403775407E+02  0.37019531196E+02 -0.11140938777E+02  0.42816645783E+02  0.00000000000E+00 0. -1.
         -1    1    3    3    0  502 -0.19631679816E+02  0.50213206010E+03 -0.34140421036E+03  0.60751859517E+03  0.00000000000E+00 0.  1.
         13    1    5    5    0    0 -0.78603242448E+01 -0.16819738733E+02 -0.12284109237E+02  0.22261797952E+02  0.00000000000E+00 0.  1.
        -13    1    5    5    0    0  0.75863001885E+02 -0.68473323077E+03 -0.10630523959E+04  0.12667656408E+04  0.00000000000E+00 0. -1.
          3    1    6    6  503    0 -0.15592325044E+02  0.12899939558E+03 -0.66246069439E+03  0.67508379944E+03  0.00000000000E+00 0. -1.
         -3    1    6    6    0  503 -0.51182448188E+02  0.33401982629E+02 -0.54079418996E+03  0.54423679712E+03  0.00000000000E+00 0.  1.
<mgrwt>
<rscale>  0 0.17476843E+04</rscale>
<asrwt>0</asrwt>
<pdfrwt beam="1">  1        2 0.44537073E+00 0.17476843E+04</pdfrwt>
<pdfrwt beam="2">  1       -2 0.40580521E-01 0.17476843E+04</pdfrwt>
<totfact> 0.11069141E+01</totfact>
</mgrwt>
</event>
<event>
12    3  0.4773567E-008  0.1205176E+04  0.7818608E-02  0.9108338E-01
          2   -1    0    0  501    0  0.00000000000E+00  0.00000000000E+00  0.36887139596E+04  0.36887139596E+04  0.00000000000E+00 0.  1.
         -2   -1    0    0    0  501 -0.00000000000E+00 -0.00000000000E+00 -0.98438688249E+02  0.98438688249E+02  0.00000000000E+00 0. -1.
         23    2    1    2    0    0 -0.20284018014E+03  0.10967568454E+03  0.47212644443E+03  0.53346377588E+03  0.92235167840E+02 0.  0.
        254    2    1    2    0    0  0.20284018014E+03 -0.10967568454E+03  0.31181488269E+04  0.32536888720E+04  0.90025900402E+03 0.  0.
         23    2    4    4    0    0  0.18969849981E+03 -0.47823997114E+03  0.21756961201E+04  0.22376020480E+04  0.92251434691E+02 0.  0.
         23    2    4    4    0    0  0.13141680328E+02  0.36856428660E+03  0.94245270681E+03  0.10160868240E+04  0.90570371608E+02 0.  0.
          2    1    3    3  502    0 -0.18751570006E+03  0.79227461966E+02  0.44683059506E+03  0.49101599687E+03  0.00000000000E+00 0. -1.
         -2    1    3    3    0  502 -0.15324480077E+02  0.30448222572E+02  0.25295849368E+02  0.42447779008E+02  0.00000000000E+00 0.  1.
         13    1    5    5    0    0  0.10105038234E+02  0.14442135099E+01  0.33362933300E+02  0.34889581092E+02  0.00000000000E+00 0.  1.
        -13    1    5    5    0    0  0.17959346157E+03 -0.47968418465E+03  0.21423331868E+04  0.22027124669E+04  0.00000000000E+00 0. -1.
          3    1    6    6  503    0 -0.17796473795E+02  0.12581955518E+02  0.69364322520E+02  0.72707835360E+02  0.00000000000E+00 0.  1.
         -3    1    6    6    0  503  0.30938154123E+02  0.35598233108E+03  0.87308838429E+03  0.94337898864E+03  0.00000000000E+00 0. -1.
<mgrwt>
<rscale>  0 0.12051758E+04</rscale>
<asrwt>0</asrwt>
<pdfrwt beam="1">  1        2 0.56749435E+00 0.12051758E+04</pdfrwt>
<pdfrwt beam="2">  1       -2 0.15144416E-01 0.12051758E+04</pdfrwt>
<totfact> 0.20905365E+01</totfact>
</mgrwt>
</event>
<event>
12    3  0.4773567E-008  0.1769336E+04  0.7818608E-02  0.8722778E-01
          1   -1    0    0  501    0  0.00000000000E+00  0.00000000000E+00  0.88631020056E+03  0.88631020056E+03  0.00000000000E+00 0. -1.
         -1   -1    0    0    0  501 -0.00000000000E+00 -0.00000000000E+00 -0.88302896872E+03  0.88302896872E+03  0.00000000000E+00 0.  1.
         23    2    1    2    0    0  0.37779773318E+03 -0.26808482291E+01 -0.55463822254E+03  0.67737052368E+03  0.92026921662E+02 0.  0.
        254    2    1    2    0    0 -0.37779773318E+03  0.26808482291E+01  0.55791945437E+03  0.10919686456E+04  0.85929220365E+03 0.  0.
         23    2    4    4    0    0 -0.52267211646E+03  0.17801224847E+03  0.62303475080E+03  0.83779842565E+03  0.94124382551E+02 0.  0.
         23    2    4    4    0    0  0.14487438328E+03 -0.17533140024E+03 -0.65115296427E+02  0.25417021995E+03  0.92912927193E+02 0.  0.
          1    1    3    3  502    0  0.25908305054E+03  0.17969560326E+02 -0.30805510411E+03  0.40292043798E+03  0.00000000000E+00 0. -1.
         -1    1    3    3    0  502  0.11871468265E+03 -0.20650408556E+02 -0.24658311843E+03  0.27445008570E+03  0.00000000000E+00 0.  1.
         13    1    5    5    0    0 -0.51969445338E+03  0.16527871001E+03  0.61679925286E+03  0.82331081323E+03  0.00000000000E+00 0. -1.
        -13    1    5    5    0    0 -0.29776630879E+01  0.12733538461E+02  0.62354979376E+01  0.14487612423E+02  0.00000000000E+00 0.  1.
          4    1    6    6  503    0  0.11495977063E+03 -0.11397859138E+03 -0.85310087599E+02  0.18298819416E+03  0.00000000000E+00 0. -1.
         -4    1    6    6    0  503  0.29914612652E+02 -0.61352808856E+02  0.20194791172E+02  0.71182025787E+02  0.00000000000E+00 0.  1.
<mgrwt>
<rscale>  0 0.17693361E+04</rscale>
<asrwt>0</asrwt>
<pdfrwt beam="1">  1        1 0.13635542E+00 0.17693361E+04</pdfrwt>
<pdfrwt beam="2">  1       -1 0.13585061E+00 0.17693361E+04</pdfrwt>
<totfact> 0.80096873E+00</totfact>
</mgrwt>
</event>
<event>
12    3  0.4773567E-008  0.1924140E+04  0.7818608E-02  0.8642933E-01
         -1   -1    0    0    0  501 -0.00000000000E+00  0.00000000000E+00  0.16221921491E+04  0.16221921491E+04  0.00000000000E+00 0.  1.
          1   -1    0    0  501    0  0.00000000000E+00 -0.00000000000E+00 -0.57057254630E+03  0.57057254630E+03  0.00000000000E+00 0. -1.
         23    2    1    2    0    0 -0.37654747336E+03  0.64975838686E+03  0.33091981647E+03  0.82577144660E+03  0.91742008362E+02 0.  0.
        254    2    1    2    0    0  0.37654747336E+03 -0.64975838686E+03  0.72069978628E+03  0.13669932488E+04  0.88616499547E+03 0.  0.
         23    2    4    4    0    0  0.34173576130E+00 -0.54534250288E+03  0.78749976846E+03  0.96220386792E+03  0.91004592624E+02 0.  0.
         23    2    4    4    0    0  0.37620573760E+03 -0.10441588398E+03 -0.66799982179E+02  0.40478938083E+03  0.83419250695E+02 0.  0.
          3    1    3    3  502    0 -0.19672785149E+03  0.26785994540E+03  0.11529802639E+03  0.35177326902E+03  0.00000000000E+00 0. -1.
         -3    1    3    3    0  502 -0.17981962187E+03  0.38189844146E+03  0.21562179008E+03  0.47399817758E+03  0.00000000000E+00 0.  1.
         13    1    5    5    0    0 -0.32365407497E+02 -0.37171520776E+03  0.58028099996E+03  0.68988821863E+03  0.00000000000E+00 0. -1.
        -13    1    5    5    0    0  0.32707143258E+02 -0.17362729512E+03  0.20721876850E+03  0.27231564929E+03  0.00000000000E+00 0.  1.
          1    1    6    6  503    0  0.21991971453E+03 -0.95791621357E+02 -0.63887665595E+02  0.24823849294E+03  0.00000000000E+00 0. -1.
         -1    1    6    6    0  503  0.15628602307E+03 -0.86242626216E+01 -0.29123165835E+01  0.15655088790E+03  0.00000000000E+00 0.  1.
<mgrwt>
<rscale>  0 0.19241396E+04</rscale>
<asrwt>0</asrwt>
<pdfrwt beam="1">  1        1 0.87780392E-01 0.19241396E+04</pdfrwt>
<pdfrwt beam="2">  1       -1 0.24956802E+00 0.19241396E+04</pdfrwt>
<totfact> 0.24123801E+00</totfact>
</mgrwt>
</event>
<event>
12    3  0.4773567E-008  0.2751680E+04  0.7818608E-02  0.8318429E-01
          2   -1    0    0  501    0  0.00000000000E+00  0.00000000000E+00  0.14986720451E+04  0.14986720451E+04  0.00000000000E+00 0. -1.
         -2   -1    0    0    0  501 -0.00000000000E+00 -0.00000000000E+00 -0.12630753386E+04  0.12630753386E+04  0.00000000000E+00 0.  1.
         23    2    1    2    0    0 -0.76739907221E+03 -0.93440280606E+03 -0.80251038792E+02  0.12148391590E+04  0.85930280388E+02 0.  0.
        254    2    1    2    0    0  0.76739907221E+03  0.93440280606E+03  0.31584774527E+03  0.15469082247E+04  0.91167720022E+03 0.  0.
         23    2    4    4    0    0 -0.30877689909E+02  0.19836877742E+03 -0.23846062039E+03  0.32397158188E+03  0.88263892926E+02 0.  0.
         23    2    4    4    0    0  0.79827676212E+03  0.73603402864E+03  0.55430836566E+03  0.12229366428E+04  0.96562869830E+02 0.  0.
          4    1    3    3  502    0 -0.15835665786E+03 -0.21359451200E+03 -0.50896529380E+02  0.27072108036E+03  0.00000000000E+00 0. -1.
         -4    1    3    3    0  502 -0.60904241435E+03 -0.72080829406E+03 -0.29354509411E+02  0.94411807867E+03  0.00000000000E+00 0.  1.
         13    1    5    5    0    0 -0.59739950694E+02  0.16238474483E+03 -0.19305442762E+03  0.25924443887E+03  0.00000000000E+00 0.  1.
        -13    1    5    5    0    0  0.28862260786E+02  0.35984032598E+02 -0.45406192774E+02  0.64727143008E+02  0.00000000000E+00 0. -1.
          1    1    6    6  503    0  0.66420755494E+02  0.10240917930E+03  0.62352917030E+02  0.13706656422E+03  0.00000000000E+00 0. -1.
         -1    1    6    6    0  503  0.73185600662E+03  0.63362484933E+03  0.49195544863E+03  0.10858700786E+04  0.00000000000E+00 0.  1.
<mgrwt>
<rscale>  0 0.27516800E+04</rscale>
<asrwt>0</asrwt>
<pdfrwt beam="1">  1        2 0.23056493E+00 0.27516800E+04</pdfrwt>
<pdfrwt beam="2">  1       -2 0.19431928E+00 0.27516800E+04</pdfrwt>
<totfact> 0.16111830E+00</totfact>
</mgrwt>
</event>
<event>
12    3  0.4773567E-008  0.1760389E+04  0.7818608E-02  0.8727652E-01
          1   -1    0    0  501    0  0.00000000000E+00  0.00000000000E+00  0.12689718793E+04  0.12689718793E+04  0.00000000000E+00 0. -1.
         -1   -1    0    0    0  501 -0.00000000000E+00 -0.00000000000E+00 -0.61052780788E+03  0.61052780788E+03  0.00000000000E+00 0.  1.
         23    2    1    2    0    0 -0.38859145775E+03 -0.33639992177E+03 -0.17849893075E+03  0.55180520957E+03  0.91972238389E+02 0.  0.
        254    2    1    2    0    0  0.38859145775E+03  0.33639992177E+03  0.83694300220E+03  0.13276944776E+04  0.89338167019E+03 0.  0.
         23    2    4    4    0    0 -0.25651906337E+03  0.24413800478E+03  0.22715468461E+03  0.43060538313E+03  0.91740667042E+02 0.  0.
         23    2    4    4    0    0  0.64511052112E+03  0.92261916988E+02  0.60978831760E+03  0.89708909452E+03  0.90814125796E+02 0.  0.
          3    1    3    3  502    0 -0.17316582169E+02 -0.40467208776E+02  0.15064066538E+01  0.44042346272E+02  0.00000000000E+00 0. -1.
         -3    1    3    3    0  502 -0.37127487558E+03 -0.29593271299E+03 -0.18000533741E+03  0.50776286330E+03  0.00000000000E+00 0.  1.
         13    1    5    5    0    0 -0.25790044062E+03  0.21878555487E+03  0.19781193049E+03  0.39180264948E+03  0.00000000000E+00 0.  1.
        -13    1    5    5    0    0  0.13813772539E+01  0.25352449912E+02  0.29342754114E+02  0.38802733649E+02  0.00000000000E+00 0. -1.
          1    1    6    6  503    0  0.75093247125E+02  0.39332903408E+02  0.64956199134E+02  0.10679597773E+03  0.00000000000E+00 0. -1.
         -1    1    6    6    0  503  0.57001727399E+03  0.52929013580E+02  0.54483211846E+03  0.79029311678E+03  0.00000000000E+00 0.  1.
<mgrwt>
<rscale>  0 0.17603893E+04</rscale>
<asrwt>0</asrwt>
<pdfrwt beam="1">  1        1 0.19522644E+00 0.17603893E+04</pdfrwt>
<pdfrwt beam="2">  1       -1 0.93927356E-01 0.17603893E+04</pdfrwt>
<totfact> 0.99029228E+00</totfact>
</mgrwt>
</event>
<event>
12    3  0.4773567E-008  0.1745309E+04  0.7818608E-02  0.8735936E-01
          1   -1    0    0  501    0  0.00000000000E+00  0.00000000000E+00  0.70132761386E+03  0.70132761386E+03  0.00000000000E+00 0. -1.
         -1   -1    0    0    0  501 -0.00000000000E+00 -0.00000000000E+00 -0.10858351873E+04  0.10858351873E+04  0.00000000000E+00 0.  1.
         23    2    1    2    0    0 -0.62482692204E+03 -0.10153696172E+03 -0.22152218790E+03  0.67686041722E+03  0.91375639865E+02 0.  0.
        254    2    1    2    0    0  0.62482692204E+03  0.10153696172E+03 -0.16298538552E+03  0.11103023839E+04  0.89749022877E+03 0.  0.
         23    2    4    4    0    0  0.70501735113E+03  0.27012190983E+02 -0.41417066729E+03  0.82288955367E+03  0.88491536575E+02 0.  0.
         23    2    4    4    0    0 -0.80190429089E+02  0.74524770738E+02  0.25118528177E+03  0.28741283024E+03  0.86761989606E+02 0.  0.
          4    1    3    3  502    0 -0.49593642792E+03 -0.10604160278E+03 -0.20428250076E+03  0.54674409204E+03  0.00000000000E+00 0. -1.
         -4    1    3    3    0  502 -0.12889049412E+03  0.45046410589E+01 -0.17239687132E+02  0.13011632518E+03  0.00000000000E+00 0.  1.
         13    1    5    5    0    0  0.56913032307E+03  0.68676604711E+01 -0.36883525450E+03  0.67823000108E+03  0.00000000000E+00 0. -1.
        -13    1    5    5    0    0  0.13588702806E+03  0.20144530512E+02 -0.45335412786E+02  0.14465955260E+03  0.00000000000E+00 0.  1.
          1    1    6    6  503    0 -0.34695882456E+02  0.17999489493E+02  0.18538612251E+03  0.18946187031E+03  0.00000000000E+00 0. -1.
         -1    1    6    6    0  503 -0.45494546634E+02  0.56525281245E+02  0.65799159260E+02  0.97950959937E+02  0.00000000000E+00 0.  1.
<mgrwt>
<rscale>  0 0.17453094E+04</rscale>
<asrwt>0</asrwt>
<pdfrwt beam="1">  1        1 0.10789656E+00 0.17453094E+04</pdfrwt>
<pdfrwt beam="2">  1       -1 0.16705157E+00 0.17453094E+04</pdfrwt>
<totfact> 0.66626690E+00</totfact>
</mgrwt>
</event>
<event>
12    3  0.4773567E-008  0.1323574E+04  0.7818608E-02  0.9011077E-01
         -2   -1    0    0    0  501 -0.00000000000E+00  0.00000000000E+00  0.38992571408E+03  0.38992571408E+03  0.00000000000E+00 0.  1.
          2   -1    0    0  501    0  0.00000000000E+00 -0.00000000000E+00 -0.11231932099E+04  0.11231932099E+04  0.00000000000E+00 0. -1.
         23    2    1    2    0    0 -0.27403429895E+03 -0.19572131412E+03 -0.10481127985E+03  0.36470511310E+03  0.92858954010E+02 0.  0.
        254    2    1    2    0    0  0.27403429895E+03  0.19572131412E+03 -0.62845621594E+03  0.11484138108E+04  0.90027520003E+03 0.  0.
         23    2    4    4    0    0  0.18324772463E+03 -0.10874559013E+03  0.16826828581E+03  0.28650646869E+03  0.91468074407E+02 0.  0.
         23    2    4    4    0    0  0.90786574312E+02  0.30446690424E+03 -0.79672450175E+03  0.86190734215E+03  0.84687879422E+02 0.  0.
          2    1    3    3  502    0 -0.46498452360E+01  0.91774537121E+01 -0.68458276616E+01  0.12357672666E+02  0.00000000000E+00 0. -1.
         -2    1    3    3    0  502 -0.26938445371E+03 -0.20489876783E+03 -0.97965452192E+02  0.35234744044E+03  0.00000000000E+00 0.  1.
         13    1    5    5    0    0  0.91517423671E+02 -0.23333367439E+02  0.28240293432E+02  0.98576868710E+02  0.00000000000E+00 0.  1.
        -13    1    5    5    0    0  0.91730300963E+02 -0.85412222687E+02  0.14002799238E+03  0.18792959998E+03  0.00000000000E+00 0. -1.
          3    1    6    6  503    0  0.94952107507E+02  0.23845462593E+03 -0.69176417653E+03  0.73784428390E+03  0.00000000000E+00 0. -1.
         -3    1    6    6    0  503 -0.41655331950E+01  0.66012278311E+02 -0.10496032522E+03  0.12406305826E+03  0.00000000000E+00 0.  1.
<mgrwt>
<rscale>  0 0.13235738E+04</rscale>
<asrwt>0</asrwt>
<pdfrwt beam="1">  1        2 0.17279896E+00 0.13235738E+04</pdfrwt>
<pdfrwt beam="2">  1       -2 0.59988571E-01 0.13235738E+04</pdfrwt>
<totfact> 0.53454208E+01</totfact>
</mgrwt>
</event>
<event>
12    3  0.4773567E-008  0.2385148E+04  0.7818608E-02  0.8445085E-01
         -1   -1    0    0    0  501 -0.00000000000E+00  0.00000000000E+00  0.54074790294E+03  0.54074790294E+03  0.00000000000E+00 0.  1.
          1   -1    0    0  501    0  0.00000000000E+00 -0.00000000000E+00 -0.26301212473E+04  0.26301212473E+04  0.00000000000E+00 0. -1.
         23    2    1    2    0    0 -0.33899406017E+03  0.71032901094E+03 -0.17437046324E+04  0.19154795757E+04  0.95246435809E+02 0.  0.
        254    2    1    2    0    0  0.33899406017E+03 -0.71032901094E+03 -0.34566871198E+03  0.12553895745E+04  0.91489444673E+03 0.  0.
         23    2    4    4    0    0  0.14895480532E+03  0.20144237058E+03 -0.33739444518E+02  0.26905704808E+03  0.92123733713E+02 0.  0.
         23    2    4    4    0    0  0.19003925485E+03 -0.91177138152E+03 -0.31192926746E+03  0.98633252640E+03  0.90055617140E+02 0.  0.
          4    1    3    3  502    0 -0.23133857868E+03  0.56544245581E+03 -0.13917233106E+04  0.15199133140E+04  0.00000000000E+00 0. -1.
         -4    1    3    3    0  502 -0.10765548149E+03  0.14488655514E+03 -0.35198132174E+03  0.39556626171E+03  0.00000000000E+00 0.  1.
         13    1    5    5    0    0  0.60151165972E+02  0.63699703997E+02 -0.55529546190E+02  0.10372726525E+03  0.00000000000E+00 0. -1.
        -13    1    5    5    0    0  0.88803639350E+02  0.13774266658E+03  0.21790101672E+02  0.16532978283E+03  0.00000000000E+00 0.  1.
          2    1    6    6  503    0  0.12628858367E+03 -0.76373810944E+03 -0.24687296707E+03  0.81252136467E+03  0.00000000000E+00 0. -1.
         -2    1    6    6    0  503  0.63750671180E+02 -0.14803327208E+03 -0.65056300392E+02  0.17381116173E+03  0.00000000000E+00 0.  1.
<mgrwt>
<rscale>  0 0.23851478E+04</rscale>
<asrwt>0</asrwt>
<pdfrwt beam="1">  1        1 0.40463404E+00 0.23851478E+04</pdfrwt>
<pdfrwt beam="2">  1       -1 0.83191984E-01 0.23851478E+04</pdfrwt>
<totfact> 0.14143162E+00</totfact>
</mgrwt>
</event>
<event>
12    3  0.4773567E-008  0.1504945E+04  0.7818608E-02  0.8881171E-01
          1   -1    0    0  501    0  0.00000000000E+00  0.00000000000E+00  0.36597452093E+03  0.36597452093E+03  0.00000000000E+00 0. -1.
         -1   -1    0    0    0  501 -0.00000000000E+00 -0.00000000000E+00 -0.15471420412E+04  0.15471420412E+04  0.00000000000E+00 0.  1.
         23    2    1    2    0    0 -0.18174499253E+03  0.28030262545E+03 -0.82401664329E+03  0.89377868518E+03  0.90752991786E+02 0.  0.
        254    2    1    2    0    0  0.18174499253E+03 -0.28030262545E+03 -0.35715087702E+03  0.10193378770E+04  0.89436690142E+03 0.  0.
         23    2    4    4    0    0  0.46931217319E+03 -0.38397520518E+01 -0.28590014666E+01  0.47799868682E+03  0.90586484164E+02 0.  0.
         23    2    4    4    0    0 -0.28756718065E+03 -0.27646287340E+03 -0.35429187555E+03  0.54133919017E+03  0.91644868780E+02 0.  0.
          3    1    3    3  502    0 -0.52624068051E+01 -0.67904905829E+01 -0.13596203433E+02  0.16082923724E+02  0.00000000000E+00 0. -1.
         -3    1    3    3    0  502 -0.17648258573E+03  0.28709311604E+03 -0.81042043986E+03  0.87769576146E+03  0.00000000000E+00 0.  1.
         13    1    5    5    0    0  0.14716607212E+03 -0.43080799498E+02 -0.59322387934E+01  0.15345683278E+03  0.00000000000E+00 0. -1.
        -13    1    5    5    0    0  0.32214610107E+03  0.39241047446E+02  0.30732373267E+01  0.32454185404E+03  0.00000000000E+00 0.  1.
          2    1    6    6  503    0 -0.62553892897E+02 -0.10700064722E+03 -0.76131397054E+02  0.14545830207E+03  0.00000000000E+00 0. -1.
         -2    1    6    6    0  503 -0.22501328775E+03 -0.16946222618E+03 -0.27816047849E+03  0.39588088810E+03  0.00000000000E+00 0.  1.
<mgrwt>
<rscale>  0 0.15049446E+04</rscale>
<asrwt>0</asrwt>
<pdfrwt beam="1">  1        1 0.56303772E-01 0.15049446E+04</pdfrwt>
<pdfrwt beam="2">  1       -1 0.23802185E+00 0.15049446E+04</pdfrwt>
<totfact> 0.54560359E+00</totfact>
</mgrwt>
</event>
<event>
12    3  0.4773567E-008  0.1289647E+04  0.7818608E-02  0.9037815E-01
          1   -1    0    0  501    0  0.00000000000E+00  0.00000000000E+00  0.69314003118E+03  0.69314003118E+03  0.00000000000E+00 0. -1.
         -1   -1    0    0    0  501 -0.00000000000E+00 -0.00000000000E+00 -0.59987537866E+03  0.59987537866E+03  0.00000000000E+00 0.  1.
         23    2    1    2    0    0 -0.76787625351E+01  0.23832143695E+03 -0.19145977087E+03  0.31981171732E+03  0.93630229976E+02 0.  0.
        254    2    1    2    0    0  0.76787625351E+01 -0.23832143695E+03  0.28472442339E+03  0.97320369253E+03  0.89955620123E+03 0.  0.
         23    2    4    4    0    0  0.15976771554E+03 -0.47657213535E+03  0.40525933488E+03  0.65284756632E+03  0.96582054355E+02 0.  0.
         23    2    4    4    0    0 -0.15208895300E+03  0.23825069840E+03 -0.12053491149E+03  0.32035612620E+03  0.90581111695E+02 0.  0.
          4    1    3    3  502    0  0.17972030537E+02  0.22064850224E+03 -0.18379898963E+03  0.28773394657E+03  0.00000000000E+00 0.  1.
         -4    1    3    3    0  502 -0.25650793072E+02  0.17672934717E+02 -0.76607812420E+01  0.32077770745E+02  0.00000000000E+00 0. -1.
         13    1    5    5    0    0  0.71697445544E+02 -0.25339654019E+03  0.15233931852E+03  0.30423280271E+03  0.00000000000E+00 0. -1.
        -13    1    5    5    0    0  0.88070269995E+02 -0.22317559516E+03  0.25292001636E+03  0.34861476362E+03  0.00000000000E+00 0.  1.
          1    1    6    6  503    0 -0.15066032853E+03  0.23613324882E+03 -0.96610164170E+02  0.29629540936E+03  0.00000000000E+00 0. -1.
         -1    1    6    6    0  503 -0.14286244751E+01  0.21174495815E+01 -0.23924747318E+02  0.24060716840E+02  0.00000000000E+00 0.  1.
<mgrwt>
<rscale>  0 0.12896475E+04</rscale>
<asrwt>0</asrwt>
<pdfrwt beam="1">  1        1 0.10663693E+00 0.12896475E+04</pdfrwt>
<pdfrwt beam="2">  1       -1 0.92288520E-01 0.12896475E+04</pdfrwt>
<totfact> 0.31082985E+01</totfact>
</mgrwt>
</event>
<event>
12    3  0.4773567E-008  0.2172416E+04  0.7818608E-02  0.8529997E-01
         -1   -1    0    0    0  501 -0.00000000000E+00  0.00000000000E+00  0.66686744029E+03  0.66686744029E+03  0.00000000000E+00 0. -1.
          1   -1    0    0  501    0  0.00000000000E+00 -0.00000000000E+00 -0.17692396961E+04  0.17692396961E+04  0.00000000000E+00 0.  1.
         23    2    1    2    0    0 -0.42970453470E+03 -0.42212758879E+03  0.27964774420E+03  0.67014636040E+03  0.89752967434E+02 0.  0.
        254    2    1    2    0    0  0.42970453470E+03  0.42212758879E+03 -0.13820200000E+04  0.17659607759E+04  0.91967412353E+03 0.  0.
         23    2    4    4    0    0  0.97740041312E+02 -0.92451640910E+02  0.77988483648E+02  0.18007101336E+03  0.90790664108E+02 0.  0.
         23    2    4    4    0    0  0.33196449339E+03  0.51457922970E+03 -0.14600084836E+04  0.15858897626E+04  0.91811536923E+02 0.  0.
          4    1    3    3  502    0 -0.41261909391E+03 -0.37084772456E+03  0.25015221859E+03  0.60857101799E+03  0.00000000000E+00 0. -1.
         -4    1    3    3    0  502 -0.17085440793E+02 -0.51279864224E+02  0.29495525615E+02  0.61575342413E+02  0.00000000000E+00 0.  1.
         13    1    5    5    0    0  0.88833342967E+02 -0.10949904490E+03  0.58396246108E+02  0.15261561262E+03  0.00000000000E+00 0. -1.
        -13    1    5    5    0    0  0.89066983452E+01  0.17047403987E+02  0.19592237540E+02  0.27455400743E+02  0.00000000000E+00 0.  1.
          1    1    6    6  503    0  0.17451144810E+03  0.28689765567E+03 -0.91360449635E+03  0.97336410767E+03  0.00000000000E+00 0. -1.
         -1    1    6    6    0  503  0.15745304528E+03  0.22768157403E+03 -0.54640398727E+03  0.61252565491E+03  0.00000000000E+00 0.  1.
<mgrwt>
<rscale>  0 0.21724165E+04</rscale>
<asrwt>0</asrwt>
<pdfrwt beam="1">  1        1 0.27219072E+00 0.21724165E+04</pdfrwt>
<pdfrwt beam="2">  1       -1 0.10259499E+00 0.21724165E+04</pdfrwt>
<totfact> 0.35099929E+00</totfact>
</mgrwt>
</event>
<event>
12    3  0.4773567E-008  0.2071125E+04  0.7818608E-02  0.8574071E-01
          2   -1    0    0  501    0  0.00000000000E+00  0.00000000000E+00  0.86909483947E+03  0.86909483947E+03  0.00000000000E+00 0. -1.
         -2   -1    0    0    0  501 -0.00000000000E+00 -0.00000000000E+00 -0.12339157564E+04  0.12339157564E+04  0.00000000000E+00 0.  1.
         23    2    1    2    0    0  0.27879242430E+03  0.72591727578E+02  0.64841596508E+03  0.71540487450E+03  0.91466365073E+02 0.  0.
        254    2    1    2    0    0 -0.27879242430E+03 -0.72591727578E+02 -0.10132368820E+04  0.13876057214E+04  0.90321973192E+03 0.  0.
         23    2    4    4    0    0 -0.57873883387E+03 -0.32860091173E+02 -0.84839598960E+03  0.10316257053E+04  0.91964217348E+02 0.  0.
         23    2    4    4    0    0  0.29994640957E+03 -0.39731636405E+02 -0.16484089241E+03  0.35598001605E+03  0.89458372858E+02 0.  0.
          3    1    3    3  502    0  0.16902270329E+03  0.17337579801E+02  0.46076321411E+03  0.49109266475E+03  0.00000000000E+00 0. -1.
         -3    1    3    3    0  502  0.10976972101E+03  0.55254147777E+02  0.18765275097E+03  0.22431220975E+03  0.00000000000E+00 0.  1.
         13    1    5    5    0    0 -0.50845262987E+03 -0.49702393777E+02 -0.70038225594E+03  0.86690813193E+03  0.00000000000E+00 0. -1.
        -13    1    5    5    0    0 -0.70286203999E+02  0.16842302603E+02 -0.14801373366E+03  0.16471757338E+03  0.00000000000E+00 0.  1.
          4    1    6    6  503    0  0.19754146083E+03 -0.68583647699E+02 -0.10766462424E+03  0.23519782480E+03  0.00000000000E+00 0. -1.
         -4    1    6    6    0  503  0.10240494873E+03  0.28852011294E+02 -0.57176268178E+02  0.12078219125E+03  0.00000000000E+00 0.  1.
<mgrwt>
<rscale>  0 0.20711251E+04</rscale>
<asrwt>0</asrwt>
<pdfrwt beam="1">  1        2 0.13370690E+00 0.20711251E+04</pdfrwt>
<pdfrwt beam="2">  1       -2 0.18983319E+00 0.20711251E+04</pdfrwt>
<totfact> 0.44171395E+00</totfact>
</mgrwt>
</event>
<event>
12    3  0.4773567E-008  0.1642979E+04  0.7818608E-02  0.8794571E-01
         -2   -1    0    0    0  501 -0.00000000000E+00  0.00000000000E+00  0.14704817327E+04  0.14704817327E+04  0.00000000000E+00 0.  1.
          2   -1    0    0  501    0  0.00000000000E+00 -0.00000000000E+00 -0.45892797333E+03  0.45892797333E+03  0.00000000000E+00 0. -1.
         23    2    1    2    0    0 -0.15129105984E+03 -0.14260623880E+03 -0.26913333240E+03  0.35153771645E+03  0.88997142334E+02 0.  0.
        254    2    1    2    0    0  0.15129105984E+03  0.14260623880E+03  0.12806870917E+04  0.15778719895E+04  0.89793934333E+03 0.  0.
         23    2    4    4    0    0 -0.24216694294E+03 -0.21520271762E+03  0.26663539809E+03  0.42933528676E+03  0.90979750560E+02 0.  0.
         23    2    4    4    0    0  0.39345800278E+03  0.35780895643E+03  0.10140516936E+04  0.11485367028E+04  0.89438643746E+02 0.  0.
          3    1    3    3  502    0 -0.16195961361E+03 -0.12963959924E+03 -0.25931393447E+03  0.33208592072E+03  0.00000000000E+00 0. -1.
         -3    1    3    3    0  502  0.10668553771E+02 -0.12966639568E+02 -0.98193979265E+01  0.19451795724E+02  0.00000000000E+00 0.  1.
         13    1    5    5    0    0 -0.48970202709E+02 -0.11576270009E+02  0.71685409531E+02  0.87583609884E+02  0.00000000000E+00 0. -1.
        -13    1    5    5    0    0 -0.19319674023E+03 -0.20362644762E+03  0.19494998856E+03  0.34175167687E+03  0.00000000000E+00 0.  1.
          3    1    6    6  503    0 -0.28626410869E+01  0.97483692111E+01  0.34943161892E+02  0.36390245661E+02  0.00000000000E+00 0. -1.
         -3    1    6    6    0  503  0.39632064387E+03  0.34806058722E+03  0.97910853175E+03  0.11121464571E+04  0.00000000000E+00 0.  1.
<mgrwt>
<rscale>  0 0.16429792E+04</rscale>
<asrwt>0</asrwt>
<pdfrwt beam="1">  1        2 0.70604304E-01 0.16429792E+04</pdfrwt>
<pdfrwt beam="2">  1       -2 0.22622796E+00 0.16429792E+04</pdfrwt>
<totfact> 0.58643849E+00</totfact>
</mgrwt>
</event>
<event>
12    3  0.4773567E-008  0.1515252E+04  0.7818608E-02  0.8874373E-01
         -1   -1    0    0    0  501 -0.00000000000E+00  0.00000000000E+00  0.10765779009E+04  0.10765779009E+04  0.00000000000E+00 0.  1.
          1   -1    0    0  501    0  0.00000000000E+00 -0.00000000000E+00 -0.53316834858E+03  0.53316834858E+03  0.00000000000E+00 0. -1.
         23    2    1    2    0    0 -0.49114881750E+02 -0.48170600648E+02 -0.32591659771E+03  0.34473475174E+03  0.88812960893E+02 0.  0.
        254    2    1    2    0    0  0.49114881750E+02  0.48170600648E+02  0.86932615007E+03  0.12650114978E+04  0.91640245305E+03 0.  0.
         23    2    4    4    0    0  0.26425847091E+03  0.19417847268E+03 -0.13219072082E+02  0.34033094641E+03  0.90069920160E+02 0.  0.
         23    2    4    4    0    0 -0.21514358916E+03 -0.14600787203E+03  0.88254522216E+03  0.92468055137E+03  0.92428298092E+02 0.  0.
          2    1    3    3  502    0 -0.74838083571E+02 -0.39498375602E+02 -0.26084604044E+03  0.27422895041E+03  0.00000000000E+00 0. -1.
         -2    1    3    3    0  502  0.25723201820E+02 -0.86722250453E+01 -0.65070557266E+02  0.70505801336E+02  0.00000000000E+00 0.  1.
         13    1    5    5    0    0  0.60699770635E+02  0.39814555094E+01 -0.10501947125E+02  0.61730098303E+02  0.00000000000E+00 0. -1.
        -13    1    5    5    0    0  0.20355870028E+03  0.19019701717E+03 -0.27171249565E+01  0.27860084811E+03  0.00000000000E+00 0.  1.
          3    1    6    6  503    0 -0.36272533240E+02 -0.54116292584E+02  0.33730253159E+03  0.34353641380E+03  0.00000000000E+00 0. -1.
         -3    1    6    6    0  503 -0.17887105592E+03 -0.91891579444E+02  0.54524269056E+03  0.58114413757E+03  0.00000000000E+00 0.  1.
<mgrwt>
<rscale>  0 0.15152521E+04</rscale>
<asrwt>0</asrwt>
<pdfrwt beam="1">  1        1 0.82025900E-01 0.15152521E+04</pdfrwt>
<pdfrwt beam="2">  1       -1 0.16562737E+00 0.15152521E+04</pdfrwt>
<totfact> 0.10380289E+01</totfact>
</mgrwt>
</event>
<event>
12    3  0.4773567E-008  0.1259941E+04  0.7818608E-02  0.9061950E-01
         -2   -1    0    0    0  501 -0.00000000000E+00  0.00000000000E+00  0.10837604427E+03  0.10837604427E+03  0.00000000000E+00 0.  1.
          2   -1    0    0  501    0  0.00000000000E+00 -0.00000000000E+00 -0.36619031331E+04  0.36619031331E+04  0.00000000000E+00 0. -1.
         23    2    1    2    0    0 -0.35214085055E+02  0.12396700997E+03 -0.16927353452E+04  0.17001835322E+04  0.93076543300E+02 0.  0.
        254    2    1    2    0    0  0.35214085055E+02 -0.12396700997E+03 -0.18607917436E+04  0.20700956451E+04  0.89785422851E+03 0.  0.
         23    2    4    4    0    0 -0.25413156194E+03  0.12716289725E+03 -0.18915492411E+03  0.35274332284E+03  0.88853887264E+02 0.  0.
         23    2    4    4    0    0  0.28934564700E+03 -0.25112990721E+03 -0.16716368195E+04  0.17173523223E+04  0.90234189294E+02 0.  0.
          1    1    3    3  502    0 -0.21846455438E+02  0.13558173075E+03 -0.15912216084E+04  0.15971367757E+04  0.00000000000E+00 0. -1.
         -1    1    3    3    0  502 -0.13367629617E+02 -0.11614720781E+02 -0.10151373680E+03  0.10304675648E+03  0.00000000000E+00 0.  1.
         13    1    5    5    0    0 -0.16307535932E+03  0.62348457556E+02 -0.16098288513E+03  0.23747924600E+03  0.00000000000E+00 0. -1.
        -13    1    5    5    0    0 -0.91056202626E+02  0.64814439691E+02 -0.28172038973E+02  0.11526407684E+03  0.00000000000E+00 0.  1.
          3    1    6    6  503    0  0.94941941161E+02 -0.91200647328E+02 -0.77264362880E+03  0.78377911901E+03  0.00000000000E+00 0. -1.
         -3    1    6    6    0  503  0.19440370584E+03 -0.15992925988E+03 -0.89899319068E+03  0.93357320329E+03  0.00000000000E+00 0.  1.
<mgrwt>
<rscale>  0 0.12599406E+04</rscale>
<asrwt>0</asrwt>
<pdfrwt beam="1">  1        2 0.56336973E+00 0.12599406E+04</pdfrwt>
<pdfrwt beam="2">  1       -2 0.16673237E-01 0.12599406E+04</pdfrwt>
<totfact> 0.18424930E+01</totfact>
</mgrwt>
</event>
<event>
12    3  0.4773567E-008  0.2010837E+04  0.7818608E-02  0.8601571E-01
         -2   -1    0    0    0  501 -0.00000000000E+00  0.00000000000E+00  0.89426483131E+03  0.89426483131E+03  0.00000000000E+00 0.  1.
          2   -1    0    0  501    0  0.00000000000E+00 -0.00000000000E+00 -0.11303885686E+04  0.11303885686E+04  0.00000000000E+00 0. -1.
         23    2    1    2    0    0 -0.19440936848E+02 -0.25996467997E+03  0.66477719156E+03  0.71970467161E+03  0.89925052467E+02 0.  0.
        254    2    1    2    0    0  0.19440936848E+02  0.25996467997E+03 -0.90090092881E+03  0.13049487283E+04  0.90736382724E+03 0.  0.
         23    2    4    4    0    0 -0.15272900271E+03  0.54058351027E+03 -0.72089238743E+03  0.91889607499E+03  0.95537859184E+02 0.  0.
         23    2    4    4    0    0  0.17216993956E+03 -0.28061883030E+03 -0.18000854138E+03  0.38605265326E+03  0.90797357441E+02 0.  0.
          3    1    3    3  502    0 -0.30744318933E+02 -0.35444415998E+02  0.16801281419E+03  0.17444146727E+03  0.00000000000E+00 0. -1.
         -3    1    3    3    0  502  0.11303382086E+02 -0.22452026397E+03  0.49676437737E+03  0.54526320434E+03  0.00000000000E+00 0.  1.
         13    1    5    5    0    0 -0.94959168166E+02  0.18276446322E+03 -0.23078345289E+03  0.30932360848E+03  0.00000000000E+00 0.  1.
        -13    1    5    5    0    0 -0.57769834545E+02  0.35781904704E+03 -0.49010893454E+03  0.60957246651E+03  0.00000000000E+00 0. -1.
          1    1    6    6  503    0  0.14354188785E+03 -0.15138848314E+03 -0.99570123614E+02  0.23116434827E+03  0.00000000000E+00 0. -1.
         -1    1    6    6    0  503  0.28628051706E+02 -0.12923034716E+03 -0.80438417764E+02  0.15488830499E+03  0.00000000000E+00 0.  1.
<mgrwt>
<rscale>  0 0.20108374E+04</rscale>
<asrwt>0</asrwt>
<pdfrwt beam="1">  1        2 0.17390593E+00 0.20108374E+04</pdfrwt>
<pdfrwt beam="2">  1       -2 0.13757921E+00 0.20108374E+04</pdfrwt>
<totfact> 0.72801130E+00</totfact>
</mgrwt>
</event>
<event>
12    3  0.4773567E-008  0.2615353E+04  0.7818608E-02  0.8363005E-01
         -2   -1    0    0    0  501 -0.00000000000E+00  0.00000000000E+00  0.10639365962E+04  0.10639365962E+04  0.00000000000E+00 0. -1.
          2   -1    0    0  501    0  0.00000000000E+00 -0.00000000000E+00 -0.16072559106E+04  0.16072559106E+04  0.00000000000E+00 0.  1.
         23    2    1    2    0    0  0.64311895750E+03  0.27309313684E+03  0.69941078332E+03  0.99529029708E+03  0.11508899487E+03 0.  0.
        254    2    1    2    0    0 -0.64311895750E+03 -0.27309313684E+03 -0.12427300978E+04  0.16759022097E+04  0.88095871959E+03 0.  0.
         23    2    4    4    0    0 -0.33408207452E+03 -0.40606064186E+03 -0.12149062080E+04  0.13268813281E+04  0.90115965384E+02 0.  0.
         23    2    4    4    0    0 -0.30903688298E+03  0.13296750502E+03 -0.27823889725E+02  0.34902088155E+03  0.88641155701E+02 0.  0.
          1    1    3    3  502    0  0.57927542892E+03  0.22871143665E+03  0.66232591277E+03  0.90914496013E+03  0.00000000000E+00 0. -1.
         -1    1    3    3    0  502  0.63843528586E+02  0.44381700186E+02  0.37084870548E+02  0.86145336944E+02  0.00000000000E+00 0.  1.
         13    1    5    5    0    0 -0.15432345559E+03 -0.12246111839E+03 -0.41649462635E+03  0.46073878526E+03  0.00000000000E+00 0.  1.
        -13    1    5    5    0    0 -0.17975861893E+03 -0.28359952347E+03 -0.79841158170E+03  0.86614254288E+03  0.00000000000E+00 0. -1.
          3    1    6    6  503    0 -0.30118076949E+03  0.12816051875E+03 -0.44147126787E+02  0.33027858435E+03  0.00000000000E+00 0. -1.
         -3    1    6    6    0  503 -0.78561134946E+01  0.48069862693E+01  0.16323237062E+02  0.18742297202E+02  0.00000000000E+00 0.  1.
<mgrwt>
<rscale>  0 0.26153534E+04</rscale>
<asrwt>0</asrwt>
<pdfrwt beam="1">  1        2 0.24727014E+00 0.26153534E+04</pdfrwt>
<pdfrwt beam="2">  1       -2 0.16368255E+00 0.26153534E+04</pdfrwt>
<totfact> 0.23104868E+00</totfact>
</mgrwt>
</event>
<event>
12    3  0.4773567E-008  0.1964983E+04  0.7818608E-02  0.8623170E-01
          2   -1    0    0  501    0  0.00000000000E+00  0.00000000000E+00  0.80777116218E+03  0.80777116218E+03  0.00000000000E+00 0. -1.
         -2   -1    0    0    0  501 -0.00000000000E+00 -0.00000000000E+00 -0.11950035447E+04  0.11950035447E+04  0.00000000000E+00 0.  1.
         23    2    1    2    0    0  0.26247739309E+03 -0.62107279048E+03  0.22379604090E+03  0.71628990521E+03  0.91437232178E+02 0.  0.
        254    2    1    2    0    0 -0.26247739309E+03  0.62107279048E+03 -0.61102842341E+03  0.12864848017E+04  0.90942928132E+03 0.  0.
         23    2    4    4    0    0 -0.36356514423E+03  0.69354085643E+03 -0.74215630333E+03  0.10824722497E+04  0.88157014452E+02 0.  0.
         23    2    4    4    0    0  0.10108775113E+03 -0.72468065950E+02  0.13112787992E+03  0.20401255195E+03  0.94637447389E+02 0.  0.
          3    1    3    3  502    0  0.99059776287E+02 -0.20346300112E+03  0.11935569942E+03  0.25584334091E+03  0.00000000000E+00 0.  1.
         -3    1    3    3    0  502  0.16341761681E+03 -0.41760978935E+03  0.10444034148E+03  0.46044656430E+03  0.00000000000E+00 0. -1.
         13    1    5    5    0    0 -0.12968801358E+03  0.23109181866E+03 -0.30894002777E+03  0.40702131428E+03  0.00000000000E+00 0. -1.
        -13    1    5    5    0    0 -0.23387713064E+03  0.46244903776E+03 -0.43321627556E+03  0.67545093543E+03  0.00000000000E+00 0.  1.
          1    1    6    6  503    0 -0.63236994973E+01 -0.27768856354E+02 -0.31000806287E+00  0.28481479307E+02  0.00000000000E+00 0. -1.
         -1    1    6    6    0  503  0.10741145063E+03 -0.44699209596E+02  0.13143788798E+03  0.17553107264E+03  0.00000000000E+00 0.  1.
<mgrwt>
<rscale>  0 0.19649829E+04</rscale>
<asrwt>0</asrwt>
<pdfrwt beam="1">  1        2 0.12427249E+00 0.19649829E+04</pdfrwt>
<pdfrwt beam="2">  1       -2 0.18384670E+00 0.19649829E+04</pdfrwt>
<totfact> 0.54025704E+00</totfact>
</mgrwt>
</event>
<event>
12    3  0.4773567E-008  0.1729851E+04  0.7818608E-02  0.8744520E-01
          2   -1    0    0  501    0  0.00000000000E+00  0.00000000000E+00  0.13688155246E+04  0.13688155246E+04  0.00000000000E+00 0. -1.
         -2   -1    0    0    0  501 -0.00000000000E+00 -0.00000000000E+00 -0.54652811380E+03  0.54652811380E+03  0.00000000000E+00 0.  1.
         23    2    1    2    0    0  0.53147206291E+03  0.28787231028E+03  0.13979443009E+03  0.62668281212E+03  0.88633197170E+02 0.  0.
        254    2    1    2    0    0 -0.53147206291E+03 -0.28787231028E+03  0.68249298070E+03  0.12886608263E+04  0.91077825829E+03 0.  0.
         23    2    4    4    0    0 -0.68133484526E+03 -0.35597896658E+03  0.24367198805E+03  0.81155699804E+03  0.91162093500E+02 0.  0.
         23    2    4    4    0    0  0.14986278235E+03  0.68106656306E+02  0.43882099265E+03  0.47710382823E+03  0.89257095818E+02 0.  0.
          4    1    3    3  502    0  0.37761044973E+03  0.17963345150E+03  0.13162096180E+03  0.43838556800E+03  0.00000000000E+00 0.  1.
         -4    1    3    3    0  502  0.15386161318E+03  0.10823885878E+03  0.81734682965E+01  0.18829724412E+03  0.00000000000E+00 0. -1.
         13    1    5    5    0    0 -0.32853521287E+03 -0.12161734814E+03  0.12038516501E+03  0.37043049742E+03  0.00000000000E+00 0. -1.
        -13    1    5    5    0    0 -0.35279963238E+03 -0.23436161844E+03  0.12328682304E+03  0.44112650061E+03  0.00000000000E+00 0.  1.
          4    1    6    6  503    0  0.18770687704E+01 -0.86015577269E+01  0.90790356656E+02  0.91216221388E+02  0.00000000000E+00 0. -1.
         -4    1    6    6    0  503  0.14798571358E+03  0.76708214033E+02  0.34803063599E+03  0.38588760684E+03  0.00000000000E+00 0.  1.
<mgrwt>
<rscale>  0 0.17298511E+04</rscale>
<asrwt>0</asrwt>
<pdfrwt beam="1">  1        2 0.21058700E+00 0.17298511E+04</pdfrwt>
<pdfrwt beam="2">  1       -2 0.84081249E-01 0.17298511E+04</pdfrwt>
<totfact> 0.17682705E+01</totfact>
</mgrwt>
</event>
<event>
12    3  0.4773567E-008  0.1595171E+04  0.7818608E-02  0.8823520E-01
          1   -1    0    0  501    0  0.00000000000E+00  0.00000000000E+00  0.62424049404E+03  0.62424049404E+03  0.00000000000E+00 0. -1.
         -1   -1    0    0    0  501 -0.00000000000E+00 -0.00000000000E+00 -0.10190667461E+04  0.10190667461E+04  0.00000000000E+00 0.  1.
         23    2    1    2    0    0  0.26660394422E+02  0.36928816483E+03  0.26785691875E+03  0.46636696180E+03  0.93092904203E+02 0.  0.
        254    2    1    2    0    0 -0.26660394422E+02 -0.36928816483E+03 -0.66268317078E+03  0.11769402783E+04  0.89941920623E+03 0.  0.
         23    2    4    4    0    0  0.10146527492E+02 -0.63582989655E+03 -0.28062220297E+03  0.70120892930E+03  0.92533952414E+02 0.  0.
         23    2    4    4    0    0 -0.36806921914E+02  0.26654173172E+03 -0.38206096780E+03  0.47573134900E+03  0.89165514950E+02 0.  0.
          3    1    3    3  502    0  0.54417694424E+02  0.32471135051E+03  0.22931080937E+03  0.40122586396E+03  0.00000000000E+00 0. -1.
         -3    1    3    3    0  502 -0.27757300002E+02  0.44576814327E+02  0.38546109384E+02  0.65141097838E+02  0.00000000000E+00 0.  1.
         13    1    5    5    0    0  0.19757262323E+02 -0.60559476016E+02 -0.69260375982E+01  0.64076279126E+02  0.00000000000E+00 0. -1.
        -13    1    5    5    0    0 -0.96107348314E+01 -0.57527042054E+03 -0.27369616538E+03  0.63713265017E+03  0.00000000000E+00 0.  1.
          3    1    6    6  503    0 -0.30578303447E+02  0.20409096079E+03 -0.21853644808E+03  0.30057666586E+03  0.00000000000E+00 0.  1.
         -3    1    6    6    0  503 -0.62286184665E+01  0.62450770929E+02 -0.16352451972E+03  0.17515468314E+03  0.00000000000E+00 0. -1.
<mgrwt>
<rscale>  0 0.15951711E+04</rscale>
<asrwt>0</asrwt>
<pdfrwt beam="1">  1        1 0.96037001E-01 0.15951711E+04</pdfrwt>
<pdfrwt beam="2">  1       -1 0.15677950E+00 0.15951711E+04</pdfrwt>
<totfact> 0.95964343E+00</totfact>
</mgrwt>
</event>
<event>
12    3  0.4773567E-008  0.3549706E+04  0.7818608E-02  0.8102110E-01
          2   -1    0    0  501    0  0.00000000000E+00  0.00000000000E+00  0.42521963673E+04  0.42521963673E+04  0.00000000000E+00 0. -1.
         -2   -1    0    0    0  501 -0.00000000000E+00 -0.00000000000E+00 -0.74081776061E+03  0.74081776061E+03  0.00000000000E+00 0.  1.
         23    2    1    2    0    0  0.15938799945E+04  0.35586385413E+03  0.12104368689E+04  0.20347969516E+04  0.90270157908E+02 0.  0.
        254    2    1    2    0    0 -0.15938799945E+04 -0.35586385413E+03  0.23009417378E+04  0.29582171762E+04  0.88860759701E+03 0.  0.
         23    2    4    4    0    0 -0.83350721949E+03  0.24337482102E+03  0.12692194547E+04  0.15405331149E+04  0.91425737047E+02 0.  0.
         23    2    4    4    0    0 -0.76037277501E+03 -0.59923867515E+03  0.10317222831E+04  0.14176840613E+04  0.90130358965E+02 0.  0.
          4    1    3    3  502    0  0.14332729113E+04  0.34308313606E+03  0.10724710803E+04  0.18226824997E+04  0.00000000000E+00 0. -1.
         -4    1    3    3    0  502  0.16060708323E+03  0.12780718072E+02  0.13796578853E+03  0.21211445199E+03  0.00000000000E+00 0.  1.
         13    1    5    5    0    0 -0.50796404281E+03  0.19397681343E+03  0.80183191610E+03  0.96880797613E+03  0.00000000000E+00 0. -1.
        -13    1    5    5    0    0 -0.32554317668E+03  0.49398007590E+02  0.46738753861E+03  0.57172513876E+03  0.00000000000E+00 0.  1.
          2    1    6    6  503    0 -0.38379576548E+03 -0.25387676290E+03  0.45416060937E+03  0.64654037728E+03  0.00000000000E+00 0. -1.
         -2    1    6    6    0  503 -0.37657700952E+03 -0.34536191225E+03  0.57756167371E+03  0.77114368407E+03  0.00000000000E+00 0.  1.
<mgrwt>
<rscale>  0 0.35497057E+04</rscale>
<asrwt>0</asrwt>
<pdfrwt beam="1">  1        2 0.65418404E+00 0.35497057E+04</pdfrwt>
<pdfrwt beam="2">  1       -2 0.11397197E+00 0.35497057E+04</pdfrwt>
<totfact> 0.10283665E-01</totfact>
</mgrwt>
</event>
<event>
12    3  0.4773567E-008  0.1353436E+04  0.7818608E-02  0.8988231E-01
         -2   -1    0    0    0  501 -0.00000000000E+00  0.00000000000E+00  0.13362231380E+04  0.13362231380E+04  0.00000000000E+00 0.  1.
          2   -1    0    0  501    0  0.00000000000E+00 -0.00000000000E+00 -0.34271778602E+03  0.34271778602E+03  0.00000000000E+00 0. -1.
         23    2    1    2    0    0  0.13950919667E+03  0.32439849423E+03  0.15444138134E+03  0.39576415743E+03  0.89888425383E+02 0.  0.
        254    2    1    2    0    0 -0.13950919667E+03 -0.32439849423E+03  0.83906397067E+03  0.12831767666E+04  0.90433238827E+03 0.  0.
         23    2    4    4    0    0  0.23086636368E+03 -0.37054587118E+02  0.75740240503E+03  0.79786861525E+03  0.90904365955E+02 0.  0.
         23    2    4    4    0    0 -0.37037556036E+03 -0.28734390712E+03  0.81661565640E+02  0.48530815136E+03  0.95450583091E+02 0.  0.
          1    1    3    3  502    0  0.10509087499E+03  0.26604335889E+03  0.84218906386E+02  0.29818783511E+03  0.00000000000E+00 0. -1.
         -1    1    3    3    0  502  0.34418321687E+02  0.58355135346E+02  0.70222474954E+02  0.97576322321E+02  0.00000000000E+00 0.  1.
         13    1    5    5    0    0  0.25805396996E+02 -0.32877622126E+02  0.18975337048E+03  0.19430182233E+03  0.00000000000E+00 0.  1.
        -13    1    5    5    0    0  0.20506096669E+03 -0.41769649922E+01  0.56764903454E+03  0.60356679292E+03  0.00000000000E+00 0. -1.
          3    1    6    6  503    0 -0.28176470759E+03 -0.17423677943E+03  0.30088009499E+02  0.33264860448E+03  0.00000000000E+00 0. -1.
         -3    1    6    6    0  503 -0.88610852769E+02 -0.11310712768E+03  0.51573556141E+02  0.15265954688E+03  0.00000000000E+00 0.  1.
<mgrwt>
<rscale>  0 0.13534363E+04</rscale>
<asrwt>0</asrwt>
<pdfrwt beam="1">  1        2 0.52725814E-01 0.13534363E+04</pdfrwt>
<pdfrwt beam="2">  1       -2 0.20557279E+00 0.13534363E+04</pdfrwt>
<totfact> 0.11291634E+01</totfact>
</mgrwt>
</event>
<event>
12    3  0.4773567E-008  0.2979803E+04  0.7818608E-02  0.8249522E-01
          1   -1    0    0  501    0  0.00000000000E+00  0.00000000000E+00  0.15020864958E+04  0.15020864958E+04  0.00000000000E+00 0. -1.
         -1   -1    0    0    0  501 -0.00000000000E+00 -0.00000000000E+00 -0.14778148802E+04  0.14778148802E+04  0.00000000000E+00 0.  1.
         23    2    1    2    0    0  0.22901775215E+03 -0.18254129102E+03 -0.13062414201E+04  0.13418793532E+04  0.92752881599E+02 0.  0.
        254    2    1    2    0    0 -0.22901775215E+03  0.18254129102E+03  0.13305130357E+04  0.16380220229E+04  0.90943980308E+03 0.  0.
         23    2    4    4    0    0  0.89012825144E+02 -0.17159927371E+03 -0.84924973042E+01  0.21399219380E+03  0.91383492585E+02 0.  0.
         23    2    4    4    0    0 -0.31803057729E+03  0.35414056473E+03  0.13390055330E+04  0.14240298291E+04  0.91466654581E+02 0.  0.
          4    1    3    3  502    0 -0.16329075579E+00 -0.22676919476E+02 -0.49491485201E+02  0.54439658781E+02  0.00000000000E+00 0. -1.
         -4    1    3    3    0  502  0.22918104290E+03 -0.15986437154E+03 -0.12567499349E+04  0.12874396944E+04  0.00000000000E+00 0.  1.
         13    1    5    5    0    0  0.62510108354E+02 -0.29465346741E+02 -0.62829071877E+01  0.69391607761E+02  0.00000000000E+00 0.  1.
        -13    1    5    5    0    0  0.26502716791E+02 -0.14213392697E+03 -0.22095901165E+01  0.14460058604E+03  0.00000000000E+00 0. -1.
          4    1    6    6  503    0 -0.71050324890E+02  0.14195636352E+03  0.41424133991E+03  0.44361655233E+03  0.00000000000E+00 0. -1.
         -4    1    6    6    0  503 -0.24698025240E+03  0.21218420121E+03  0.92476419313E+03  0.98041327674E+03  0.00000000000E+00 0.  1.
<mgrwt>
<rscale>  0 0.29798025E+04</rscale>
<asrwt>0</asrwt>
<pdfrwt beam="1">  1        1 0.23109023E+00 0.29798025E+04</pdfrwt>
<pdfrwt beam="2">  1       -1 0.22735614E+00 0.29798025E+04</pdfrwt>
<totfact> 0.54633472E-01</totfact>
</mgrwt>
</event>
<event>
12    3  0.4773567E-008  0.1315698E+04  0.7818608E-02  0.9017208E-01
         -2   -1    0    0    0  501 -0.00000000000E+00  0.00000000000E+00  0.12762451636E+03  0.12762451636E+03  0.00000000000E+00 0.  1.
          2   -1    0    0  501    0  0.00000000000E+00 -0.00000000000E+00 -0.33909270044E+04  0.33909270044E+04  0.00000000000E+00 0. -1.
         23    2    1    2    0    0 -0.32627251344E+03 -0.11433463241E+03 -0.96112025044E+03  0.10253289568E+04  0.89560999733E+02 0.  0.
        254    2    1    2    0    0  0.32627251344E+03  0.11433463241E+03 -0.23021822376E+04  0.24932225639E+04  0.89251864804E+03 0.  0.
         23    2    4    4    0    0 -0.62454917607E+02  0.43060877886E+03 -0.11728616713E+04  0.12543067040E+04  0.91412638674E+02 0.  0.
         23    2    4    4    0    0  0.38872743105E+03 -0.31627414645E+03 -0.11293205663E+04  0.12389158600E+04  0.91701773388E+02 0.  0.
          3    1    3    3  502    0 -0.19372973435E+03 -0.11156365252E+03 -0.63988375539E+03  0.67781183152E+03  0.00000000000E+00 0. -1.
         -3    1    3    3    0  502 -0.13254277910E+03 -0.27709798895E+01 -0.32123649505E+03  0.34751712529E+03  0.00000000000E+00 0.  1.
         13    1    5    5    0    0  0.18975328589E+02  0.77965960275E+02 -0.26780676617E+03  0.27956970162E+03  0.00000000000E+00 0.  1.
        -13    1    5    5    0    0 -0.81430246196E+02  0.35264281858E+03 -0.90505490511E+03  0.97473700235E+03  0.00000000000E+00 0. -1.
          1    1    6    6  503    0  0.25715565622E+03 -0.19158775832E+03 -0.61495984367E+03  0.69354921237E+03  0.00000000000E+00 0. -1.
         -1    1    6    6    0  503  0.13157177483E+03 -0.12468638813E+03 -0.51436072262E+03  0.54536664758E+03  0.00000000000E+00 0.  1.
<mgrwt>
<rscale>  0 0.13156982E+04</rscale>
<asrwt>0</asrwt>
<pdfrwt beam="1">  1        2 0.52168101E+00 0.13156982E+04</pdfrwt>
<pdfrwt beam="2">  1       -2 0.19634543E-01 0.13156982E+04</pdfrwt>
<totfact> 0.21286543E+01</totfact>
</mgrwt>
</event>
<event>
12    3  0.4773567E-008  0.1194324E+04  0.7818608E-02  0.9117839E-01
          2   -1    0    0  501    0  0.00000000000E+00  0.00000000000E+00  0.44083311017E+03  0.44083311017E+03  0.00000000000E+00 0. -1.
         -2   -1    0    0    0  501 -0.00000000000E+00 -0.00000000000E+00 -0.80892863813E+03  0.80892863813E+03  0.00000000000E+00 0.  1.
         23    2    1    2    0    0  0.54740020358E+01  0.24141627838E+03 -0.12382752520E+03  0.28653229016E+03  0.91954951707E+02 0.  0.
        254    2    1    2    0    0 -0.54740020358E+01 -0.24141627838E+03 -0.24426800275E+03  0.96322945813E+03  0.89990685501E+03 0.  0.
         23    2    4    4    0    0 -0.21160391407E+03  0.17286417878E+03 -0.37567936374E+03  0.47383837511E+03  0.93432224810E+02 0.  0.
         23    2    4    4    0    0  0.20612991203E+03 -0.41428045716E+03  0.13141136099E+03  0.48939108302E+03  0.90093554290E+02 0.  0.
          2    1    3    3  502    0  0.33821950692E+02  0.15991250175E+03 -0.44698672340E+02  0.16945177447E+03  0.00000000000E+00 0. -1.
         -2    1    3    3    0  502 -0.28347948656E+02  0.81503776631E+02 -0.79128852865E+02  0.11708051569E+03  0.00000000000E+00 0.  1.
         13    1    5    5    0    0 -0.32608174600E+02 -0.86589287981E+01 -0.48007708165E+02  0.58677168830E+02  0.00000000000E+00 0.  1.
        -13    1    5    5    0    0 -0.17899573947E+03  0.18152310758E+03 -0.32767165557E+03  0.41516120628E+03  0.00000000000E+00 0. -1.
          1    1    6    6  503    0  0.19053399220E+03 -0.29820442232E+03  0.10762064880E+03  0.36988009371E+03  0.00000000000E+00 0. -1.
         -1    1    6    6    0  503  0.15595919831E+02 -0.11607603484E+03  0.23790712185E+02  0.11951098931E+03  0.00000000000E+00 0.  1.
<mgrwt>
<rscale>  0 0.11943241E+04</rscale>
<asrwt>0</asrwt>
<pdfrwt beam="1">  1        2 0.67820479E-01 0.11943241E+04</pdfrwt>
<pdfrwt beam="2">  1       -2 0.12445056E+00 0.11943241E+04</pdfrwt>
<totfact> 0.34060127E+01</totfact>
</mgrwt>
</event>
<event>
12    3  0.4773567E-008  0.2462295E+04  0.7818608E-02  0.8416542E-01
          2   -1    0    0  501    0  0.00000000000E+00  0.00000000000E+00  0.97572308360E+03  0.97572308360E+03  0.00000000000E+00 0. -1.
         -2   -1    0    0    0  501 -0.00000000000E+00 -0.00000000000E+00 -0.15534372381E+04  0.15534372381E+04  0.00000000000E+00 0.  1.
         23    2    1    2    0    0  0.50392122784E+03  0.33704606449E+03 -0.11500729655E+04  0.13034947228E+04  0.94308074749E+02 0.  0.
        254    2    1    2    0    0 -0.50392122784E+03 -0.33704606449E+03  0.57235881103E+03  0.12256655989E+04  0.89840130130E+03 0.  0.
         23    2    4    4    0    0 -0.46002057129E+03  0.14585432857E+03  0.29044568801E+02  0.49196809362E+03  0.91085712321E+02 0.  0.
         23    2    4    4    0    0 -0.43900656558E+02 -0.48290039306E+03  0.54331424223E+03  0.73369750524E+03  0.89451697129E+02 0.  0.
          1    1    3    3  502    0 -0.75162577737E+00  0.20235339204E+01 -0.30309926584E+02  0.30386695779E+02  0.00000000000E+00 0. -1.
         -1    1    3    3    0  502  0.50467285362E+03  0.33502253057E+03 -0.11197630389E+04  0.12731080270E+04  0.00000000000E+00 0.  1.
         13    1    5    5    0    0 -0.34888443872E+03  0.14120804316E+03 -0.23660309422E+01  0.37638499058E+03  0.00000000000E+00 0. -1.
        -13    1    5    5    0    0 -0.11113613257E+03  0.46462854076E+01  0.31410599743E+02  0.11558310304E+03  0.00000000000E+00 0.  1.
          3    1    6    6  503    0  0.15708588067E+02 -0.29709192546E+03  0.34300610020E+03  0.45405237219E+03  0.00000000000E+00 0. -1.
         -3    1    6    6    0  503 -0.59609244626E+02 -0.18580846760E+03  0.20030814203E+03  0.27964513305E+03  0.00000000000E+00 0.  1.
<mgrwt>
<rscale>  0 0.24622953E+04</rscale>
<asrwt>0</asrwt>
<pdfrwt beam="1">  1        2 0.15011124E+00 0.24622953E+04</pdfrwt>
<pdfrwt beam="2">  1       -2 0.23899034E+00 0.24622953E+04</pdfrwt>
<totfact> 0.17556223E+00</totfact>
</mgrwt>
</event>
<event>
12    3  0.4773567E-008  0.1493962E+04  0.7818608E-02  0.8888478E-01
          2   -1    0    0  501    0  0.00000000000E+00  0.00000000000E+00  0.74431952622E+03  0.74431952622E+03  0.00000000000E+00 0. -1.
         -2   -1    0    0    0  501 -0.00000000000E+00 -0.00000000000E+00 -0.74965192452E+03  0.74965192452E+03  0.00000000000E+00 0.  1.
         23    2    1    2    0    0  0.56723109795E+02  0.22829443843E+03 -0.41311520655E+03  0.48378986306E+03  0.89736257536E+02 0.  0.
        254    2    1    2    0    0 -0.56723109795E+02 -0.22829443843E+03  0.40778280825E+03  0.10101815877E+04  0.89378082301E+03 0.  0.
         23    2    4    4    0    0 -0.26443891023E+03  0.25519879308E+03  0.91367785392E+02  0.38921855815E+03  0.89936936614E+02 0.  0.
         23    2    4    4    0    0  0.20771580043E+03 -0.48349323151E+03  0.31641502286E+03  0.62096302953E+03  0.92547602287E+02 0.  0.
          4    1    3    3  502    0  0.44170451317E+01  0.16193051978E+02 -0.35942920633E+00  0.16788520168E+02  0.00000000000E+00 0. -1.
         -4    1    3    3    0  502  0.52306064663E+02  0.21210138645E+03 -0.41275577734E+03  0.46700134290E+03  0.00000000000E+00 0.  1.
         13    1    5    5    0    0 -0.57363775040E+02  0.32890502308E+02  0.49363755032E+02  0.82517683800E+02  0.00000000000E+00 0. -1.
        -13    1    5    5    0    0 -0.20707513519E+03  0.22230829077E+03  0.42004030359E+02  0.30670087435E+03  0.00000000000E+00 0.  1.
          3    1    6    6  503    0  0.13519296162E+02 -0.13141525411E+03  0.83663963038E+02  0.15637262898E+03  0.00000000000E+00 0. -1.
         -3    1    6    6    0  503  0.19419650427E+03 -0.35207797740E+03  0.23275105982E+03  0.46459040056E+03  0.00000000000E+00 0.  1.
<mgrwt>
<rscale>  0 0.14939619E+04</rscale>
<asrwt>0</asrwt>
<pdfrwt beam="1">  1        2 0.11451070E+00 0.14939619E+04</pdfrwt>
<pdfrwt beam="2">  1       -2 0.11533107E+00 0.14939619E+04</pdfrwt>
<totfact> 0.21434336E+01</totfact>
</mgrwt>
</event>
<event>
12    3  0.4773567E-008  0.1656738E+04  0.7818608E-02  0.8786430E-01
          3   -1    0    0  501    0  0.00000000000E+00  0.00000000000E+00  0.16883608060E+04  0.16883608060E+04  0.00000000000E+00 0. -1.
         -3   -1    0    0    0  501 -0.00000000000E+00 -0.00000000000E+00 -0.40642698608E+03  0.40642698608E+03  0.00000000000E+00 0.  1.
         23    2    1    2    0    0 -0.56526471882E+03 -0.54259829815E+02  0.31060970700E+03  0.65556006223E+03  0.10398208320E+03 0.  0.
        254    2    1    2    0    0  0.56526471882E+03  0.54259829815E+02  0.97132411293E+03  0.14392277299E+04  0.89746175103E+03 0.  0.
         23    2    4    4    0    0 -0.22416335303E+03 -0.67178183139E+02  0.16071027119E+03  0.29750978731E+03  0.89006545531E+02 0.  0.
         23    2    4    4    0    0  0.78942807185E+03  0.12143801295E+03  0.81061384173E+03  0.11417179425E+04  0.92093367360E+02 0.  0.
          4    1    3    3  502    0 -0.50816921097E+03 -0.77914455472E+02  0.29084245317E+03  0.59067414191E+03  0.00000000000E+00 0.  1.
         -4    1    3    3    0  502 -0.57095507854E+02  0.23654625657E+02  0.19767253828E+02  0.64885920322E+02  0.00000000000E+00 0. -1.
         13    1    5    5    0    0 -0.13425586052E+03 -0.78748146860E+02  0.75071278733E+02  0.17280510296E+03  0.00000000000E+00 0.  1.
        -13    1    5    5    0    0 -0.89907492504E+02  0.11569963721E+02  0.85638992459E+02  0.12470468435E+03  0.00000000000E+00 0. -1.
          3    1    6    6  503    0  0.39582128376E+03  0.23328702441E+02  0.43938612622E+03  0.59184363218E+03  0.00000000000E+00 0. -1.
         -3    1    6    6    0  503  0.39360678809E+03  0.98109310513E+02  0.37122771551E+03  0.54987431037E+03  0.00000000000E+00 0.  1.
<mgrwt>
<rscale>  0 0.16567382E+04</rscale>
<asrwt>0</asrwt>
<pdfrwt beam="1">  1        3 0.25974781E+00 0.16567382E+04</pdfrwt>
<pdfrwt beam="2">  1       -3 0.62527230E-01 0.16567382E+04</pdfrwt>
<totfact> 0.40461977E-01</totfact>
</mgrwt>
</event>
<event>
12    3  0.4773567E-008  0.1106038E+04  0.7818608E-02  0.9199327E-01
          2   -1    0    0  501    0  0.00000000000E+00  0.00000000000E+00  0.67326503099E+03  0.67326503099E+03  0.00000000000E+00 0. -1.
         -2   -1    0    0    0  501 -0.00000000000E+00 -0.00000000000E+00 -0.45424888308E+03  0.45424888308E+03  0.00000000000E+00 0.  1.
         23    2    1    2    0    0 -0.63283781250E+02  0.61973917488E+02 -0.11174734407E+03  0.16891747079E+03  0.90554070111E+02 0.  0.
        254    2    1    2    0    0  0.63283781250E+02 -0.61973917488E+02  0.33076349198E+03  0.95859644328E+03  0.89535303094E+03 0.  0.
         23    2    4    4    0    0  0.65062550796E+02  0.17552149555E+03  0.57159833255E+03  0.60795080382E+03  0.88535841238E+02 0.  0.
         23    2    4    4    0    0 -0.17787695460E+01 -0.23749541304E+03 -0.24083484056E+03  0.35064563946E+03  0.92432184884E+02 0.  0.
          2    1    3    3  502    0  0.19593953279E+02  0.33447564629E+02 -0.29388994764E+02  0.48645406751E+02  0.00000000000E+00 0. -1.
         -2    1    3    3    0  502 -0.82877734529E+02  0.28526352859E+02 -0.82358349305E+02  0.12027206404E+03  0.00000000000E+00 0.  1.
         13    1    5    5    0    0  0.12276502687E+02 -0.34588719214E+01  0.10135029283E+02  0.16290952451E+02  0.00000000000E+00 0. -1.
        -13    1    5    5    0    0  0.52786048109E+02  0.17898036748E+03  0.56146330326E+03  0.59165985137E+03  0.00000000000E+00 0.  1.
          2    1    6    6  503    0  0.72714853332E+01 -0.88766845952E+01  0.69245266034E+01  0.13402204932E+02  0.00000000000E+00 0. -1.
         -2    1    6    6    0  503 -0.90502548793E+01 -0.22861872845E+03 -0.24775936717E+03  0.33724343452E+03  0.00000000000E+00 0.  1.
<mgrwt>
<rscale>  0 0.11060378E+04</rscale>
<asrwt>0</asrwt>
<pdfrwt beam="1">  1        2 0.10357924E+00 0.11060378E+04</pdfrwt>
<pdfrwt beam="2">  1       -2 0.69884444E-01 0.11060378E+04</pdfrwt>
<totfact> 0.79734321E+01</totfact>
</mgrwt>
</event>
<event>
12    3  0.4773567E-008  0.1365775E+04  0.7818608E-02  0.8978972E-01
          2   -1    0    0  501    0  0.00000000000E+00  0.00000000000E+00  0.83594498790E+03  0.83594498790E+03  0.00000000000E+00 0. -1.
         -2   -1    0    0    0  501 -0.00000000000E+00 -0.00000000000E+00 -0.55785390830E+03  0.55785390830E+03  0.00000000000E+00 0.  1.
         23    2    1    2    0    0  0.79432830121E+01 -0.37833395749E+03  0.14193202236E+02  0.38917246707E+03  0.89744543022E+02 0.  0.
        254    2    1    2    0    0 -0.79432830121E+01  0.37833395749E+03  0.26389787736E+03  0.10046264291E+04  0.89243066582E+03 0.  0.
         23    2    4    4    0    0  0.39577001083E+03  0.19660789937E+03  0.31452162190E+03  0.54980133736E+03  0.89828126682E+02 0.  0.
         23    2    4    4    0    0 -0.40371329385E+03  0.18172605812E+03 -0.50623744543E+02  0.45482509177E+03  0.91073139648E+02 0.  0.
          3    1    3    3  502    0  0.89782675374E+01 -0.22078732730E+03 -0.35864313760E+02  0.22386134590E+03  0.00000000000E+00 0. -1.
         -3    1    3    3    0  502 -0.10349845253E+01 -0.15754663019E+03  0.50057515996E+02  0.16531112117E+03  0.00000000000E+00 0.  1.
         13    1    5    5    0    0  0.15122941992E+03  0.11619294033E+03  0.10380255275E+03  0.21713154260E+03  0.00000000000E+00 0. -1.
        -13    1    5    5    0    0  0.24454059091E+03  0.80414959040E+02  0.21071906915E+03  0.33266979476E+03  0.00000000000E+00 0.  1.
          4    1    6    6  503    0 -0.53710294481E+02  0.31828462551E+01 -0.29464199880E+02  0.61343828687E+02  0.00000000000E+00 0. -1.
         -4    1    6    6    0  503 -0.35000299937E+03  0.17854321186E+03 -0.21159544663E+02  0.39348126308E+03  0.00000000000E+00 0.  1.
<mgrwt>
<rscale>  0 0.13657748E+04</rscale>
<asrwt>0</asrwt>
<pdfrwt beam="1">  1        2 0.12860692E+00 0.13657748E+04</pdfrwt>
<pdfrwt beam="2">  1       -2 0.85823678E-01 0.13657748E+04</pdfrwt>
<totfact> 0.37352519E+01</totfact>
</mgrwt>
</event>
<event>
12    3  0.4773567E-008  0.1843354E+04  0.7818608E-02  0.8683578E-01
          1   -1    0    0  501    0  0.00000000000E+00  0.00000000000E+00  0.22527600094E+04  0.22527600094E+04  0.00000000000E+00 0. -1.
         -1   -1    0    0    0  501 -0.00000000000E+00 -0.00000000000E+00 -0.37708794063E+03  0.37708794063E+03  0.00000000000E+00 0.  1.
         23    2    1    2    0    0 -0.25435409862E+03 -0.60182433730E+03  0.35731813414E+03  0.74966177767E+03  0.86185796170E+02 0.  0.
        254    2    1    2    0    0  0.25435409862E+03  0.60182433730E+03  0.15183539346E+04  0.18801861724E+04  0.89599823186E+03 0.  0.
         23    2    4    4    0    0  0.11907160593E+03  0.46574438239E+03  0.15846465015E+04  0.16585355807E+04  0.92411366814E+02 0.  0.
         23    2    4    4    0    0  0.13528249269E+03  0.13607995492E+03 -0.66292566889E+02  0.22165059164E+03  0.88967260211E+02 0.  0.
          2    1    3    3  502    0 -0.18501460318E+03 -0.45382760640E+03  0.22450322320E+03  0.53906548484E+03  0.00000000000E+00 0. -1.
         -2    1    3    3    0  502 -0.69339495435E+02 -0.14799673091E+03  0.13281491094E+03  0.21059629283E+03  0.00000000000E+00 0.  1.
         13    1    5    5    0    0  0.90806058476E+02  0.38633715141E+03  0.11720615191E+04  0.12374289229E+04  0.00000000000E+00 0. -1.
        -13    1    5    5    0    0  0.28265547454E+02  0.79407230978E+02  0.41258498246E+03  0.42110665782E+03  0.00000000000E+00 0.  1.
          4    1    6    6  503    0  0.63671162437E+02  0.33592536590E+02 -0.64427285153E+02  0.96609267220E+02  0.00000000000E+00 0. -1.
         -4    1    6    6    0  503  0.71611330251E+02  0.10248741833E+03 -0.18652817367E+01  0.12504132442E+03  0.00000000000E+00 0.  1.
<mgrwt>
<rscale>  0 0.18433542E+04</rscale>
<asrwt>0</asrwt>
<pdfrwt beam="1">  1        1 0.34657845E+00 0.18433542E+04</pdfrwt>
<pdfrwt beam="2">  1       -1 0.58013531E-01 0.18433542E+04</pdfrwt>
<totfact> 0.56763769E+00</totfact>
</mgrwt>
</event>
<event>
12    3  0.4773567E-008  0.2676286E+04  0.7818608E-02  0.8342741E-01
         -2   -1    0    0    0  501 -0.00000000000E+00  0.00000000000E+00  0.93176093676E+03  0.93176093676E+03  0.00000000000E+00 0.  1.
          2   -1    0    0  501    0  0.00000000000E+00 -0.00000000000E+00 -0.19217661545E+04  0.19217661545E+04  0.00000000000E+00 0. -1.
         23    2    1    2    0    0  0.71422399157E+01  0.17506499515E+03  0.81097877388E+03  0.83464465350E+03  0.90809480912E+02 0.  0.
        254    2    1    2    0    0 -0.71422399157E+01 -0.17506499515E+03 -0.18009839916E+04  0.20188824377E+04  0.89534585232E+03 0.  0.
         23    2    4    4    0    0 -0.39854573314E+03 -0.20678599475E+03 -0.62540670260E+03  0.77531046978E+03  0.91507550882E+02 0.  0.
         23    2    4    4    0    0  0.39140349322E+03  0.31720999598E+02 -0.11755772890E+04  0.12435719679E+04  0.10142169756E+03 0.  0.
          1    1    3    3  502    0 -0.19649478200E+01  0.66798400289E+02  0.14247163492E+03  0.15736598762E+03  0.00000000000E+00 0. -1.
         -1    1    3    3    0  502  0.91071877357E+01  0.10826659486E+03  0.66850713895E+03  0.67727866588E+03  0.00000000000E+00 0.  1.
         13    1    5    5    0    0 -0.72195860886E+02 -0.13989986590E+02 -0.15199977082E+03  0.16885464869E+03  0.00000000000E+00 0. -1.
        -13    1    5    5    0    0 -0.32634987225E+03 -0.19279600816E+03 -0.47340693178E+03  0.60645582109E+03  0.00000000000E+00 0.  1.
          3    1    6    6  503    0  0.36067494065E+02 -0.26266951457E+02 -0.10541434783E+03  0.11446834320E+03  0.00000000000E+00 0. -1.
         -3    1    6    6    0  503  0.35533599916E+03  0.57987951055E+02 -0.10701629412E+04  0.11291036247E+04  0.00000000000E+00 0.  1.
<mgrwt>
<rscale>  0 0.26762860E+04</rscale>
<asrwt>0</asrwt>
<pdfrwt beam="1">  1        2 0.29565633E+00 0.26762860E+04</pdfrwt>
<pdfrwt beam="2">  1       -2 0.14334784E+00 0.26762860E+04</pdfrwt>
<totfact> 0.21922211E+00</totfact>
</mgrwt>
</event>
<event>
12    3  0.4773567E-008  0.1441365E+04  0.7818608E-02  0.8924409E-01
          1   -1    0    0  501    0  0.00000000000E+00  0.00000000000E+00  0.12624708400E+04  0.12624708400E+04  0.00000000000E+00 0. -1.
         -1   -1    0    0    0  501 -0.00000000000E+00 -0.00000000000E+00 -0.41140238447E+03  0.41140238447E+03  0.00000000000E+00 0.  1.
         23    2    1    2    0    0 -0.15611779904E+03 -0.22830415300E+03 -0.11976638161E+03  0.31624962974E+03  0.95782507230E+02 0.  0.
        254    2    1    2    0    0  0.15611779904E+03  0.22830415300E+03  0.97083483711E+03  0.13576235947E+04  0.90781385235E+03 0.  0.
         23    2    4    4    0    0  0.13354066691E+03  0.53954710939E+03  0.82654113290E+03  0.10001075835E+04  0.90004117468E+02 0.  0.
         23    2    4    4    0    0  0.22577132131E+02 -0.31124295639E+03  0.14429370421E+03  0.35751601125E+03  0.98056720472E+02 0.  0.
          4    1    3    3  502    0 -0.54688876469E+02 -0.22632931267E+02 -0.47253333557E+02  0.75736387024E+02  0.00000000000E+00 0. -1.
         -4    1    3    3    0  502 -0.10142892257E+03 -0.20567122173E+03 -0.72513048050E+02  0.24051324271E+03  0.00000000000E+00 0.  1.
         13    1    5    5    0    0  0.38059938515E+01  0.18547218142E+03  0.29181263341E+03  0.34578754848E+03  0.00000000000E+00 0.  1.
        -13    1    5    5    0    0  0.12973467306E+03  0.35407492796E+03  0.53472849949E+03  0.65432003498E+03  0.00000000000E+00 0. -1.
          4    1    6    6  503    0 -0.22137312074E+02 -0.23354108799E+03  0.12500526236E+03  0.26581537951E+03  0.00000000000E+00 0. -1.
         -4    1    6    6    0  503  0.44714444205E+02 -0.77701868400E+02  0.19288441852E+02  0.91700631745E+02  0.00000000000E+00 0.  1.
<mgrwt>
<rscale>  0 0.14413653E+04</rscale>
<asrwt>0</asrwt>
<pdfrwt beam="1">  1        1 0.19422628E+00 0.14413653E+04</pdfrwt>
<pdfrwt beam="2">  1       -1 0.63292675E-01 0.14413653E+04</pdfrwt>
<totfact> 0.23683518E+01</totfact>
</mgrwt>
</event>
<event>
12    3  0.4773567E-008  0.1870011E+04  0.7818608E-02  0.8669930E-01
          2   -1    0    0  501    0  0.00000000000E+00  0.00000000000E+00  0.18730402307E+04  0.18730402307E+04  0.00000000000E+00 0. -1.
         -2   -1    0    0    0  501 -0.00000000000E+00 -0.00000000000E+00 -0.46674651587E+03  0.46674651587E+03  0.00000000000E+00 0.  1.
         23    2    1    2    0    0  0.24205632818E+03 -0.22790959164E+03 -0.24875258671E+03  0.42350808267E+03  0.83349857313E+02 0.  0.
        254    2    1    2    0    0 -0.24205632818E+03  0.22790959164E+03  0.16550463015E+04  0.19162786639E+04  0.90686912480E+03 0.  0.
         23    2    4    4    0    0 -0.87739121800E+02  0.51696031410E+03  0.13770093172E+04  0.14763403599E+04  0.92087344226E+02 0.  0.
         23    2    4    4    0    0 -0.15431720638E+03 -0.28905072246E+03  0.27803698438E+03  0.43993830398E+03  0.94217972188E+02 0.  0.
          2    1    3    3  502    0  0.23332806703E+03 -0.20071302445E+03 -0.20015180043E+03  0.36713546310E+03  0.00000000000E+00 0.  1.
         -2    1    3    3    0  502  0.87282611446E+01 -0.27196567197E+02 -0.48600786283E+02  0.56372619571E+02  0.00000000000E+00 0. -1.
         13    1    5    5    0    0 -0.91891664420E+02  0.45030431801E+03  0.11161201238E+04  0.12070386024E+04  0.00000000000E+00 0.  1.
        -13    1    5    5    0    0  0.41525426199E+01  0.66655996087E+02  0.26088919335E+03  0.26930175757E+03  0.00000000000E+00 0. -1.
          1    1    6    6  503    0 -0.81305825759E+01  0.68824887951E+01  0.61096469103E+01  0.12280179576E+02  0.00000000000E+00 0. -1.
         -1    1    6    6    0  503 -0.14618662380E+03 -0.29593321125E+03  0.27192733747E+03  0.42765812440E+03  0.00000000000E+00 0.  1.
<mgrwt>
<rscale>  0 0.18700107E+04</rscale>
<asrwt>0</asrwt>
<pdfrwt beam="1">  1        2 0.28816003E+00 0.18700107E+04</pdfrwt>
<pdfrwt beam="2">  1       -2 0.71807157E-01 0.18700107E+04</pdfrwt>
<totfact> 0.12969679E+01</totfact>
</mgrwt>
</event>
<event>
12    3  0.4773567E-008  0.1392048E+04  0.7818608E-02  0.8959595E-01
         -1   -1    0    0    0  501 -0.00000000000E+00  0.00000000000E+00  0.65565765997E+03  0.65565765997E+03  0.00000000000E+00 0.  1.
          1   -1    0    0  501    0  0.00000000000E+00 -0.00000000000E+00 -0.73887582873E+03  0.73887582873E+03  0.00000000000E+00 0. -1.
         23    2    1    2    0    0 -0.28123586515E+03 -0.34510792463E+03  0.14614557872E+03  0.47863543393E+03  0.97674238925E+02 0.  0.
        254    2    1    2    0    0  0.28123586515E+03  0.34510792463E+03 -0.22936374749E+03  0.91589805477E+03  0.76685619680E+03 0.  0.
         23    2    4    4    0    0 -0.18267640064E+03  0.26350183753E+03  0.86252459367E+02  0.34167721527E+03  0.80622248530E+02 0.  0.
         23    2    4    4    0    0  0.46391226578E+03  0.81606087098E+02 -0.31561620685E+03  0.57422083949E+03  0.90784572939E+02 0.  0.
          2    1    3    3  502    0 -0.16412427582E+03 -0.22453605644E+03  0.43008821736E+02  0.28143023523E+03  0.00000000000E+00 0. -1.
         -2    1    3    3    0  502 -0.11711158933E+03 -0.12057186818E+03  0.10313675698E+03  0.19720519870E+03  0.00000000000E+00 0.  1.
         13    1    5    5    0    0 -0.65341436186E+02  0.15734294940E+03  0.25909177139E+02  0.17232989429E+03  0.00000000000E+00 0. -1.
        -13    1    5    5    0    0 -0.11733496445E+03  0.10615888814E+03  0.60343282228E+02  0.16934732098E+03  0.00000000000E+00 0.  1.
          4    1    6    6  503    0  0.23689836639E+03 -0.51130571922E+00 -0.17821215830E+03  0.29644674193E+03  0.00000000000E+00 0. -1.
         -4    1    6    6    0  503  0.22701389939E+03  0.82117392817E+02 -0.13740404855E+03  0.27777409756E+03  0.00000000000E+00 0.  1.
<mgrwt>
<rscale>  0 0.13920483E+04</rscale>
<asrwt>0</asrwt>
<pdfrwt beam="1">  1        1 0.11367320E+00 0.13920483E+04</pdfrwt>
<pdfrwt beam="2">  1       -1 0.10087041E+00 0.13920483E+04</pdfrwt>
<totfact> 0.22863480E+01</totfact>
</mgrwt>
</event>
<event>
12    3  0.4773567E-008  0.1608308E+04  0.7818608E-02  0.8815460E-01
         -2   -1    0    0    0  501 -0.00000000000E+00  0.00000000000E+00  0.34163737407E+03  0.34163737407E+03  0.00000000000E+00 0.  1.
          2   -1    0    0  501    0  0.00000000000E+00 -0.00000000000E+00 -0.18928371695E+04  0.18928371695E+04  0.00000000000E+00 0. -1.
         23    2    1    2    0    0  0.51155893687E+03 -0.15426808011E+03 -0.68836606602E+03  0.87600673731E+03  0.89714973835E+02 0.  0.
        254    2    1    2    0    0 -0.51155893687E+03  0.15426808011E+03 -0.86283372944E+03  0.13584678063E+04  0.90302909677E+03 0.  0.
         23    2    4    4    0    0 -0.19033207792E+03  0.14451686779E+02 -0.96030584584E+03  0.98330288777E+03  0.90896096768E+02 0.  0.
         23    2    4    4    0    0 -0.32122685895E+03  0.13981639333E+03  0.97472116395E+02  0.37516491852E+03  0.92263664887E+02 0.  0.
          1    1    3    3  502    0  0.43078318647E+03 -0.10709765131E+03 -0.60724663697E+03  0.75219182313E+03  0.00000000000E+00 0. -1.
         -1    1    3    3    0  502  0.80775750397E+02 -0.47170428795E+02 -0.81119429050E+02  0.12381491418E+03  0.00000000000E+00 0.  1.
         13    1    5    5    0    0 -0.17041812869E+03 -0.81208898478E+01 -0.66769945047E+03  0.68915226445E+03  0.00000000000E+00 0.  1.
        -13    1    5    5    0    0 -0.19913949238E+02  0.22572576626E+02 -0.29260639537E+03  0.29415062332E+03  0.00000000000E+00 0. -1.
          4    1    6    6  503    0 -0.27645476975E+03  0.80449262853E+02  0.77953694222E+02  0.29828862206E+03  0.00000000000E+00 0. -1.
         -4    1    6    6    0  503 -0.44772089202E+02  0.59367130477E+02  0.19518422173E+02  0.76876296455E+02  0.00000000000E+00 0.  1.
<mgrwt>
<rscale>  0 0.16083083E+04</rscale>
<asrwt>0</asrwt>
<pdfrwt beam="1">  1        2 0.29120572E+00 0.16083083E+04</pdfrwt>
<pdfrwt beam="2">  1       -2 0.52559596E-01 0.16083083E+04</pdfrwt>
<totfact> 0.25084709E+01</totfact>
</mgrwt>
</event>
<event>
12    3  0.4773567E-008  0.1991820E+04  0.7818608E-02  0.8610454E-01
         -2   -1    0    0    0  501 -0.00000000000E+00  0.00000000000E+00  0.86695178281E+03  0.86695178281E+03  0.00000000000E+00 0.  1.
          2   -1    0    0  501    0  0.00000000000E+00 -0.00000000000E+00 -0.11440511080E+04  0.11440511080E+04  0.00000000000E+00 0. -1.
         23    2    1    2    0    0  0.34393022214E+03  0.43204812726E+03 -0.68329470493E+03  0.88323458360E+03  0.90874055167E+02 0.  0.
        254    2    1    2    0    0 -0.34393022214E+03 -0.43204812726E+03  0.40619537973E+03  0.11277683072E+04  0.89549600016E+03 0.  0.
         23    2    4    4    0    0 -0.19926536437E+02  0.25396959572E+03  0.18613210841E+02  0.27053090923E+03  0.89122942214E+02 0.  0.
         23    2    4    4    0    0 -0.32400368571E+03 -0.68601772298E+03  0.38758216889E+03  0.85723739800E+03  0.95064789951E+02 0.  0.
          2    1    3    3  502    0  0.16519081565E+03  0.20922096409E+03 -0.40179886647E+03  0.48218642296E+03  0.00000000000E+00 0. -1.
         -2    1    3    3    0  502  0.17873940649E+03  0.22282716318E+03 -0.28149583847E+03  0.40104816064E+03  0.00000000000E+00 0.  1.
         13    1    5    5    0    0 -0.39425787678E+02  0.24166712220E+03  0.26198105667E+02  0.24625947988E+03  0.00000000000E+00 0.  1.
        -13    1    5    5    0    0  0.19499251240E+02  0.12302473515E+02 -0.75848948258E+01  0.24271429357E+02  0.00000000000E+00 0. -1.
          3    1    6    6  503    0 -0.73131304252E+01  0.41617438559E+00  0.95041469792E+01  0.11999328629E+02  0.00000000000E+00 0. -1.
         -3    1    6    6    0  503 -0.31669055528E+03 -0.68643389737E+03  0.37807802191E+03  0.84523806937E+03  0.00000000000E+00 0.  1.
<mgrwt>
<rscale>  0 0.19918204E+04</rscale>
<asrwt>0</asrwt>
<pdfrwt beam="1">  1        2 0.17600786E+00 0.19918204E+04</pdfrwt>
<pdfrwt beam="2">  1       -2 0.13337720E+00 0.19918204E+04</pdfrwt>
<totfact> 0.77448788E+00</totfact>
</mgrwt>
</event>
<event>
12    3  0.4773567E-008  0.2221168E+04  0.7818608E-02  0.8509669E-01
          2   -1    0    0  501    0  0.00000000000E+00  0.00000000000E+00  0.32858777647E+04  0.32858777647E+04  0.00000000000E+00 0. -1.
         -2   -1    0    0    0  501 -0.00000000000E+00 -0.00000000000E+00 -0.37536285756E+03  0.37536285756E+03  0.00000000000E+00 0.  1.
         23    2    1    2    0    0  0.80908743372E+03 -0.72119556605E+02  0.19643403560E+04  0.21276626137E+04  0.92149104188E+02 0.  0.
        254    2    1    2    0    0 -0.80908743372E+03  0.72119556605E+02  0.94617455108E+03  0.15335780086E+04  0.89263179499E+03 0.  0.
         23    2    4    4    0    0 -0.49064149473E+02  0.30977524330E+03  0.48384703712E+02  0.33003427264E+03  0.90628634769E+02 0.  0.
         23    2    4    4    0    0 -0.76002328425E+03 -0.23765568669E+03  0.89778984737E+03  0.12035437359E+04  0.91516644688E+02 0.  0.
          3    1    3    3  502    0  0.37776228036E+03 -0.32602319178E+02  0.10373694249E+04  0.11044919988E+04  0.00000000000E+00 0. -1.
         -3    1    3    3    0  502  0.43132515336E+03 -0.39517237427E+02  0.92697093114E+03  0.10231706149E+04  0.00000000000E+00 0.  1.
         13    1    5    5    0    0 -0.14921490114E+01  0.12439544621E+02 -0.17763214632E+02  0.21737078302E+02  0.00000000000E+00 0.  1.
        -13    1    5    5    0    0 -0.47572000462E+02  0.29733569868E+03  0.66147918344E+02  0.30829719434E+03  0.00000000000E+00 0. -1.
          4    1    6    6  503    0 -0.24534917736E+03 -0.57455998526E+02  0.34316005697E+03  0.42574198207E+03  0.00000000000E+00 0. -1.
         -4    1    6    6    0  503 -0.51467410689E+03 -0.18019968817E+03  0.55462979039E+03  0.77780175386E+03  0.00000000000E+00 0.  1.
<mgrwt>
<rscale>  0 0.22211677E+04</rscale>
<asrwt>0</asrwt>
<pdfrwt beam="1">  1        2 0.50551964E+00 0.22211677E+04</pdfrwt>
<pdfrwt beam="2">  1       -2 0.57748134E-01 0.22211677E+04</pdfrwt>
<totfact> 0.29224517E+00</totfact>
</mgrwt>
</event>
<event>
12    3  0.4773567E-008  0.2510899E+04  0.7818608E-02  0.8399113E-01
          2   -1    0    0  501    0  0.00000000000E+00  0.00000000000E+00  0.99790925333E+03  0.99790925333E+03  0.00000000000E+00 0. -1.
         -2   -1    0    0    0  501 -0.00000000000E+00 -0.00000000000E+00 -0.15794553794E+04  0.15794553794E+04  0.00000000000E+00 0.  1.
         23    2    1    2    0    0 -0.21285697161E+03 -0.46795531668E+03 -0.12488021015E+04  0.13536663465E+04  0.92820365432E+02 0.  0.
        254    2    1    2    0    0  0.21285697161E+03  0.46795531668E+03  0.66725597549E+03  0.12236982861E+04  0.88764671459E+03 0.  0.
         23    2    4    4    0    0  0.27773254601E+03  0.89784912748E+01  0.69155457517E+03  0.75084259440E+03  0.91109224041E+02 0.  0.
         23    2    4    4    0    0 -0.64875574400E+02  0.45897682541E+03 -0.24298599678E+02  0.47285569175E+03  0.90186012554E+02 0.  0.
          3    1    3    3  502    0 -0.90834492485E+01 -0.67055075181E+02 -0.23598997620E+03  0.24549981879E+03  0.00000000000E+00 0. -1.
         -3    1    3    3    0  502 -0.20377352236E+03 -0.40090024150E+03 -0.10128121253E+04  0.11081665278E+04  0.00000000000E+00 0.  1.
         13    1    5    5    0    0  0.26558404060E+02  0.30172163046E+02  0.86578698335E+02  0.95454592631E+02  0.00000000000E+00 0.  1.
        -13    1    5    5    0    0  0.25117414195E+03 -0.21193671771E+02  0.60497587684E+03  0.65538800177E+03  0.00000000000E+00 0. -1.
          4    1    6    6  503    0  0.10822533072E+02  0.24319279751E+03 -0.71806437316E+01  0.24353937182E+03  0.00000000000E+00 0. -1.
         -4    1    6    6    0  503 -0.75698107472E+02  0.21578402790E+03 -0.17117955946E+02  0.22931631993E+03  0.00000000000E+00 0.  1.
<mgrwt>
<rscale>  0 0.25108988E+04</rscale>
<asrwt>0</asrwt>
<pdfrwt beam="1">  1        2 0.15352450E+00 0.25108988E+04</pdfrwt>
<pdfrwt beam="2">  1       -2 0.24299313E+00 0.25108988E+04</pdfrwt>
<totfact> 0.15979488E+00</totfact>
</mgrwt>
</event>
<event>
12    3  0.4773567E-008  0.3158500E+04  0.7818608E-02  0.8199864E-01
          1   -1    0    0  501    0  0.00000000000E+00  0.00000000000E+00  0.24098322850E+04  0.24098322850E+04  0.00000000000E+00 0. -1.
         -1   -1    0    0    0  501 -0.00000000000E+00 -0.00000000000E+00 -0.10349392880E+04  0.10349392880E+04  0.00000000000E+00 0.  1.
         23    2    1    2    0    0  0.76442339463E+03 -0.20137842901E+03  0.19577803533E+04  0.21133403891E+04  0.91691277244E+02 0.  0.
        254    2    1    2    0    0 -0.76442339463E+03  0.20137842901E+03 -0.58288735633E+03  0.13314311838E+04  0.89891875562E+03 0.  0.
         23    2    4    4    0    0 -0.33854924861E+03  0.31618577362E+03  0.12698094248E+03  0.48960309359E+03  0.94857747882E+02 0.  0.
         23    2    4    4    0    0 -0.42587414602E+03 -0.11480734461E+03 -0.70986829880E+03  0.84182809024E+03  0.10105452613E+03 0.  0.
          1    1    3    3  502    0  0.33329375670E+03 -0.45758765946E+02  0.88214018561E+03  0.94411328769E+03  0.00000000000E+00 0. -1.
         -1    1    3    3    0  502  0.43112963793E+03 -0.15561966306E+03  0.10756401677E+04  0.11692271014E+04  0.00000000000E+00 0.  1.
         13    1    5    5    0    0 -0.11729622085E+03  0.53740755082E+02  0.24097352332E+02  0.13125225550E+03  0.00000000000E+00 0.  1.
        -13    1    5    5    0    0 -0.22125302776E+03  0.26244501853E+03  0.10288359015E+03  0.35835083810E+03  0.00000000000E+00 0. -1.
          3    1    6    6  503    0 -0.38466746041E+03 -0.80545366960E+02 -0.57286301341E+03  0.69471479282E+03  0.00000000000E+00 0. -1.
         -3    1    6    6    0  503 -0.41206685611E+02 -0.34261977649E+02 -0.13700528539E+03  0.14711329742E+03  0.00000000000E+00 0.  1.
<mgrwt>
<rscale>  0 0.31584997E+04</rscale>
<asrwt>0</asrwt>
<pdfrwt beam="1">  1        1 0.37074343E+00 0.31584997E+04</pdfrwt>
<pdfrwt beam="2">  1       -1 0.15922143E+00 0.31584997E+04</pdfrwt>
<totfact> 0.38894038E-01</totfact>
</mgrwt>
</event>
<event>
12    3  0.4773567E-008  0.2435851E+04  0.7818608E-02  0.8426202E-01
         -1   -1    0    0    0  501 -0.00000000000E+00  0.00000000000E+00  0.42752032792E+03  0.42752032792E+03  0.00000000000E+00 0.  1.
          1   -1    0    0  501    0  0.00000000000E+00 -0.00000000000E+00 -0.34696412422E+04  0.34696412422E+04  0.00000000000E+00 0. -1.
         23    2    1    2    0    0  0.23827294475E+03 -0.18681158689E+03 -0.29313546247E+04  0.29481332049E+04  0.83527798550E+02 0.  0.
        254    2    1    2    0    0 -0.23827294475E+03  0.18681158689E+03 -0.11076628962E+03  0.94902836521E+03  0.89258786786E+03 0.  0.
         23    2    4    4    0    0 -0.34068303305E+03 -0.23954547546E+03 -0.23224238950E+03  0.48495426417E+03  0.88301455421E+02 0.  0.
         23    2    4    4    0    0  0.10241008830E+03  0.42635706235E+03  0.12147609989E+03  0.46407410104E+03  0.91324463379E+02 0.  0.
          1    1    3    3  502    0  0.22786251835E+03 -0.17678775255E+03 -0.28894360514E+04  0.29037933694E+04  0.00000000000E+00 0. -1.
         -1    1    3    3    0  502  0.10410426403E+02 -0.10023834346E+02 -0.41918573214E+02  0.44339835511E+02  0.00000000000E+00 0.  1.
         13    1    5    5    0    0 -0.12597818341E+03 -0.39327609456E+02 -0.65535870337E+02  0.14735031001E+03  0.00000000000E+00 0.  1.
        -13    1    5    5    0    0 -0.21470484964E+03 -0.20021786600E+03 -0.16670651917E+03  0.33760395415E+03  0.00000000000E+00 0. -1.
          4    1    6    6  503    0  0.95315641035E+02  0.42356434092E+03  0.10613253649E+03  0.44694064218E+03  0.00000000000E+00 0. -1.
         -4    1    6    6    0  503  0.70944472628E+01  0.27927214259E+01  0.15343563394E+02  0.17133458862E+02  0.00000000000E+00 0.  1.
<mgrwt>
<rscale>  0 0.24358507E+04</rscale>
<asrwt>0</asrwt>
<pdfrwt beam="1">  1        1 0.53379095E+00 0.24358507E+04</pdfrwt>
<pdfrwt beam="2">  1       -1 0.65772360E-01 0.24358507E+04</pdfrwt>
<totfact> 0.55329098E-01</totfact>
</mgrwt>
</event>
<event>
12    3  0.4773567E-008  0.1175270E+04  0.7818608E-02  0.9134783E-01
          2   -1    0    0  501    0  0.00000000000E+00  0.00000000000E+00  0.14684163047E+04  0.14684163047E+04  0.00000000000E+00 0. -1.
         -2   -1    0    0    0  501 -0.00000000000E+00 -0.00000000000E+00 -0.23516125959E+03  0.23516125959E+03  0.00000000000E+00 0.  1.
         23    2    1    2    0    0 -0.49305474533E+02 -0.26620780444E+01  0.58094461643E+03  0.58936656357E+03  0.86128870920E+02 0.  0.
        254    2    1    2    0    0  0.49305474533E+02  0.26620780444E+01  0.65231042865E+03  0.11142110007E+04  0.90195296014E+03 0.  0.
         23    2    4    4    0    0  0.32683729545E+03 -0.15479434069E+03  0.68510033737E+03  0.78052364202E+03  0.95240631484E+02 0.  0.
         23    2    4    4    0    0 -0.27753182092E+03  0.15745641874E+03 -0.32789908719E+02  0.33368735869E+03  0.91954552965E+02 0.  0.
          4    1    3    3  502    0 -0.54150842964E+02 -0.33496634955E+02  0.29932714723E+03  0.30602463858E+03  0.00000000000E+00 0. -1.
         -4    1    3    3    0  502  0.48453684317E+01  0.30834556911E+02  0.28161746920E+03  0.28334192498E+03  0.00000000000E+00 0.  1.
         13    1    5    5    0    0  0.82802493870E+02 -0.29547366563E+01  0.11118843622E+03  0.13866452975E+03  0.00000000000E+00 0.  1.
        -13    1    5    5    0    0  0.24403480158E+03 -0.15183960404E+03  0.57391190115E+03  0.64185911228E+03  0.00000000000E+00 0. -1.
          2    1    6    6  503    0 -0.22779333008E+03  0.14974940583E+03  0.18040363469E+01  0.27261316975E+03  0.00000000000E+00 0. -1.
         -2    1    6    6    0  503 -0.49738490838E+02  0.77070129042E+01 -0.34593945066E+02  0.61074188934E+02  0.00000000000E+00 0.  1.
<mgrwt>
<rscale>  0 0.11752695E+04</rscale>
<asrwt>0</asrwt>
<pdfrwt beam="1">  1        2 0.22591019E+00 0.11752695E+04</pdfrwt>
<pdfrwt beam="2">  1       -2 0.36178656E-01 0.11752695E+04</pdfrwt>
<totfact> 0.93913786E+01</totfact>
</mgrwt>
</event>
<event>
12    3  0.4773567E-008  0.1269952E+04  0.7818608E-02  0.9053739E-01
         -1   -1    0    0    0  501 -0.00000000000E+00  0.00000000000E+00  0.53973100106E+03  0.53973100106E+03  0.00000000000E+00 0.  1.
          1   -1    0    0  501    0  0.00000000000E+00 -0.00000000000E+00 -0.74702907808E+03  0.74702907808E+03  0.00000000000E+00 0. -1.
         23    2    1    2    0    0 -0.23441391261E+03  0.11444046325E+03  0.11415315250E+03  0.29925695145E+03  0.92072138630E+02 0.  0.
        254    2    1    2    0    0  0.23441391261E+03 -0.11444046325E+03 -0.32145122952E+03  0.98750312769E+03  0.89654059148E+03 0.  0.
         23    2    4    4    0    0  0.11919591888E+03 -0.25207343209E+03 -0.58604273984E+03  0.65528811978E+03  0.90596604573E+02 0.  0.
         23    2    4    4    0    0  0.11521799373E+03  0.13763296884E+03  0.26459151032E+03  0.33221500791E+03  0.90222635495E+02 0.  0.
          3    1    3    3  502    0 -0.41347193207E+02  0.59367481411E+01 -0.13170398926E+02  0.43798342120E+02  0.00000000000E+00 0. -1.
         -3    1    3    3    0  502 -0.19306671940E+03  0.10850371511E+03  0.12732355142E+03  0.25545860933E+03  0.00000000000E+00 0.  1.
         13    1    5    5    0    0  0.10756653009E+03 -0.22909158406E+03 -0.44520255014E+03  0.51211211949E+03  0.00000000000E+00 0. -1.
        -13    1    5    5    0    0  0.11629388791E+02 -0.22981848034E+02 -0.14084018971E+03  0.14317600029E+03  0.00000000000E+00 0.  1.
          3    1    6    6  503    0  0.83798597735E+02  0.14445219613E+03  0.23651390778E+03  0.28952974031E+03  0.00000000000E+00 0. -1.
         -3    1    6    6    0  503  0.31419395994E+02 -0.68192272951E+01  0.28077602537E+02  0.42685267597E+02  0.00000000000E+00 0.  1.
<mgrwt>
<rscale>  0 0.12699524E+04</rscale>
<asrwt>0</asrwt>
<pdfrwt beam="1">  1        1 0.11492755E+00 0.12699524E+04</pdfrwt>
<pdfrwt beam="2">  1       -1 0.83035539E-01 0.12699524E+04</pdfrwt>
<totfact> 0.34966201E+01</totfact>
</mgrwt>
</event>
<event>
12    3  0.4773567E-008  0.1674877E+04  0.7818608E-02  0.8775824E-01
          1   -1    0    0  501    0  0.00000000000E+00  0.00000000000E+00  0.87673046140E+03  0.87673046140E+03  0.00000000000E+00 0. -1.
         -1   -1    0    0    0  501 -0.00000000000E+00 -0.00000000000E+00 -0.79990712767E+03  0.79990712767E+03  0.00000000000E+00 0.  1.
         23    2    1    2    0    0 -0.49528181146E+03 -0.45427237187E+02  0.35080744013E+03  0.61538432189E+03  0.90908178606E+02 0.  0.
        254    2    1    2    0    0  0.49528181146E+03  0.45427237187E+02 -0.27398410640E+03  0.10612532672E+04  0.89656204464E+03 0.  0.
         23    2    4    4    0    0 -0.17976376990E+01 -0.15551730698E+03 -0.45313062302E+03  0.48837247559E+03  0.94823252017E+02 0.  0.
         23    2    4    4    0    0  0.49707944916E+03  0.20094454417E+03  0.17914651662E+03  0.57288079159E+03  0.92909839876E+02 0.  0.
          3    1    3    3  502    0 -0.37161764369E+03 -0.64423588652E+02  0.23172684409E+03  0.44265946522E+03  0.00000000000E+00 0. -1.
         -3    1    3    3    0  502 -0.12366416777E+03  0.18996351465E+02  0.11908059604E+03  0.17272485667E+03  0.00000000000E+00 0.  1.
         13    1    5    5    0    0 -0.25075518475E+02 -0.14620564693E+03 -0.42755768210E+03  0.45255987929E+03  0.00000000000E+00 0. -1.
        -13    1    5    5    0    0  0.23277880776E+02 -0.93116600487E+01 -0.25572940919E+02  0.35812596297E+02  0.00000000000E+00 0.  1.
          2    1    6    6  503    0  0.29861064547E+03  0.94693234876E+02  0.62896865769E+02  0.31951704500E+03  0.00000000000E+00 0. -1.
         -2    1    6    6    0  503  0.19846880369E+03  0.10625130929E+03  0.11624965085E+03  0.25336374659E+03  0.00000000000E+00 0.  1.
<mgrwt>
<rscale>  0 0.16748766E+04</rscale>
<asrwt>0</asrwt>
<pdfrwt beam="1">  1        1 0.13488161E+00 0.16748766E+04</pdfrwt>
<pdfrwt beam="2">  1       -1 0.12306264E+00 0.16748766E+04</pdfrwt>
<totfact> 0.10554753E+01</totfact>
</mgrwt>
</event>
<event>
12    3  0.4773567E-008  0.1385855E+04  0.7818608E-02  0.8964121E-01
         -1   -1    0    0    0  501 -0.00000000000E+00  0.00000000000E+00  0.13372774498E+04  0.13372774498E+04  0.00000000000E+00 0.  1.
          1   -1    0    0  501    0  0.00000000000E+00 -0.00000000000E+00 -0.35904933393E+03  0.35904933393E+03  0.00000000000E+00 0. -1.
         23    2    1    2    0    0  0.30291140760E+03  0.29911122443E+03  0.36368390672E+03  0.56750208475E+03  0.92573142711E+02 0.  0.
        254    2    1    2    0    0 -0.30291140760E+03 -0.29911122443E+03  0.61454420913E+03  0.11288246990E+04  0.84578825399E+03 0.  0.
         23    2    4    4    0    0 -0.26356178189E+03 -0.58191101620E+03  0.38790095854E+03  0.75297473144E+03  0.91752650686E+02 0.  0.
         23    2    4    4    0    0 -0.39349625716E+02  0.28279979177E+03  0.22664325060E+03  0.37584996753E+03  0.91498195488E+02 0.  0.
          2    1    3    3  502    0  0.26594759217E+02  0.35081810517E+02  0.66998902910E+01  0.44529800997E+02  0.00000000000E+00 0. -1.
         -2    1    3    3    0  502  0.27631664839E+03  0.26402941391E+03  0.35698401643E+03  0.52297228375E+03  0.00000000000E+00 0.  1.
         13    1    5    5    0    0 -0.10127628518E+03 -0.24892786356E+03  0.21511722355E+03  0.34423449429E+03  0.00000000000E+00 0.  1.
        -13    1    5    5    0    0 -0.16228549671E+03 -0.33298315264E+03  0.17278373499E+03  0.40874023715E+03  0.00000000000E+00 0. -1.
          2    1    6    6  503    0  0.28959342738E+02  0.82337960603E+02  0.78581259507E+02  0.11744444488E+03  0.00000000000E+00 0. -1.
         -2    1    6    6    0  503 -0.68308968454E+02  0.20046183117E+03  0.14806199109E+03  0.25840552264E+03  0.00000000000E+00 0.  1.
<mgrwt>
<rscale>  0 0.13858551E+04</rscale>
<asrwt>0</asrwt>
<pdfrwt beam="1">  1        1 0.55238360E-01 0.13858551E+04</pdfrwt>
<pdfrwt beam="2">  1       -1 0.20573499E+00 0.13858551E+04</pdfrwt>
<totfact> 0.92909149E+00</totfact>
</mgrwt>
</event>
<event>
12    3  0.4773567E-008  0.1312704E+04  0.7818608E-02  0.9019551E-01
          1   -1    0    0  501    0  0.00000000000E+00  0.00000000000E+00  0.17327717888E+04  0.17327717888E+04  0.00000000000E+00 0. -1.
         -1   -1    0    0    0  501 -0.00000000000E+00 -0.00000000000E+00 -0.24861769960E+03  0.24861769960E+03  0.00000000000E+00 0.  1.
         23    2    1    2    0    0 -0.26074185563E+03  0.27778384773E+03  0.32051966786E+03  0.50627728226E+03  0.91834893723E+02 0.  0.
        254    2    1    2    0    0  0.26074185563E+03 -0.27778384773E+03  0.11636344214E+04  0.14751122062E+04  0.82265471060E+03 0.  0.
         23    2    4    4    0    0  0.34910324716E+03 -0.15446895106E+03  0.11120133435E+03  0.40766249737E+03  0.89940207790E+02 0.  0.
         23    2    4    4    0    0 -0.88361391540E+02 -0.12331489667E+03  0.10524330870E+04  0.10674497088E+04  0.93910483528E+02 0.  0.
          4    1    3    3  502    0 -0.79961879478E+02  0.60920941751E+02  0.39736349340E+02  0.10809366666E+03  0.00000000000E+00 0. -1.
         -4    1    3    3    0  502 -0.18077997615E+03  0.21686290598E+03  0.28078331853E+03  0.39818361560E+03  0.00000000000E+00 0.  1.
         13    1    5    5    0    0  0.11168428409E+03 -0.31021395059E+02  0.73935488579E+02  0.13748513642E+03  0.00000000000E+00 0. -1.
        -13    1    5    5    0    0  0.23741896307E+03 -0.12344755600E+03  0.37265845769E+02  0.27017736095E+03  0.00000000000E+00 0.  1.
          3    1    6    6  503    0 -0.19398557856E+02  0.83519844926E+01  0.53475740610E+02  0.57495343513E+02  0.00000000000E+00 0. -1.
         -3    1    6    6    0  503 -0.68962833683E+02 -0.13166688117E+03  0.99895734640E+03  0.10099543653E+04  0.00000000000E+00 0.  1.
<mgrwt>
<rscale>  0 0.13127037E+04</rscale>
<asrwt>0</asrwt>
<pdfrwt beam="1">  1        1 0.26658027E+00 0.13127037E+04</pdfrwt>
<pdfrwt beam="2">  1       -1 0.38248878E-01 0.13127037E+04</pdfrwt>
<totfact> 0.29378445E+01</totfact>
</mgrwt>
</event>
<event>
12    3  0.4773567E-008  0.2443429E+04  0.7818608E-02  0.8423421E-01
         -2   -1    0    0    0  501 -0.00000000000E+00  0.00000000000E+00  0.61861552882E+03  0.61861552882E+03  0.00000000000E+00 0.  1.
          2   -1    0    0  501    0  0.00000000000E+00 -0.00000000000E+00 -0.24127851314E+04  0.24127851314E+04  0.00000000000E+00 0. -1.
         23    2    1    2    0    0 -0.78899125414E+03 -0.32693859983E+03  0.26823180010E+02  0.85917232442E+03  0.89786150874E+02 0.  0.
        254    2    1    2    0    0  0.78899125414E+03  0.32693859983E+03 -0.18209927826E+04  0.21722283358E+04  0.82046644140E+03 0.  0.
         23    2    4    4    0    0  0.76546111220E+03  0.51998809362E+03 -0.12199018773E+04  0.15339356126E+04  0.92084425705E+02 0.  0.
         23    2    4    4    0    0  0.23530141945E+02 -0.19304949380E+03 -0.60109090531E+03  0.63829272326E+03  0.91024993735E+02 0.  0.
          2    1    3    3  502    0 -0.78452300778E+03 -0.31447306836E+03  0.29248773512E+02  0.84570985049E+03  0.00000000000E+00 0.  1.
         -2    1    3    3    0  502 -0.44682463585E+01 -0.12465531474E+02 -0.24255935020E+01  0.13462473928E+02  0.00000000000E+00 0. -1.
         13    1    5    5    0    0  0.19286163697E+03  0.13048766629E+03 -0.24392543966E+03  0.33722731530E+03  0.00000000000E+00 0. -1.
        -13    1    5    5    0    0  0.57259947523E+03  0.38950042733E+03 -0.97597643763E+03  0.11967082973E+04  0.00000000000E+00 0.  1.
          2    1    6    6  503    0  0.33323628215E+02 -0.19882399790E+03 -0.58353369336E+03  0.61737591273E+03  0.00000000000E+00 0. -1.
         -2    1    6    6    0  503 -0.97934862701E+01  0.57745041081E+01 -0.17557211950E+02  0.20916810523E+02  0.00000000000E+00 0.  1.
<mgrwt>
<rscale>  0 0.24434290E+04</rscale>
<asrwt>0</asrwt>
<pdfrwt beam="1">  1        2 0.37119771E+00 0.24434290E+04</pdfrwt>
<pdfrwt beam="2">  1       -2 0.95171622E-01 0.24434290E+04</pdfrwt>
<totfact> 0.32501005E+00</totfact>
</mgrwt>
</event>
<event>
12    3  0.4773567E-008  0.1308791E+04  0.7818608E-02  0.9022623E-01
          2   -1    0    0  501    0  0.00000000000E+00  0.00000000000E+00  0.17270300682E+04  0.17270300682E+04  0.00000000000E+00 0.  1.
         -2   -1    0    0    0  501 -0.00000000000E+00 -0.00000000000E+00 -0.24795930330E+03  0.24795930330E+03  0.00000000000E+00 0. -1.
         23    2    1    2    0    0 -0.32506220630E+03 -0.24901276365E+03  0.46996872463E+03  0.62988518718E+03  0.90619823796E+02 0.  0.
        254    2    1    2    0    0  0.32506220630E+03  0.24901276365E+03  0.10091020402E+04  0.13451041843E+04  0.78952235216E+03 0.  0.
         23    2    4    4    0    0  0.21690492657E+03  0.27572877280E+03  0.11115008715E+04  0.11690791210E+04  0.90761778526E+02 0.  0.
         23    2    4    4    0    0  0.10815727973E+03 -0.26716009149E+02 -0.10239883127E+03  0.17602506331E+03  0.89930862140E+02 0.  0.
          4    1    3    3  502    0 -0.20467681555E+03 -0.16241293138E+03  0.36200367416E+03  0.44644957074E+03  0.00000000000E+00 0. -1.
         -4    1    3    3    0  502 -0.12038539075E+03 -0.86599832279E+02  0.10796505047E+03  0.18343561644E+03  0.00000000000E+00 0.  1.
         13    1    5    5    0    0  0.10247475751E+03  0.61771223466E+02  0.37882670324E+03  0.39727374827E+03  0.00000000000E+00 0. -1.
        -13    1    5    5    0    0  0.11443016906E+03  0.21395754934E+03  0.73267416826E+03  0.77180537271E+03  0.00000000000E+00 0.  1.
          3    1    6    6  503    0  0.20641235949E+02  0.90092299222E+01 -0.73959567152E+02  0.77312640743E+02  0.00000000000E+00 0. -1.
         -3    1    6    6    0  503  0.87516043781E+02 -0.35725239071E+02 -0.28439264115E+02  0.98712422568E+02  0.00000000000E+00 0.  1.
<mgrwt>
<rscale>  0 0.13087905E+04</rscale>
<asrwt>0</asrwt>
<pdfrwt beam="1">  1        2 0.26569693E+00 0.13087905E+04</pdfrwt>
<pdfrwt beam="2">  1       -2 0.38147586E-01 0.13087905E+04</pdfrwt>
<totfact> 0.60199552E+01</totfact>
</mgrwt>
</event>
<event>
12    3  0.4773567E-008  0.1955613E+04  0.7818608E-02  0.8627659E-01
          1   -1    0    0  501    0  0.00000000000E+00  0.00000000000E+00  0.17137505272E+04  0.17137505272E+04  0.00000000000E+00 0. -1.
         -1   -1    0    0    0  501 -0.00000000000E+00 -0.00000000000E+00 -0.55790227862E+03  0.55790227862E+03  0.00000000000E+00 0.  1.
         23    2    1    2    0    0 -0.60408501690E+03 -0.39917534696E+02 -0.85696302738E+02  0.61761028185E+03  0.87100440455E+02 0.  0.
        254    2    1    2    0    0  0.60408501690E+03  0.39917534696E+02  0.12415445513E+04  0.16540425240E+04  0.90989652213E+03 0.  0.
         23    2    4    4    0    0 -0.30277680398E+02 -0.20058601312E+03  0.82104050740E+03  0.85072461759E+03  0.92050929378E+02 0.  0.
         23    2    4    4    0    0  0.63436269730E+03  0.24050354782E+03  0.42050404393E+03  0.80331790639E+03  0.90763536339E+02 0.  0.
          3    1    3    3  502    0 -0.23854032037E+03 -0.18157146818E+02  0.89057558588E+01  0.23939607121E+03  0.00000000000E+00 0. -1.
         -3    1    3    3    0  502 -0.36554469653E+03 -0.21760387878E+02 -0.94602058597E+02  0.37821421064E+03  0.00000000000E+00 0.  1.
         13    1    5    5    0    0 -0.15728772249E+02 -0.14967713873E+02  0.23069274807E+03  0.23171225852E+03  0.00000000000E+00 0.  1.
        -13    1    5    5    0    0 -0.14548908148E+02 -0.18561829925E+03  0.59034775933E+03  0.61901235907E+03  0.00000000000E+00 0. -1.
          3    1    6    6  503    0  0.26530204505E+03  0.14871683223E+03  0.19014581309E+03  0.35868830693E+03  0.00000000000E+00 0. -1.
         -3    1    6    6    0  503  0.36906065225E+03  0.91786715591E+02  0.23035823085E+03  0.44462959946E+03  0.00000000000E+00 0.  1.
<mgrwt>
<rscale>  0 0.19556128E+04</rscale>
<asrwt>0</asrwt>
<pdfrwt beam="1">  1        1 0.26365393E+00 0.19556128E+04</pdfrwt>
<pdfrwt beam="2">  1       -1 0.85831120E-01 0.19556128E+04</pdfrwt>
<totfact> 0.58210646E+00</totfact>
</mgrwt>
</event>
<event>
12    3  0.4773567E-008  0.2415674E+04  0.7818608E-02  0.8433659E-01
          1   -1    0    0  501    0  0.00000000000E+00  0.00000000000E+00  0.12748163572E+04  0.12748163572E+04  0.00000000000E+00 0. -1.
         -1   -1    0    0    0  501 -0.00000000000E+00 -0.00000000000E+00 -0.11443770008E+04  0.11443770008E+04  0.00000000000E+00 0.  1.
         23    2    1    2    0    0  0.53632474698E+03  0.86263448007E+03  0.23688062983E+03  0.10472498704E+04  0.94007329004E+02 0.  0.
        254    2    1    2    0    0 -0.53632474698E+03 -0.86263448007E+03 -0.10644127340E+03  0.13719434876E+04  0.91603313701E+03 0.  0.
         23    2    4    4    0    0 -0.37187104187E+03 -0.35187467984E+03  0.37840215513E+03  0.64287169399E+03  0.89397773064E+02 0.  0.
         23    2    4    4    0    0 -0.16445370511E+03 -0.51075980023E+03 -0.48484342853E+03  0.72907179362E+03  0.92476674997E+02 0.  0.
          1    1    3    3  502    0  0.33474233762E+03  0.61975190763E+03  0.15699340894E+03  0.72165905389E+03  0.00000000000E+00 0. -1.
         -1    1    3    3    0  502  0.20158240935E+03  0.24288257244E+03  0.79887220897E+02  0.32559081654E+03  0.00000000000E+00 0.  1.
         13    1    5    5    0    0 -0.33346880032E+03 -0.30841611120E+03  0.29619639205E+03  0.54226768399E+03  0.00000000000E+00 0. -1.
        -13    1    5    5    0    0 -0.38402241549E+02 -0.43458568645E+02  0.82205763081E+02  0.10060401000E+03  0.00000000000E+00 0.  1.
          1    1    6    6  503    0 -0.30076274803E+02 -0.24218228187E+03 -0.20939657291E+03  0.32156455760E+03  0.00000000000E+00 0. -1.
         -1    1    6    6    0  503 -0.13437743030E+03 -0.26857751836E+03 -0.27544685562E+03  0.40750723603E+03  0.00000000000E+00 0.  1.
<mgrwt>
<rscale>  0 0.24156742E+04</rscale>
<asrwt>0</asrwt>
<pdfrwt beam="1">  1        1 0.19612559E+00 0.24156742E+04</pdfrwt>
<pdfrwt beam="2">  1       -1 0.17605800E+00 0.24156742E+04</pdfrwt>
<totfact> 0.18753888E+00</totfact>
</mgrwt>
</event>
<event>
12    3  0.4773567E-008  0.1179493E+04  0.7818608E-02  0.9130998E-01
         -1   -1    0    0    0  501 -0.00000000000E+00  0.00000000000E+00  0.20935020964E+03  0.20935020964E+03  0.00000000000E+00 0.  1.
          1   -1    0    0  501    0  0.00000000000E+00 -0.00000000000E+00 -0.16613362625E+04  0.16613362625E+04  0.00000000000E+00 0. -1.
         23    2    1    2    0    0  0.21743504916E+03 -0.16071761072E+03 -0.46273378004E+03  0.54443386631E+03  0.95799439454E+02 0.  0.
        254    2    1    2    0    0 -0.21743504916E+03  0.16071761072E+03 -0.98925227282E+03  0.13262526058E+04  0.84096240356E+03 0.  0.
         23    2    4    4    0    0 -0.30103725109E+03  0.40156650415E+03 -0.31380853944E+03  0.59845386718E+03  0.88273143809E+02 0.  0.
         23    2    4    4    0    0  0.83602201924E+02 -0.24084889343E+03 -0.67544373338E+03  0.72779873865E+03  0.92028524889E+02 0.  0.
          3    1    3    3  502    0  0.71694739443E+02 -0.57749340003E+02 -0.25204542789E+03  0.26833192068E+03  0.00000000000E+00 0. -1.
         -3    1    3    3    0  502  0.14574030972E+03 -0.10296827072E+03 -0.21068835214E+03  0.27610194563E+03  0.00000000000E+00 0.  1.
         13    1    5    5    0    0 -0.30411370828E+03  0.39989127994E+03 -0.31672443813E+03  0.59389607933E+03  0.00000000000E+00 0. -1.
        -13    1    5    5    0    0  0.30764571892E+01  0.16752242102E+01  0.29158986823E+01  0.45577878535E+01  0.00000000000E+00 0.  1.
          1    1    6    6  503    0  0.58112682254E+02 -0.17776146896E+03 -0.58785116469E+03  0.61688346996E+03  0.00000000000E+00 0. -1.
         -1    1    6    6    0  503  0.25489519669E+02 -0.63087424474E+02 -0.87592568688E+02  0.11091526869E+03  0.00000000000E+00 0.  1.
<mgrwt>
<rscale>  0 0.11794933E+04</rscale>
<asrwt>0</asrwt>
<pdfrwt beam="1">  1        1 0.25559019E+00 0.11794933E+04</pdfrwt>
<pdfrwt beam="2">  1       -1 0.32207725E-01 0.11794933E+04</pdfrwt>
<totfact> 0.45198224E+01</totfact>
</mgrwt>
</event>
<event>
12    3  0.4773567E-008  0.1272560E+04  0.7818608E-02  0.9051613E-01
         -2   -1    0    0    0  501 -0.00000000000E+00  0.00000000000E+00  0.42558365630E+03  0.42558365630E+03  0.00000000000E+00 0.  1.
          2   -1    0    0  501    0  0.00000000000E+00 -0.00000000000E+00 -0.95128747840E+03  0.95128747840E+03  0.00000000000E+00 0. -1.
         23    2    1    2    0    0 -0.13465503108E+03  0.27516950704E+03 -0.17886582245E+03  0.36555284065E+03  0.88236397619E+02 0.  0.
        254    2    1    2    0    0  0.13465503108E+03 -0.27516950704E+03 -0.34683799964E+03  0.10113182941E+04  0.89923181599E+03 0.  0.
         23    2    4    4    0    0 -0.29545837390E+03  0.12178985451E+03 -0.18160275595E+02  0.33384338337E+03  0.94832429246E+02 0.  0.
         23    2    4    4    0    0  0.43011340498E+03 -0.39695936155E+03 -0.32867772405E+03  0.67747491068E+03  0.91481869517E+02 0.  0.
          1    1    3    3  502    0 -0.14756374330E+03  0.25551090308E+03 -0.16915181694E+03  0.34010765517E+03  0.00000000000E+00 0. -1.
         -1    1    3    3    0  502  0.12908712224E+02  0.19658603965E+02 -0.97140055065E+01  0.25445185480E+02  0.00000000000E+00 0.  1.
         13    1    5    5    0    0 -0.26467599544E+02  0.47089898401E+02  0.86583953757E+00  0.54025383248E+02  0.00000000000E+00 0. -1.
        -13    1    5    5    0    0 -0.26899077436E+03  0.74699956111E+02 -0.19026115132E+02  0.27981800012E+03  0.00000000000E+00 0.  1.
          2    1    6    6  503    0  0.11435266944E+03 -0.15821202518E+03 -0.13017095391E+03  0.23463174372E+03  0.00000000000E+00 0. -1.
         -2    1    6    6    0  503  0.31576073554E+03 -0.23874733637E+03 -0.19850677014E+03  0.44284316696E+03  0.00000000000E+00 0.  1.
<mgrwt>
<rscale>  0 0.12725603E+04</rscale>
<asrwt>0</asrwt>
<pdfrwt beam="1">  1        2 0.14635192E+00 0.12725603E+04</pdfrwt>
<pdfrwt beam="2">  1       -2 0.65474408E-01 0.12725603E+04</pdfrwt>
<totfact> 0.57203513E+01</totfact>
</mgrwt>
</event>
<event>
12    3  0.4773567E-008  0.1125896E+04  0.7818608E-02  0.9180313E-01
         -2   -1    0    0    0  501 -0.00000000000E+00  0.00000000000E+00  0.25842457069E+03  0.25842457069E+03  0.00000000000E+00 0.  1.
          2   -1    0    0  501    0  0.00000000000E+00 -0.00000000000E+00 -0.12263180130E+04  0.12263180130E+04  0.00000000000E+00 0. -1.
         23    2    1    2    0    0 -0.16319341600E+03  0.57100054335E+02 -0.32649135878E+03  0.38081698349E+03  0.92371317664E+02 0.  0.
        254    2    1    2    0    0  0.16319341600E+03 -0.57100054335E+02 -0.64140208348E+03  0.11039256001E+04  0.88168168334E+03 0.  0.
         23    2    4    4    0    0 -0.24457862779E+03  0.26182175612E+03 -0.21941806669E+03  0.42949203265E+03  0.89161544232E+02 0.  0.
         23    2    4    4    0    0  0.40777204379E+03 -0.31892181046E+03 -0.42198401679E+03  0.67443356749E+03  0.93813462002E+02 0.  0.
          3    1    3    3  502    0 -0.15388651428E+03  0.47011341661E+02 -0.21531600389E+03  0.26879752055E+03  0.00000000000E+00 0. -1.
         -3    1    3    3    0  502 -0.93069017191E+01  0.10088712674E+02 -0.11117535489E+03  0.11201946294E+03  0.00000000000E+00 0.  1.
         13    1    5    5    0    0 -0.23691755600E+03  0.20940314351E+03 -0.19021661281E+03  0.36900130710E+03  0.00000000000E+00 0. -1.
        -13    1    5    5    0    0 -0.76610717929E+01  0.52418612609E+02 -0.29201453875E+02  0.60490725547E+02  0.00000000000E+00 0.  1.
          1    1    6    6  503    0  0.22781516651E+03 -0.15163229766E+03 -0.16833037397E+03  0.32128992917E+03  0.00000000000E+00 0. -1.
         -1    1    6    6    0  503  0.17995687728E+03 -0.16728951280E+03 -0.25365364282E+03  0.35314363833E+03  0.00000000000E+00 0.  1.
<mgrwt>
<rscale>  0 0.11258965E+04</rscale>
<asrwt>0</asrwt>
<pdfrwt beam="1">  1        2 0.18866431E+00 0.11258965E+04</pdfrwt>
<pdfrwt beam="2">  1       -2 0.39757626E-01 0.11258965E+04</pdfrwt>
<totfact> 0.10830844E+02</totfact>
</mgrwt>
</event>
<event>
12    3  0.4773567E-008  0.1452195E+04  0.7818608E-02  0.8916880E-01
         -2   -1    0    0    0  501 -0.00000000000E+00  0.00000000000E+00  0.23744374166E+03  0.23744374166E+03  0.00000000000E+00 0. -1.
          2   -1    0    0  501    0  0.00000000000E+00 -0.00000000000E+00 -0.22203889613E+04  0.22203889613E+04  0.00000000000E+00 0.  1.
         23    2    1    2    0    0 -0.39395085211E+03  0.77243404887E+02 -0.30089741601E+03  0.50977335414E+03  0.90364817010E+02 0.  0.
        254    2    1    2    0    0  0.39395085211E+03 -0.77243404887E+02 -0.16820478037E+04  0.19480593489E+04  0.89693176741E+03 0.  0.
         23    2    4    4    0    0  0.33724700228E+03  0.29956371390E+03 -0.40749734352E+03  0.61456917237E+03  0.90372691777E+02 0.  0.
         23    2    4    4    0    0  0.56703849830E+02 -0.37680711878E+03 -0.12745504601E+04  0.13334901765E+04  0.92294333474E+02 0.  0.
          1    1    3    3  502    0 -0.29068223519E+03  0.96734245360E+02 -0.22057756152E+03  0.37750249897E+03  0.00000000000E+00 0. -1.
         -1    1    3    3    0  502 -0.10326861692E+03 -0.19490840473E+02 -0.80319854492E+02  0.13227085517E+03  0.00000000000E+00 0.  1.
         13    1    5    5    0    0  0.10518152736E+03  0.53257839021E+02 -0.72566568017E+02  0.13843936546E+03  0.00000000000E+00 0. -1.
        -13    1    5    5    0    0  0.23206547492E+03  0.24630587487E+03 -0.33493077551E+03  0.47612980691E+03  0.00000000000E+00 0.  1.
          4    1    6    6  503    0  0.42947653701E+02 -0.97239104219E+02 -0.46228831920E+03  0.47435264773E+03  0.00000000000E+00 0. -1.
         -4    1    6    6    0  503  0.13756196129E+02 -0.27956801456E+03 -0.81226214095E+03  0.85913752876E+03  0.00000000000E+00 0.  1.
<mgrwt>
<rscale>  0 0.14521948E+04</rscale>
<asrwt>0</asrwt>
<pdfrwt beam="1">  1        2 0.34159829E+00 0.14521948E+04</pdfrwt>
<pdfrwt beam="2">  1       -2 0.36529807E-01 0.14521948E+04</pdfrwt>
<totfact> 0.34454504E+01</totfact>
</mgrwt>
</event>
<event>
12    3  0.4773567E-008  0.1604021E+04  0.7818608E-02  0.8818082E-01
         -2   -1    0    0    0  501 -0.00000000000E+00  0.00000000000E+00  0.27290806412E+03  0.27290806412E+03  0.00000000000E+00 0. -1.
          2   -1    0    0  501    0  0.00000000000E+00 -0.00000000000E+00 -0.23569135684E+04  0.23569135684E+04  0.00000000000E+00 0.  1.
         23    2    1    2    0    0 -0.29590273312E+02 -0.38342877599E+03 -0.13365545551E+04  0.13930854526E+04  0.80098619154E+02 0.  0.
        254    2    1    2    0    0  0.29590273312E+02  0.38342877599E+03 -0.74745094916E+03  0.12367361800E+04  0.90716054085E+03 0.  0.
         23    2    4    4    0    0 -0.11359462770E+02 -0.27913825162E+03 -0.35353491805E+03  0.45966460021E+03  0.90870267376E+02 0.  0.
         23    2    4    4    0    0  0.40949736082E+02  0.66256702761E+03 -0.39391603111E+03  0.77707157974E+03  0.89434073566E+02 0.  0.
          4    1    3    3  502    0  0.21011522877E+02 -0.36209306511E+02 -0.13450797583E+03  0.14087225963E+03  0.00000000000E+00 0. -1.
         -4    1    3    3    0  502 -0.50601796190E+02 -0.34721946948E+03 -0.12020465793E+04  0.12522131929E+04  0.00000000000E+00 0.  1.
         13    1    5    5    0    0 -0.41406858226E+02 -0.68313879404E+02 -0.11331818213E+03  0.13864459755E+03  0.00000000000E+00 0. -1.
        -13    1    5    5    0    0  0.30047395456E+02 -0.21082437222E+03 -0.24021673592E+03  0.32102000267E+03  0.00000000000E+00 0.  1.
          1    1    6    6  503    0  0.59012910569E+02  0.33075065227E+03 -0.22442421348E+03  0.40403557416E+03  0.00000000000E+00 0. -1.
         -1    1    6    6    0  503 -0.18063174487E+02  0.33181637534E+03 -0.16949181763E+03  0.37303600558E+03  0.00000000000E+00 0.  1.
<mgrwt>
<rscale>  0 0.16040208E+04</rscale>
<asrwt>0</asrwt>
<pdfrwt beam="1">  1        2 0.36260208E+00 0.16040208E+04</pdfrwt>
<pdfrwt beam="2">  1       -2 0.41985857E-01 0.16040208E+04</pdfrwt>
<totfact> 0.21715390E+01</totfact>
</mgrwt>
</event>
<event>
12    3  0.4773567E-008  0.1548341E+04  0.7818608E-02  0.8852928E-01
         -1   -1    0    0    0  501 -0.00000000000E+00  0.00000000000E+00  0.24204509155E+03  0.24204509155E+03  0.00000000000E+00 0.  1.
          1   -1    0    0  501    0  0.00000000000E+00 -0.00000000000E+00 -0.24761493590E+04  0.24761493590E+04  0.00000000000E+00 0. -1.
         23    2    1    2    0    0 -0.18911902226E+03  0.26758603117E+03 -0.10409037668E+03  0.35601548086E+03  0.92433367562E+02 0.  0.
        254    2    1    2    0    0  0.18911902226E+03 -0.26758603117E+03 -0.21300138907E+04  0.23621789696E+04  0.96724455091E+03 0.  0.
         23    2    4    4    0    0 -0.11317701695E+03  0.32135778966E+03 -0.74336926439E+03  0.82294159647E+03  0.92494009639E+02 0.  0.
         23    2    4    4    0    0  0.30229603921E+03 -0.58894382083E+03 -0.13866446263E+04  0.15392373732E+04  0.90722939793E+02 0.  0.
          1    1    3    3  502    0 -0.10452585725E+03  0.12192921577E+03 -0.96590524445E+02  0.18740895897E+03  0.00000000000E+00 0. -1.
         -1    1    3    3    0  502 -0.84593165012E+02  0.14565681541E+03 -0.74998522363E+01  0.16860652189E+03  0.00000000000E+00 0.  1.
         13    1    5    5    0    0 -0.12877753943E+03  0.28993257201E+03 -0.68379862341E+03  0.75380707634E+03  0.00000000000E+00 0.  1.
        -13    1    5    5    0    0  0.15600522477E+02  0.31425217643E+02 -0.59570640986E+02  0.69134520126E+02  0.00000000000E+00 0. -1.
          2    1    6    6  503    0  0.92992209529E+02 -0.27976642159E+03 -0.60889541988E+03  0.67651343966E+03  0.00000000000E+00 0. -1.
         -2    1    6    6    0  503  0.20930382968E+03 -0.30917739924E+03 -0.77774920645E+03  0.86272393351E+03  0.00000000000E+00 0.  1.
<mgrwt>
<rscale>  0 0.15483408E+04</rscale>
<asrwt>0</asrwt>
<pdfrwt beam="1">  1        1 0.38094606E+00 0.15483408E+04</pdfrwt>
<pdfrwt beam="2">  1       -1 0.37237706E-01 0.15483408E+04</pdfrwt>
<totfact> 0.94308630E+00</totfact>
</mgrwt>
</event>
<event>
12    3  0.4773567E-008  0.2052483E+04  0.7818608E-02  0.8582469E-01
         -1   -1    0    0    0  501 -0.00000000000E+00  0.00000000000E+00  0.24068552084E+03  0.24068552084E+03  0.00000000000E+00 0.  1.
          1   -1    0    0  501    0  0.00000000000E+00 -0.00000000000E+00 -0.43757169004E+04  0.43757169004E+04  0.00000000000E+00 0. -1.
         23    2    1    2    0    0 -0.67480691550E+03  0.47805612223E+03 -0.17307544458E+04  0.19201126883E+04  0.86138000647E+02 0.  0.
        254    2    1    2    0    0  0.67480691550E+03 -0.47805612223E+03 -0.24042769338E+04  0.26962897329E+04  0.89751251814E+03 0.  0.
         23    2    4    4    0    0  0.53419508157E+03  0.15442196944E+03 -0.12179745927E+04  0.13414705495E+04  0.82889064594E+02 0.  0.
         23    2    4    4    0    0  0.14061183392E+03 -0.63247809167E+03 -0.11863023411E+04  0.13548191833E+04  0.91769007959E+02 0.  0.
          1    1    3    3  502    0 -0.60426850928E+03  0.44888176534E+03 -0.15252382131E+04  0.17008782664E+04  0.00000000000E+00 0. -1.
         -1    1    3    3    0  502 -0.70538406219E+02  0.29174356888E+02 -0.20551623267E+03  0.21923442189E+03  0.00000000000E+00 0.  1.
         13    1    5    5    0    0  0.35488927263E+03  0.13764436240E+03 -0.87101582496E+03  0.95055822213E+03  0.00000000000E+00 0.  1.
        -13    1    5    5    0    0  0.17930580894E+03  0.16777607047E+02 -0.34695876771E+03  0.39091232739E+03  0.00000000000E+00 0. -1.
          3    1    6    6  503    0  0.28195099887E+02 -0.30353305093E+02 -0.87811555482E+02  0.97093542854E+02  0.00000000000E+00 0. -1.
         -3    1    6    6    0  503  0.11241673403E+03 -0.60212478658E+03 -0.10984907856E+04  0.12577256405E+04  0.00000000000E+00 0.  1.
<mgrwt>
<rscale>  0 0.20524831E+04</rscale>
<asrwt>0</asrwt>
<pdfrwt beam="1">  1        1 0.67318719E+00 0.20524831E+04</pdfrwt>
<pdfrwt beam="2">  1       -1 0.37028543E-01 0.20524831E+04</pdfrwt>
<totfact> 0.28118211E-01</totfact>
</mgrwt>
</event>
<event>
12    3  0.4773567E-008  0.2762096E+04  0.7818608E-02  0.8315134E-01
          2   -1    0    0  501    0  0.00000000000E+00  0.00000000000E+00  0.38352203287E+04  0.38352203287E+04  0.00000000000E+00 0. -1.
         -2   -1    0    0    0  501 -0.00000000000E+00 -0.00000000000E+00 -0.49731009142E+03  0.49731009142E+03  0.00000000000E+00 0.  1.
         23    2    1    2    0    0 -0.99135019521E+03  0.11414038393E+03  0.35979021646E+03  0.10649707798E+04  0.94395578006E+02 0.  0.
        254    2    1    2    0    0  0.99135019521E+03 -0.11414038393E+03  0.29781200208E+04  0.32675596403E+04  0.90107930165E+03 0.  0.
         23    2    4    4    0    0  0.10974138153E+04  0.67832032134E+02  0.22856287948E+04  0.25380886272E+04  0.94215844187E+02 0.  0.
         23    2    4    4    0    0 -0.10606362007E+03 -0.18197241607E+03  0.69249122603E+03  0.72947101315E+03  0.90666472167E+02 0.  0.
          1    1    3    3  502    0 -0.19821666965E+03  0.35416876253E+02  0.35345629597E+02  0.20443462716E+03  0.00000000000E+00 0. -1.
         -1    1    3    3    0  502 -0.79313352557E+03  0.78723507678E+02  0.32444458686E+03  0.86053615263E+03  0.00000000000E+00 0.  1.
         13    1    5    5    0    0 -0.17228733293E+00  0.40313533693E+01  0.68377946515E+01  0.79395798761E+01  0.00000000000E+00 0.  1.
        -13    1    5    5    0    0  0.10975861026E+04  0.63800678765E+02  0.22787910001E+04  0.25301490473E+04  0.00000000000E+00 0. -1.
          3    1    6    6  503    0 -0.10169656553E+03 -0.12305936301E+03  0.58956286223E+03  0.61079470101E+03  0.00000000000E+00 0. -1.
         -3    1    6    6    0  503 -0.43670545345E+01 -0.58913053061E+02  0.10292836381E+03  0.11867631214E+03  0.00000000000E+00 0.  1.
<mgrwt>
<rscale>  0 0.27620961E+04</rscale>
<asrwt>0</asrwt>
<pdfrwt beam="1">  1        2 0.59003388E+00 0.27620961E+04</pdfrwt>
<pdfrwt beam="2">  1       -2 0.76509247E-01 0.27620961E+04</pdfrwt>
<totfact> 0.61580725E-01</totfact>
</mgrwt>
</event>
<event>
12    3  0.4773567E-008  0.1580670E+04  0.7818608E-02  0.8832512E-01
         -1   -1    0    0    0  501 -0.00000000000E+00  0.00000000000E+00  0.52423891723E+03  0.52423891723E+03  0.00000000000E+00 0.  1.
          1   -1    0    0  501    0  0.00000000000E+00 -0.00000000000E+00 -0.11914981444E+04  0.11914981444E+04  0.00000000000E+00 0. -1.
         23    2    1    2    0    0  0.18154582654E+03 -0.45120534796E+03  0.12501992410E+02  0.49251265817E+03  0.76598077552E+02 0.  0.
        254    2    1    2    0    0 -0.18154582654E+03  0.45120534796E+03 -0.67976121958E+03  0.12232244035E+04  0.89311671825E+03 0.  0.
         23    2    4    4    0    0 -0.70957972010E+01  0.69553740959E+03 -0.48164836424E+03  0.85077108907E+03  0.89463180938E+02 0.  0.
         23    2    4    4    0    0 -0.17445002934E+03 -0.24433206164E+03 -0.19811285534E+03  0.37245331439E+03  0.96652981693E+02 0.  0.
          4    1    3    3  502    0  0.61282210178E+02 -0.21656112857E+03  0.35480473843E+02  0.22784445509E+03  0.00000000000E+00 0. -1.
         -4    1    3    3    0  502  0.12026361636E+03 -0.23464421939E+03 -0.22978481433E+02  0.26466820308E+03  0.00000000000E+00 0.  1.
         13    1    5    5    0    0 -0.25198966476E+02  0.66579898578E+03 -0.45304467736E+03  0.80571257720E+03  0.00000000000E+00 0.  1.
        -13    1    5    5    0    0  0.18103169275E+02  0.29738423808E+02 -0.28603686880E+02  0.45058511865E+02  0.00000000000E+00 0. -1.
          1    1    6    6  503    0 -0.13559801107E+03 -0.12226935683E+03 -0.84321522789E+02  0.20111373755E+03  0.00000000000E+00 0. -1.
         -1    1    6    6    0  503 -0.38852018268E+02 -0.12206270481E+03 -0.11379133255E+03  0.17133957684E+03  0.00000000000E+00 0.  1.
<mgrwt>
<rscale>  0 0.15806704E+04</rscale>
<asrwt>0</asrwt>
<pdfrwt beam="1">  1        1 0.18330740E+00 0.15806704E+04</pdfrwt>
<pdfrwt beam="2">  1       -1 0.80652142E-01 0.15806704E+04</pdfrwt>
<totfact> 0.15973099E+01</totfact>
</mgrwt>
</event>
<event>
12    3  0.4773567E-008  0.2560039E+04  0.7818608E-02  0.8381903E-01
          2   -1    0    0  501    0  0.00000000000E+00  0.00000000000E+00  0.13463984286E+04  0.13463984286E+04  0.00000000000E+00 0. -1.
         -2   -1    0    0    0  501 -0.00000000000E+00 -0.00000000000E+00 -0.12169135156E+04  0.12169135156E+04  0.00000000000E+00 0.  1.
         23    2    1    2    0    0 -0.53334776185E+02  0.54828712155E+03 -0.91874191934E+03  0.10748442912E+04  0.87978236274E+02 0.  0.
        254    2    1    2    0    0  0.53334776185E+02 -0.54828712155E+03  0.10482268324E+04  0.14884676530E+04  0.90182764210E+03 0.  0.
         23    2    4    4    0    0  0.30153438137E+03 -0.63518569579E+03  0.48242631571E+03  0.85758933571E+03  0.91326159150E+02 0.  0.
         23    2    4    4    0    0 -0.24819960519E+03  0.86898574249E+02  0.56580051665E+03  0.63087831733E+03  0.93396040662E+02 0.  0.
          3    1    3    3  502    0  0.18292431956E+02  0.17439252577E+03 -0.25057163758E+03  0.30583248956E+03  0.00000000000E+00 0. -1.
         -3    1    3    3    0  502 -0.71627208141E+02  0.37389459577E+03 -0.66817028176E+03  0.76901180168E+03  0.00000000000E+00 0.  1.
         13    1    5    5    0    0  0.23703210248E+02 -0.70414015245E+02  0.21151820794E+02  0.77248787964E+02  0.00000000000E+00 0. -1.
        -13    1    5    5    0    0  0.27783117113E+03 -0.56477168055E+03  0.46127449492E+03  0.78034054775E+03  0.00000000000E+00 0.  1.
          3    1    6    6  503    0 -0.38319930757E+02 -0.12381265785E+02  0.43391662637E+02  0.59199233289E+02  0.00000000000E+00 0. -1.
         -3    1    6    6    0  503 -0.20987967443E+03  0.99279840034E+02  0.52240885401E+03  0.57167908404E+03  0.00000000000E+00 0.  1.
<mgrwt>
<rscale>  0 0.25600394E+04</rscale>
<asrwt>0</asrwt>
<pdfrwt beam="1">  1        2 0.20713822E+00 0.25600394E+04</pdfrwt>
<pdfrwt beam="2">  1       -2 0.18721746E+00 0.25600394E+04</pdfrwt>
<totfact> 0.22316844E+00</totfact>
</mgrwt>
</event>
<event>
12    3  0.4773567E-008  0.2656507E+04  0.7818608E-02  0.8349256E-01
          2   -1    0    0  501    0  0.00000000000E+00  0.00000000000E+00  0.56009965878E+03  0.56009965878E+03  0.00000000000E+00 0. -1.
         -2   -1    0    0    0  501 -0.00000000000E+00 -0.00000000000E+00 -0.31498993989E+04  0.31498993989E+04  0.00000000000E+00 0.  1.
         23    2    1    2    0    0  0.48994060139E+03 -0.94960062858E+03 -0.18039149983E+04  0.20986055313E+04  0.90844417183E+02 0.  0.
        254    2    1    2    0    0 -0.48994060139E+03  0.94960062858E+03 -0.78588474182E+03  0.16113935264E+04  0.91498148769E+03 0.  0.
         23    2    4    4    0    0  0.26770998068E+02  0.19936606282E+03 -0.64943748269E+03  0.68558259104E+03  0.88266255589E+02 0.  0.
         23    2    4    4    0    0 -0.51671159946E+03  0.75023456576E+03 -0.13644725913E+03  0.92581093536E+03  0.93087339836E+02 0.  0.
          1    1    3    3  502    0  0.20949509875E+03 -0.43787726791E+03 -0.90347617895E+03  0.10256187908E+04  0.00000000000E+00 0. -1.
         -1    1    3    3    0  502  0.28044550265E+03 -0.51172336067E+03 -0.90043881932E+03  0.10729867404E+04  0.00000000000E+00 0.  1.
         13    1    5    5    0    0 -0.11805381910E+02  0.10833987771E+03 -0.22803716542E+03  0.25274066740E+03  0.00000000000E+00 0. -1.
        -13    1    5    5    0    0  0.38576379978E+02  0.91026185107E+02 -0.42140031727E+03  0.43284192364E+03  0.00000000000E+00 0.  1.
          3    1    6    6  503    0 -0.89409176736E+02  0.80100990973E+02 -0.31750127173E+02  0.12417020663E+03  0.00000000000E+00 0. -1.
         -3    1    6    6    0  503 -0.42730242273E+03  0.67013357478E+03 -0.10469713196E+03  0.80164072873E+03  0.00000000000E+00 0.  1.
<mgrwt>
<rscale>  0 0.26565072E+04</rscale>
<asrwt>0</asrwt>
<pdfrwt beam="1">  1        2 0.86169180E-01 0.26565072E+04</pdfrwt>
<pdfrwt beam="2">  1       -2 0.48459990E+00 0.26565072E+04</pdfrwt>
<totfact> 0.97573465E-02</totfact>
</mgrwt>
</event>
<event>
12    3  0.4773567E-008  0.1749234E+04  0.7818608E-02  0.8733772E-01
         -2   -1    0    0    0  501 -0.00000000000E+00  0.00000000000E+00  0.36748959440E+03  0.36748959440E+03  0.00000000000E+00 0. -1.
          2   -1    0    0  501    0  0.00000000000E+00 -0.00000000000E+00 -0.20815676921E+04  0.20815676921E+04  0.00000000000E+00 0.  1.
         23    2    1    2    0    0  0.39667271847E+03 -0.47222072674E+03 -0.72529313089E+03  0.95638890268E+03  0.91038162884E+02 0.  0.
        254    2    1    2    0    0 -0.39667271847E+03  0.47222072674E+03 -0.98878496677E+03  0.14926683838E+04  0.93274944819E+03 0.  0.
         23    2    4    4    0    0 -0.50851172932E+03  0.60928277123E+03 -0.10145008889E+04  0.12912977416E+04  0.91804845835E+02 0.  0.
         23    2    4    4    0    0  0.11183901085E+03 -0.13706204449E+03  0.25715922147E+02  0.20137064217E+03  0.92708459637E+02 0.  0.
          4    1    3    3  502    0  0.21304883704E+03 -0.32005412337E+03 -0.42999798136E+03  0.57682121392E+03  0.00000000000E+00 0. -1.
         -4    1    3    3    0  502  0.18362388143E+03 -0.15216660336E+03 -0.29529514953E+03  0.37956768876E+03  0.00000000000E+00 0.  1.
         13    1    5    5    0    0 -0.45572938375E+03  0.55267909904E+03 -0.86632837000E+03  0.11241300202E+04  0.00000000000E+00 0. -1.
        -13    1    5    5    0    0 -0.52782345570E+02  0.56603672186E+02 -0.14817251892E+03  0.16716772138E+03  0.00000000000E+00 0.  1.
          2    1    6    6  503    0  0.11352021547E+03 -0.13130040287E+03 -0.14228704259E+01  0.17357609189E+03  0.00000000000E+00 0. -1.
         -2    1    6    6    0  503 -0.16812046210E+01 -0.57616416202E+01  0.27138792573E+02  0.27794550283E+02  0.00000000000E+00 0.  1.
<mgrwt>
<rscale>  0 0.17492335E+04</rscale>
<asrwt>0</asrwt>
<pdfrwt beam="1">  1        2 0.32024119E+00 0.17492335E+04</pdfrwt>
<pdfrwt beam="2">  1       -2 0.56536859E-01 0.17492335E+04</pdfrwt>
<totfact> 0.16742946E+01</totfact>
</mgrwt>
</event>
<event>
12    3  0.4773567E-008  0.2118071E+04  0.7818608E-02  0.8553324E-01
          2   -1    0    0  501    0  0.00000000000E+00  0.00000000000E+00  0.57703612183E+03  0.57703612183E+03  0.00000000000E+00 0. -1.
         -2   -1    0    0    0  501 -0.00000000000E+00 -0.00000000000E+00 -0.19436500528E+04  0.19436500528E+04  0.00000000000E+00 0.  1.
         23    2    1    2    0    0  0.62694601445E+03  0.47921843756E+03 -0.14215781671E+03  0.80695966668E+03  0.90903481027E+02 0.  0.
        254    2    1    2    0    0 -0.62694601445E+03 -0.47921843756E+03 -0.12244561142E+04  0.17137265079E+04  0.90269272311E+03 0.  0.
         23    2    4    4    0    0 -0.28600159668E+03 -0.62895830980E+03 -0.11136794082E+04  0.13137804187E+04  0.91387612209E+02 0.  0.
         23    2    4    4    0    0 -0.34094441777E+03  0.14973987224E+03 -0.11077670606E+03  0.39994608920E+03  0.94975103652E+02 0.  0.
          1    1    3    3  502    0  0.26501326217E+03  0.22344423384E+03 -0.19867414154E+02  0.34720897009E+03  0.00000000000E+00 0. -1.
         -1    1    3    3    0  502  0.36193275228E+03  0.25577420372E+03 -0.12229040255E+03  0.45975069659E+03  0.00000000000E+00 0.  1.
         13    1    5    5    0    0 -0.12938749974E+03 -0.37148015513E+03 -0.57827872479E+03  0.69938895780E+03  0.00000000000E+00 0. -1.
        -13    1    5    5    0    0 -0.15661409694E+03 -0.25747815467E+03 -0.53540068339E+03  0.61439146093E+03  0.00000000000E+00 0.  1.
          3    1    6    6  503    0 -0.22884870820E+03  0.90259067302E+02 -0.11800009126E+03  0.27284144116E+03  0.00000000000E+00 0. -1.
         -3    1    6    6    0  503 -0.11209570957E+03  0.59480804934E+02  0.72233852041E+01  0.12710464804E+03  0.00000000000E+00 0.  1.
<mgrwt>
<rscale>  0 0.21180711E+04</rscale>
<asrwt>0</asrwt>
<pdfrwt beam="1">  1        2 0.88774787E-01 0.21180711E+04</pdfrwt>
<pdfrwt beam="2">  1       -2 0.29902309E+00 0.21180711E+04</pdfrwt>
<totfact> 0.15426413E+00</totfact>
</mgrwt>
</event>
<event>
12    3  0.4773567E-008  0.2104252E+04  0.7818608E-02  0.8559372E-01
         -2   -1    0    0    0  501 -0.00000000000E+00  0.00000000000E+00  0.75813940982E+03  0.75813940982E+03  0.00000000000E+00 0.  1.
          2   -1    0    0  501    0  0.00000000000E+00 -0.00000000000E+00 -0.14601135202E+04  0.14601135202E+04  0.00000000000E+00 0. -1.
         23    2    1    2    0    0 -0.12979042301E+03  0.65989127137E+03 -0.83500558726E+03  0.10761024224E+04  0.91978523238E+02 0.  0.
        254    2    1    2    0    0  0.12979042301E+03 -0.65989127137E+03  0.13303147691E+03  0.11421505076E+04  0.91351429342E+03 0.  0.
         23    2    4    4    0    0  0.68651230870E+02 -0.85580099419E+03  0.23661636811E+03  0.89523236880E+03  0.91352916398E+02 0.  0.
         23    2    4    4    0    0  0.61139192139E+02  0.19590972282E+03 -0.10358489120E+03  0.24691813882E+03  0.90111693370E+02 0.  0.
          2    1    3    3  502    0 -0.21327449186E+02  0.70384014429E+02 -0.14141662631E+03  0.15939708834E+03  0.00000000000E+00 0. -1.
         -2    1    3    3    0  502 -0.10846297382E+03  0.58950725694E+03 -0.69358896095E+03  0.91670533402E+03  0.00000000000E+00 0.  1.
         13    1    5    5    0    0  0.84645795493E+02 -0.50558285210E+03  0.14981990495E+03  0.53406454193E+03  0.00000000000E+00 0.  1.
        -13    1    5    5    0    0 -0.15994564623E+02 -0.35021814209E+03  0.86796463164E+02  0.36116782687E+03  0.00000000000E+00 0. -1.
          3    1    6    6  503    0  0.67236915786E+02  0.14605249285E+03 -0.11205431718E+03  0.19598036511E+03  0.00000000000E+00 0. -1.
         -3    1    6    6    0  503 -0.60977236470E+01  0.49857229971E+02  0.84694259720E+01  0.50937773708E+02  0.00000000000E+00 0.  1.
<mgrwt>
<rscale>  0 0.21042525E+04</rscale>
<asrwt>0</asrwt>
<pdfrwt beam="1">  1        2 0.22463285E+00 0.21042525E+04</pdfrwt>
<pdfrwt beam="2">  1       -2 0.11663683E+00 0.21042525E+04</pdfrwt>
<totfact> 0.70178902E+00</totfact>
</mgrwt>
</event>
<event>
12    3  0.4773567E-008  0.1576171E+04  0.7818608E-02  0.8835322E-01
          2   -1    0    0  501    0  0.00000000000E+00  0.00000000000E+00  0.17044343320E+04  0.17044343320E+04  0.00000000000E+00 0. -1.
         -2   -1    0    0    0  501 -0.00000000000E+00 -0.00000000000E+00 -0.36438989241E+03  0.36438989241E+03  0.00000000000E+00 0.  1.
         23    2    1    2    0    0 -0.35624082967E+03 -0.29862072187E+03  0.78487633491E+03  0.91724267749E+03  0.96028141993E+02 0.  0.
        254    2    1    2    0    0  0.35624082967E+03  0.29862072187E+03  0.55516810472E+03  0.11515815469E+04  0.89545886032E+03 0.  0.
         23    2    4    4    0    0  0.26353186485E+03  0.58945523256E+03  0.51484640797E+03  0.83090167756E+03  0.91783762114E+02 0.  0.
         23    2    4    4    0    0  0.92708964820E+02 -0.29083451070E+03  0.40321696746E+02  0.32067986938E+03  0.89610683678E+02 0.  0.
          4    1    3    3  502    0 -0.36044178270E+03 -0.29803316826E+03  0.76282560250E+03  0.89478765522E+03  0.00000000000E+00 0. -1.
         -4    1    3    3    0  502  0.42009530226E+01 -0.58755360239E+00  0.22050732409E+02  0.22455022273E+02  0.00000000000E+00 0.  1.
         13    1    5    5    0    0 -0.13972553027E+01  0.19520605538E+02  0.19207699790E+01  0.19664580348E+02  0.00000000000E+00 0.  1.
        -13    1    5    5    0    0  0.26492912016E+03  0.56993462703E+03  0.51292563799E+03  0.81123709722E+03  0.00000000000E+00 0. -1.
          4    1    6    6  503    0  0.51001877415E+02 -0.25731232719E+03  0.47841089586E+02  0.26664507323E+03  0.00000000000E+00 0. -1.
         -4    1    6    6    0  503  0.41707087405E+02 -0.33522183504E+02 -0.75193928400E+01  0.54034796154E+02  0.00000000000E+00 0.  1.
<mgrwt>
<rscale>  0 0.15761709E+04</rscale>
<asrwt>0</asrwt>
<pdfrwt beam="1">  1        2 0.26222066E+00 0.15761709E+04</pdfrwt>
<pdfrwt beam="2">  1       -2 0.56059984E-01 0.15761709E+04</pdfrwt>
<totfact> 0.27984325E+01</totfact>
</mgrwt>
</event>
<event>
12    3  0.4773567E-008  0.1333806E+04  0.7818608E-02  0.9003178E-01
          1   -1    0    0  501    0  0.00000000000E+00  0.00000000000E+00  0.19155777185E+04  0.19155777185E+04  0.00000000000E+00 0. -1.
         -1   -1    0    0    0  501 -0.00000000000E+00 -0.00000000000E+00 -0.23218039555E+03  0.23218039555E+03  0.00000000000E+00 0.  1.
         23    2    1    2    0    0  0.17731424248E+03  0.13313446134E+03  0.18480481348E+02  0.24144334873E+03  0.93745597609E+02 0.  0.
        254    2    1    2    0    0 -0.17731424248E+03 -0.13313446134E+03  0.16649168416E+04  0.19063147653E+04  0.90162229876E+03 0.  0.
         23    2    4    4    0    0  0.29740278288E+03  0.15824353291E+03  0.47552675807E+03  0.58984893542E+03  0.91140759334E+02 0.  0.
         23    2    4    4    0    0 -0.47471702536E+03 -0.29137799425E+03  0.11893900835E+04  0.13164658299E+04  0.90421904221E+02 0.  0.
          1    1    3    3  502    0  0.91021095028E+02  0.52627944056E+02  0.54001142458E+02  0.11819756183E+03  0.00000000000E+00 0. -1.
         -1    1    3    3    0  502  0.86293147455E+02  0.80506517282E+02 -0.35520661110E+02  0.12324578690E+03  0.00000000000E+00 0.  1.
         13    1    5    5    0    0  0.87281264245E+02  0.11387934287E+02  0.16648405756E+03  0.18832059250E+03  0.00000000000E+00 0. -1.
        -13    1    5    5    0    0  0.21012151863E+03  0.14685559863E+03  0.30904270050E+03  0.40152834293E+03  0.00000000000E+00 0.  1.
          3    1    6    6  503    0 -0.10308099732E+03 -0.94551856803E+02  0.23408651676E+03  0.27269441315E+03  0.00000000000E+00 0. -1.
         -3    1    6    6    0  503 -0.37163602804E+03 -0.19682613745E+03  0.95530356676E+03  0.10437714167E+04  0.00000000000E+00 0.  1.
<mgrwt>
<rscale>  0 0.13338060E+04</rscale>
<asrwt>0</asrwt>
<pdfrwt beam="1">  1        1 0.29470425E+00 0.13338060E+04</pdfrwt>
<pdfrwt beam="2">  1       -1 0.35720062E-01 0.13338060E+04</pdfrwt>
<totfact> 0.24949392E+01</totfact>
</mgrwt>
</event>
<event>
12    3  0.4773567E-008  0.2937299E+04  0.7818608E-02  0.8261866E-01
          2   -1    0    0  501    0  0.00000000000E+00  0.00000000000E+00  0.18157144136E+04  0.18157144136E+04  0.00000000000E+00 0. -1.
         -2   -1    0    0    0  501 -0.00000000000E+00 -0.00000000000E+00 -0.11879245159E+04  0.11879245159E+04  0.00000000000E+00 0.  1.
         23    2    1    2    0    0 -0.65537869512E+03 -0.11271074735E+04  0.45937951027E+02  0.13078424888E+04  0.91919471062E+02 0.  0.
        254    2    1    2    0    0  0.65537869512E+03  0.11271074735E+04  0.58185194671E+03  0.16957964408E+04  0.91503081361E+03 0.  0.
         23    2    4    4    0    0 -0.21936619676E+03  0.27363597227E+03  0.77705728704E+02  0.37068901303E+03  0.91509510488E+02 0.  0.
         23    2    4    4    0    0  0.87474489188E+03  0.85347150126E+03  0.50414621801E+03  0.13251074278E+04  0.90299815432E+02 0.  0.
          1    1    3    3  502    0 -0.53491322958E+03 -0.92157173431E+03  0.18789225436E+01  0.10655656503E+04  0.00000000000E+00 0. -1.
         -1    1    3    3    0  502 -0.12046546554E+03 -0.20553573922E+03  0.44059028483E+02  0.24227683850E+03  0.00000000000E+00 0.  1.
         13    1    5    5    0    0 -0.18011342894E+03  0.16281044053E+03  0.70846078563E+02  0.25291748393E+03  0.00000000000E+00 0. -1.
        -13    1    5    5    0    0 -0.39252767817E+02  0.11082553174E+03  0.68596501419E+01  0.11777152910E+03  0.00000000000E+00 0.  1.
          2    1    6    6  503    0  0.54336053290E+03  0.58927050016E+03  0.33763395299E+03  0.86975690700E+03  0.00000000000E+00 0. -1.
         -2    1    6    6    0  503  0.33138435898E+03  0.26420100110E+03  0.16651226502E+03  0.45535052076E+03  0.00000000000E+00 0.  1.
<mgrwt>
<rscale>  0 0.29372992E+04</rscale>
<asrwt>0</asrwt>
<pdfrwt beam="1">  1        2 0.27934068E+00 0.29372992E+04</pdfrwt>
<pdfrwt beam="2">  1       -2 0.18275762E+00 0.29372992E+04</pdfrwt>
<totfact> 0.12631977E+00</totfact>
</mgrwt>
</event>
<event>
12    3  0.4773567E-008  0.1878531E+04  0.7818608E-02  0.8665617E-01
         -1   -1    0    0    0  501 -0.00000000000E+00  0.00000000000E+00  0.82076537535E+03  0.82076537535E+03  0.00000000000E+00 0.  1.
          1   -1    0    0  501    0  0.00000000000E+00 -0.00000000000E+00 -0.10748749314E+04  0.10748749314E+04  0.00000000000E+00 0. -1.
         23    2    1    2    0    0  0.21101287178E+03 -0.44075056807E+03 -0.63077661798E+03  0.80322094454E+03  0.92180522009E+02 0.  0.
        254    2    1    2    0    0 -0.21101287178E+03  0.44075056807E+03  0.37666706190E+03  0.10924193623E+04  0.90150678988E+03 0.  0.
         23    2    4    4    0    0 -0.17285951794E+03 -0.56825447335E+02 -0.22451474645E+03  0.30569158193E+03  0.99654038963E+02 0.  0.
         23    2    4    4    0    0 -0.38153353840E+02  0.49757601540E+03  0.60118180834E+03  0.78672778033E+03  0.92105722650E+02 0.  0.
          3    1    3    3  502    0  0.82705964809E+02 -0.27526518096E+03 -0.38181605934E+03  0.47790658045E+03  0.00000000000E+00 0. -1.
         -3    1    3    3    0  502  0.12830690697E+03 -0.16548538710E+03 -0.24896055864E+03  0.32531436409E+03  0.00000000000E+00 0.  1.
         13    1    5    5    0    0 -0.38656578558E+02 -0.12811573668E+02 -0.12878286788E+03  0.13506848095E+03  0.00000000000E+00 0. -1.
        -13    1    5    5    0    0 -0.13420293939E+03 -0.44013873668E+02 -0.95731878565E+02  0.17062310098E+03  0.00000000000E+00 0.  1.
          2    1    6    6  503    0 -0.10112133060E+02  0.27998031264E+03  0.40469829621E+03  0.49221127746E+03  0.00000000000E+00 0. -1.
         -2    1    6    6    0  503 -0.28041220780E+02  0.21759570276E+03  0.19648351213E+03  0.29451650287E+03  0.00000000000E+00 0.  1.
<mgrwt>
<rscale>  0 0.18785315E+04</rscale>
<asrwt>0</asrwt>
<pdfrwt beam="1">  1        1 0.16536537E+00 0.18785315E+04</pdfrwt>
<pdfrwt beam="2">  1       -1 0.12627160E+00 0.18785315E+04</pdfrwt>
<totfact> 0.67760585E+00</totfact>
</mgrwt>
</event>
<event>
12    3  0.4773567E-008  0.1576966E+04  0.7818608E-02  0.8834825E-01
          2   -1    0    0  501    0  0.00000000000E+00  0.00000000000E+00  0.99474037088E+03  0.99474037088E+03  0.00000000000E+00 0. -1.
         -2   -1    0    0    0  501 -0.00000000000E+00 -0.00000000000E+00 -0.62499304971E+03  0.62499304971E+03  0.00000000000E+00 0.  1.
         23    2    1    2    0    0 -0.45750775171E+03 -0.21186408875E+03 -0.15331610719E+02  0.51339702005E+03  0.95612273997E+02 0.  0.
        254    2    1    2    0    0  0.45750775171E+03  0.21186408875E+03  0.38507893189E+03  0.11063364005E+04  0.90636345492E+03 0.  0.
         23    2    4    4    0    0  0.20411842696E+03 -0.22509675965E+02  0.63344179873E+03  0.67225706046E+03  0.92249798014E+02 0.  0.
         23    2    4    4    0    0  0.25338932475E+03  0.23437376471E+03 -0.24836286683E+03  0.43407934008E+03  0.87198327853E+02 0.  0.
          3    1    3    3  502    0 -0.17971581727E+02 -0.54550918924E+01 -0.20470377600E+02  0.27780787181E+02  0.00000000000E+00 0. -1.
         -3    1    3    3    0  502 -0.43953616998E+03 -0.20640899685E+03  0.51387668813E+01  0.48561623287E+03  0.00000000000E+00 0.  1.
         13    1    5    5    0    0  0.10902938143E+03  0.34304094517E+02  0.31411935708E+03  0.33426807716E+03  0.00000000000E+00 0. -1.
        -13    1    5    5    0    0  0.95089045525E+02 -0.56813770482E+02  0.31932244164E+03  0.33798898330E+03  0.00000000000E+00 0.  1.
          2    1    6    6  503    0  0.39101742594E+02  0.14396051516E+02 -0.62500766505E+02  0.75116831582E+02  0.00000000000E+00 0. -1.
         -2    1    6    6    0  503  0.21428758216E+03  0.21997771320E+03 -0.18586210033E+03  0.35896250850E+03  0.00000000000E+00 0.  1.
<mgrwt>
<rscale>  0 0.15769665E+04</rscale>
<asrwt>0</asrwt>
<pdfrwt beam="1">  1        2 0.15303698E+00 0.15769665E+04</pdfrwt>
<pdfrwt beam="2">  1       -2 0.96152777E-01 0.15769665E+04</pdfrwt>
<totfact> 0.22099416E+01</totfact>
</mgrwt>
</event>
<event>
12    3  0.4773567E-008  0.4932898E+04  0.7818608E-02  0.7838942E-01
         -2   -1    0    0    0  501 -0.00000000000E+00  0.00000000000E+00  0.28425455669E+04  0.28425455669E+04  0.00000000000E+00 0.  1.
          2   -1    0    0  501    0  0.00000000000E+00 -0.00000000000E+00 -0.21401140464E+04  0.21401140464E+04  0.00000000000E+00 0. -1.
         23    2    1    2    0    0  0.11077525485E+04 -0.10383042292E+04 -0.15160080075E+04  0.21476287845E+04  0.94009235344E+02 0.  0.
        254    2    1    2    0    0 -0.11077525485E+04  0.10383042292E+04  0.22184395280E+04  0.28350308288E+04  0.90040795199E+03 0.  0.
         23    2    4    4    0    0 -0.11749364214E+04  0.11193288843E+04  0.20424859984E+04  0.26106033076E+04  0.10063712393E+03 0.  0.
         23    2    4    4    0    0  0.67183872953E+02 -0.81024655084E+02  0.17595352963E+03  0.22442752120E+03  0.91265547526E+02 0.  0.
          2    1    3    3  502    0  0.93514959105E+03 -0.91987708357E+03 -0.12979068546E+04  0.18453294583E+04  0.00000000000E+00 0. -1.
         -2    1    3    3    0  502  0.17260295741E+03 -0.11842714560E+03 -0.21810115288E+03  0.30229932618E+03  0.00000000000E+00 0.  1.
         13    1    5    5    0    0 -0.10418422164E+04  0.96474067432E+03  0.18268067700E+04  0.23137378303E+04  0.00000000000E+00 0. -1.
        -13    1    5    5    0    0 -0.13309420500E+03  0.15458820993E+03  0.21567922842E+03  0.29686547732E+03  0.00000000000E+00 0.  1.
          4    1    6    6  503    0  0.48342508767E+02 -0.99913707964E+02  0.12693335251E+03  0.16861738692E+03  0.00000000000E+00 0. -1.
         -4    1    6    6    0  503  0.18841364186E+02  0.18889052879E+02  0.49020177116E+02  0.55810134273E+02  0.00000000000E+00 0.  1.
<mgrwt>
<rscale>  0 0.49328984E+04</rscale>
<asrwt>0</asrwt>
<pdfrwt beam="1">  1        2 0.32924831E+00 0.49328984E+04</pdfrwt>
<pdfrwt beam="2">  1       -2 0.43731470E+00 0.49328984E+04</pdfrwt>
<totfact> 0.17230919E-02</totfact>
</mgrwt>
</event>
<event>
12    3  0.4773567E-008  0.2061329E+04  0.7818608E-02  0.8578472E-01
         -2   -1    0    0    0  501 -0.00000000000E+00  0.00000000000E+00  0.94920138185E+03  0.94920138185E+03  0.00000000000E+00 0.  1.
          2   -1    0    0  501    0  0.00000000000E+00 -0.00000000000E+00 -0.11191185398E+04  0.11191185398E+04  0.00000000000E+00 0. -1.
         23    2    1    2    0    0  0.89749991515E+02 -0.79521864262E+03 -0.27237881033E+03  0.85023234298E+03  0.90978405045E+02 0.  0.
        254    2    1    2    0    0 -0.89749991515E+02  0.79521864262E+03  0.10246165234E+03  0.12180875787E+04  0.91258490490E+03 0.  0.
         23    2    4    4    0    0 -0.37619260989E+03  0.19237283457E+03  0.28848960012E+03  0.51935035404E+03  0.89276837105E+02 0.  0.
         23    2    4    4    0    0  0.28644261838E+03  0.60284580805E+03 -0.18602794778E+03  0.69873722467E+03  0.90304318167E+02 0.  0.
          1    1    3    3  502    0  0.78517128252E+02 -0.72879877928E+03 -0.27478124886E+03  0.78282650366E+03  0.00000000000E+00 0. -1.
         -1    1    3    3    0  502  0.11232863263E+02 -0.66419863344E+02  0.24024385333E+01  0.67405839321E+02  0.00000000000E+00 0.  1.
         13    1    5    5    0    0 -0.30711685828E+03  0.16770138031E+03  0.19521907783E+03  0.40069315685E+03  0.00000000000E+00 0. -1.
        -13    1    5    5    0    0 -0.69075751612E+02  0.24671454261E+02  0.93270522290E+02  0.11865719719E+03  0.00000000000E+00 0.  1.
          4    1    6    6  503    0  0.14656576105E+03  0.40834760202E+03 -0.11431511653E+03  0.44866160104E+03  0.00000000000E+00 0.  1.
         -4    1    6    6    0  503  0.13987685733E+03  0.19449820604E+03 -0.71712831249E+02  0.25007562363E+03  0.00000000000E+00 0. -1.
<mgrwt>
<rscale>  0 0.20613286E+04</rscale>
<asrwt>0</asrwt>
<pdfrwt beam="1">  1        2 0.17217208E+00 0.20613286E+04</pdfrwt>
<pdfrwt beam="2">  1       -2 0.14603098E+00 0.20613286E+04</pdfrwt>
<totfact> 0.63046075E+00</totfact>
</mgrwt>
</event>
<event>
12    3  0.4773567E-008  0.2238528E+04  0.7818608E-02  0.8502561E-01
          2   -1    0    0  501    0  0.00000000000E+00  0.00000000000E+00  0.96386755279E+03  0.96386755279E+03  0.00000000000E+00 0. -1.
         -2   -1    0    0    0  501 -0.00000000000E+00 -0.00000000000E+00 -0.12997139506E+04  0.12997139506E+04  0.00000000000E+00 0.  1.
         23    2    1    2    0    0  0.15506943659E+03 -0.71481322600E+03 -0.73270418267E+03  0.10394635912E+04  0.92869047140E+02 0.  0.
        254    2    1    2    0    0 -0.15506943659E+03  0.71481322600E+03  0.39685778488E+03  0.12241179122E+04  0.89775502405E+03 0.  0.
         23    2    4    4    0    0 -0.63598548123E+02  0.18386664273E+03  0.60302761424E+03  0.64020144587E+03  0.91454196849E+02 0.  0.
         23    2    4    4    0    0 -0.91470888470E+02  0.53094658327E+03 -0.20616982936E+03  0.58391646628E+03  0.90450225749E+02 0.  0.
          3    1    3    3  502    0  0.85314106808E+02 -0.30467587715E+03 -0.37638636503E+03  0.49170375504E+03  0.00000000000E+00 0. -1.
         -3    1    3    3    0  502  0.69755329786E+02 -0.41013734884E+03 -0.35631781764E+03  0.54775983616E+03  0.00000000000E+00 0.  1.
         13    1    5    5    0    0 -0.81919152368E+02  0.10076303269E+03  0.36025965351E+03  0.38295032867E+03  0.00000000000E+00 0. -1.
        -13    1    5    5    0    0  0.18320604244E+02  0.83103610044E+02  0.24276796074E+03  0.25725111720E+03  0.00000000000E+00 0.  1.
          3    1    6    6  503    0  0.89868369589E+01  0.17318245606E+03 -0.84477781832E+02  0.19289743894E+03  0.00000000000E+00 0. -1.
         -3    1    6    6    0  503 -0.10045772543E+03  0.35776412721E+03 -0.12169204753E+03  0.39101902735E+03  0.00000000000E+00 0.  1.
<mgrwt>
<rscale>  0 0.22385282E+04</rscale>
<asrwt>0</asrwt>
<pdfrwt beam="1">  1        2 0.14828732E+00 0.22385282E+04</pdfrwt>
<pdfrwt beam="2">  1       -2 0.19995599E+00 0.22385282E+04</pdfrwt>
<totfact> 0.32231168E+00</totfact>
</mgrwt>
</event>
<event>
12    3  0.4773567E-008  0.2816038E+04  0.7818608E-02  0.8298306E-01
         -2   -1    0    0    0  501 -0.00000000000E+00  0.00000000000E+00  0.10933618819E+04  0.10933618819E+04  0.00000000000E+00 0.  1.
          2   -1    0    0  501    0  0.00000000000E+00 -0.00000000000E+00 -0.18132312111E+04  0.18132312111E+04  0.00000000000E+00 0. -1.
         23    2    1    2    0    0  0.79761318829E+03  0.47592100097E+03  0.56029091288E+03  0.10890216130E+04  0.96719022626E+02 0.  0.
        254    2    1    2    0    0 -0.79761318829E+03 -0.47592100097E+03 -0.12801602421E+04  0.18175714800E+04  0.89558262718E+03 0.  0.
         23    2    4    4    0    0 -0.10023925366E+03 -0.47298840959E+03 -0.20674797139E+03  0.53409963474E+03  0.93550802118E+02 0.  0.
         23    2    4    4    0    0 -0.69737393462E+03 -0.29325913889E+01 -0.10734122707E+04  0.12834718453E+04  0.93525771039E+02 0.  0.
          2    1    3    3  502    0  0.21969832353E+03  0.83465259771E+02  0.15179182043E+03  0.27977590979E+03  0.00000000000E+00 0. -1.
         -2    1    3    3    0  502  0.57791486476E+03  0.39245574120E+03  0.40849909245E+03  0.80924570326E+03  0.00000000000E+00 0.  1.
         13    1    5    5    0    0 -0.13334195629E+02 -0.39437825500E+02 -0.49771807307E+02  0.64887407529E+02  0.00000000000E+00 0. -1.
        -13    1    5    5    0    0 -0.86905058034E+02 -0.43355058409E+03 -0.15697616409E+03  0.46921222721E+03  0.00000000000E+00 0.  1.
          1    1    6    6  503    0 -0.25402755762E+03 -0.38158929255E+02 -0.44043700709E+03  0.50987337755E+03  0.00000000000E+00 0. -1.
         -1    1    6    6    0  503 -0.44334637700E+03  0.35226337867E+02 -0.63297526363E+03  0.77359846771E+03  0.00000000000E+00 0.  1.
<mgrwt>
<rscale>  0 0.28160383E+04</rscale>
<asrwt>0</asrwt>
<pdfrwt beam="1">  1        2 0.27895864E+00 0.28160383E+04</pdfrwt>
<pdfrwt beam="2">  1       -2 0.16820952E+00 0.28160383E+04</pdfrwt>
<totfact> 0.16185828E+00</totfact>
</mgrwt>
</event>
<event>
12    3  0.4773567E-008  0.3164626E+04  0.7818608E-02  0.8198222E-01
          2   -1    0    0  501    0  0.00000000000E+00  0.00000000000E+00  0.21205504104E+04  0.21205504104E+04  0.00000000000E+00 0. -1.
         -2   -1    0    0    0  501 -0.00000000000E+00 -0.00000000000E+00 -0.11806911157E+04  0.11806911157E+04  0.00000000000E+00 0.  1.
         23    2    1    2    0    0  0.45594177673E+03 -0.11848516677E+04  0.11816374986E+04  0.17367509191E+04  0.90995597421E+02 0.  0.
        254    2    1    2    0    0 -0.45594177673E+03  0.11848516677E+04 -0.24177820381E+03  0.15644906070E+04  0.88171298118E+03 0.  0.
         23    2    4    4    0    0 -0.46925341477E+03  0.14453110330E+03 -0.40392060952E+02  0.50089232426E+03  0.90407935607E+02 0.  0.
         23    2    4    4    0    0  0.13311638040E+02  0.10403205644E+04 -0.20138614285E+03  0.10635982827E+04  0.90779138428E+02 0.  0.
          2    1    3    3  502    0  0.31447260144E+03 -0.70915326717E+03  0.74984566656E+03  0.10789160751E+04  0.00000000000E+00 0. -1.
         -2    1    3    3    0  502  0.14146917529E+03 -0.47569840055E+03  0.43179183202E+03  0.65783484405E+03  0.00000000000E+00 0.  1.
         13    1    5    5    0    0 -0.45395471074E+03  0.13087876180E+03 -0.55115939852E+02  0.47564892149E+03  0.00000000000E+00 0. -1.
        -13    1    5    5    0    0 -0.15298704034E+02  0.13652341500E+02  0.14723878899E+02  0.25243402770E+02  0.00000000000E+00 0.  1.
          3    1    6    6  503    0  0.19586817208E+02  0.93216058031E+03 -0.15257153517E+03  0.94476720108E+03  0.00000000000E+00 0. -1.
         -3    1    6    6    0  503 -0.62751791683E+01  0.10815998411E+03 -0.48814607688E+02  0.11883108163E+03  0.00000000000E+00 0.  1.
<mgrwt>
<rscale>  0 0.31646264E+04</rscale>
<asrwt>0</asrwt>
<pdfrwt beam="1">  1        2 0.32623852E+00 0.31646264E+04</pdfrwt>
<pdfrwt beam="2">  1       -2 0.18164479E+00 0.31646264E+04</pdfrwt>
<totfact> 0.85372058E-01</totfact>
</mgrwt>
</event>
<event>
12    3  0.4773567E-008  0.1703336E+04  0.7818608E-02  0.8759464E-01
          1   -1    0    0  501    0  0.00000000000E+00  0.00000000000E+00  0.19066681506E+04  0.19066681506E+04  0.00000000000E+00 0. -1.
         -1   -1    0    0    0  501 -0.00000000000E+00 -0.00000000000E+00 -0.38042189977E+03  0.38042189977E+03  0.00000000000E+00 0.  1.
         23    2    1    2    0    0  0.55946789415E+03 -0.19194251101E+03  0.85073840778E+03  0.10389077212E+04  0.75678018617E+02 0.  0.
        254    2    1    2    0    0 -0.55946789415E+03  0.19194251101E+03  0.67550784306E+03  0.12481823292E+04  0.86706518142E+03 0.  0.
         23    2    4    4    0    0 -0.63765174233E+03 -0.81792253487E+02  0.69276452976E+03  0.94936928624E+03  0.89942374495E+02 0.  0.
         23    2    4    4    0    0  0.78183848181E+02  0.27373476450E+03 -0.17256686697E+02  0.29881304298E+03  0.89151590051E+02 0.  0.
          3    1    3    3  502    0  0.41035864445E+03 -0.11814382996E+03  0.56438063763E+03  0.70772712663E+03  0.00000000000E+00 0. -1.
         -3    1    3    3    0  502  0.14910924970E+03 -0.73798681058E+02  0.28635777015E+03  0.33118059454E+03  0.00000000000E+00 0.  1.
         13    1    5    5    0    0 -0.48026443111E+03 -0.69975743525E+02  0.46406904874E+03  0.67149877920E+03  0.00000000000E+00 0. -1.
        -13    1    5    5    0    0 -0.15738731122E+03 -0.11816509962E+02  0.22869548102E+03  0.27787050703E+03  0.00000000000E+00 0.  1.
          2    1    6    6  503    0  0.14802487858E+02  0.17091423978E+03 -0.39384589625E+02  0.17601686541E+03  0.00000000000E+00 0. -1.
         -2    1    6    6    0  503  0.63381360323E+02  0.10282052472E+03  0.22127902928E+02  0.12279617758E+03  0.00000000000E+00 0.  1.
<mgrwt>
<rscale>  0 0.17033359E+04</rscale>
<asrwt>0</asrwt>
<pdfrwt beam="1">  1        1 0.29333356E+00 0.17033359E+04</pdfrwt>
<pdfrwt beam="2">  1       -1 0.58526447E-01 0.17033359E+04</pdfrwt>
<totfact> 0.97057091E+00</totfact>
</mgrwt>
</event>
<event>
12    3  0.4773567E-008  0.1298244E+04  0.7818608E-02  0.9030959E-01
         -2   -1    0    0    0  501 -0.00000000000E+00  0.00000000000E+00  0.48005409566E+03  0.48005409566E+03  0.00000000000E+00 0. -1.
          2   -1    0    0  501    0  0.00000000000E+00 -0.00000000000E+00 -0.87773359755E+03  0.87773359755E+03  0.00000000000E+00 0.  1.
         23    2    1    2    0    0 -0.21267218649E+03 -0.20288270512E+03  0.48243702792E+02  0.30962862929E+03  0.84567028280E+02 0.  0.
        254    2    1    2    0    0  0.21267218649E+03  0.20288270512E+03 -0.44592320469E+03  0.10481590639E+04  0.90188639410E+03 0.  0.
         23    2    4    4    0    0 -0.82696670256E+02  0.27529847278E+03  0.17688587083E+03  0.34846331607E+03  0.86660734847E+02 0.  0.
         23    2    4    4    0    0  0.29536885674E+03 -0.72415767656E+02 -0.62280907552E+03  0.69969574785E+03  0.95896767769E+02 0.  0.
          4    1    3    3  502    0 -0.13510084847E+03 -0.15480706214E+03  0.67665111676E+02  0.21632390779E+03  0.00000000000E+00 0. -1.
         -4    1    3    3    0  502 -0.77571338012E+02 -0.48075642986E+02 -0.19421408884E+02  0.93304721491E+02  0.00000000000E+00 0.  1.
         13    1    5    5    0    0 -0.76720302156E+02  0.27948482148E+03  0.16234717856E+03  0.33219629225E+03  0.00000000000E+00 0. -1.
        -13    1    5    5    0    0 -0.59763680995E+01 -0.41863486984E+01  0.14538692274E+02  0.16267023825E+02  0.00000000000E+00 0.  1.
          1    1    6    6  503    0  0.30288934543E+03 -0.70038963105E+02 -0.60434760841E+03  0.67962007307E+03  0.00000000000E+00 0. -1.
         -1    1    6    6    0  503 -0.75204886880E+01 -0.23768045508E+01 -0.18461467109E+02  0.20075674778E+02  0.00000000000E+00 0.  1.
<mgrwt>
<rscale>  0 0.12982444E+04</rscale>
<asrwt>0</asrwt>
<pdfrwt beam="1">  1        2 0.13503594E+00 0.12982444E+04</pdfrwt>
<pdfrwt beam="2">  1       -2 0.73854476E-01 0.12982444E+04</pdfrwt>
<totfact> 0.49198940E+01</totfact>
</mgrwt>
</event>
<event>
12    3  0.4773567E-008  0.1642922E+04  0.7818608E-02  0.8794605E-01
         -2   -1    0    0    0  501 -0.00000000000E+00  0.00000000000E+00  0.35502517305E+03  0.35502517305E+03  0.00000000000E+00 0. -1.
          2   -1    0    0  501    0  0.00000000000E+00 -0.00000000000E+00 -0.19007056355E+04  0.19007056355E+04  0.00000000000E+00 0.  1.
         23    2    1    2    0    0  0.55140484786E+03  0.13708045084E+02 -0.67954664581E+03  0.87938259817E+03  0.85410148045E+02 0.  0.
        254    2    1    2    0    0 -0.55140484786E+03 -0.13708045084E+02 -0.86613381661E+03  0.13763482103E+04  0.91646679760E+03 0.  0.
         23    2    4    4    0    0 -0.35190101990E+02 -0.40011439423E+03 -0.40903946267E+03  0.58065635109E+03  0.92296502072E+02 0.  0.
         23    2    4    4    0    0 -0.51621474586E+03  0.38640634914E+03 -0.45709435394E+03  0.79569185926E+03  0.91666547746E+02 0.  0.
          3    1    3    3  502    0  0.26886940143E+02  0.19376794510E+02 -0.32424277912E+02  0.46364873707E+02  0.00000000000E+00 0. -1.
         -3    1    3    3    0  502  0.52451790771E+03 -0.56687494262E+01 -0.64712236790E+03  0.83301772446E+03  0.00000000000E+00 0.  1.
         13    1    5    5    0    0  0.19146739816E+02 -0.24759964509E+03 -0.22011234594E+03  0.33184578757E+03  0.00000000000E+00 0. -1.
        -13    1    5    5    0    0 -0.54336841807E+02 -0.15251474913E+03 -0.18892711674E+03  0.24881056352E+03  0.00000000000E+00 0.  1.
          2    1    6    6  503    0 -0.44142485086E+03  0.28887016790E+03 -0.38623543884E+03  0.65381930766E+03  0.00000000000E+00 0. -1.
         -2    1    6    6    0  503 -0.74789895006E+02  0.97536181238E+02 -0.70858915105E+02  0.14187255159E+03  0.00000000000E+00 0.  1.
<mgrwt>
<rscale>  0 0.16429222E+04</rscale>
<asrwt>0</asrwt>
<pdfrwt beam="1">  1        2 0.29241624E+00 0.16429222E+04</pdfrwt>
<pdfrwt beam="2">  1       -2 0.54619259E-01 0.16429222E+04</pdfrwt>
<totfact> 0.22872191E+01</totfact>
</mgrwt>
</event>
<event>
12    3  0.4773567E-008  0.1443036E+04  0.7818608E-02  0.8923243E-01
         -2   -1    0    0    0  501 -0.00000000000E+00  0.00000000000E+00  0.37767654000E+03  0.37767654000E+03  0.00000000000E+00 0. -1.
          2   -1    0    0  501    0  0.00000000000E+00 -0.00000000000E+00 -0.13783961473E+04  0.13783961473E+04  0.00000000000E+00 0.  1.
         23    2    1    2    0    0 -0.47600021125E+01  0.36248086821E+03 -0.16991729616E+02  0.37411751243E+03  0.90885404730E+02 0.  0.
        254    2    1    2    0    0  0.47600021125E+01 -0.36248086821E+03 -0.98372787767E+03  0.13819551749E+04  0.90036910797E+03 0.  0.
         23    2    4    4    0    0 -0.15455900724E+03  0.15426695870E+03  0.22831899260E+02  0.23563299432E+03  0.85526785995E+02 0.  0.
         23    2    4    4    0    0  0.15931900935E+03 -0.51674782691E+03 -0.10065597769E+04  0.11463221805E+04  0.92092853820E+02 0.  0.
          1    1    3    3  502    0  0.15458238573E+02  0.18130779974E+03 -0.50327111897E+02  0.18879696390E+03  0.00000000000E+00 0. -1.
         -1    1    3    3    0  502 -0.20218240685E+02  0.18117306847E+03  0.33335382281E+02  0.18532054853E+03  0.00000000000E+00 0.  1.
         13    1    5    5    0    0 -0.84878393801E+02  0.13334486054E+03 -0.39226484297E+01  0.15811571945E+03  0.00000000000E+00 0.  1.
        -13    1    5    5    0    0 -0.69680613437E+02  0.20922098154E+02  0.26754547689E+02  0.77517274863E+02  0.00000000000E+00 0. -1.
          1    1    6    6  503    0  0.39541679784E+00 -0.36531239646E+01 -0.43013745908E+02  0.43170406602E+02  0.00000000000E+00 0. -1.
         -1    1    6    6    0  503  0.15892359255E+03 -0.51309470294E+03 -0.96354603102E+03  0.11031517739E+04  0.00000000000E+00 0.  1.
<mgrwt>
<rscale>  0 0.14430355E+04</rscale>
<asrwt>0</asrwt>
<pdfrwt beam="1">  1        2 0.21206094E+00 0.14430355E+04</pdfrwt>
<pdfrwt beam="2">  1       -2 0.58104084E-01 0.14430355E+04</pdfrwt>
<totfact> 0.40035884E+01</totfact>
</mgrwt>
</event>
<event>
12    3  0.4773567E-008  0.1411465E+04  0.7818608E-02  0.8945561E-01
          2   -1    0    0  501    0  0.00000000000E+00  0.00000000000E+00  0.10499252336E+04  0.10499252336E+04  0.00000000000E+00 0. -1.
         -2   -1    0    0    0  501 -0.00000000000E+00 -0.00000000000E+00 -0.47437513849E+03  0.47437513849E+03  0.00000000000E+00 0.  1.
         23    2    1    2    0    0  0.25603816267E+03 -0.18898949936E+03 -0.11227327937E+03  0.35000686193E+03  0.92881335737E+02 0.  0.
        254    2    1    2    0    0 -0.25603816267E+03  0.18898949936E+03  0.68782337449E+03  0.11742935102E+04  0.89699034662E+03 0.  0.
         23    2    4    4    0    0 -0.34796852522E+02  0.49981618778E+03  0.19602476846E+03  0.54520304123E+03  0.88281389921E+02 0.  0.
         23    2    4    4    0    0 -0.22124131015E+03 -0.31082668842E+03  0.49179860602E+03  0.62909046894E+03  0.91257885517E+02 0.  0.
          3    1    3    3  502    0  0.17522151633E+03 -0.12011816631E+03 -0.11920378659E+03  0.24359904844E+03  0.00000000000E+00 0. -1.
         -3    1    3    3    0  502  0.80816646334E+02 -0.68871333051E+02  0.69305072278E+01  0.10640781349E+03  0.00000000000E+00 0.  1.
         13    1    5    5    0    0 -0.26582746644E+02  0.15586184163E+03  0.21977290670E+02  0.15963256999E+03  0.00000000000E+00 0.  1.
        -13    1    5    5    0    0 -0.82141058779E+01  0.34395434615E+03  0.17404747779E+03  0.38557047124E+03  0.00000000000E+00 0. -1.
          3    1    6    6  503    0 -0.83593425535E+01 -0.24649339779E+02  0.65152496435E+01  0.26831269769E+02  0.00000000000E+00 0. -1.
         -3    1    6    6    0  503 -0.21288196759E+03 -0.28617734864E+03  0.48528335638E+03  0.60225919917E+03  0.00000000000E+00 0.  1.
<mgrwt>
<rscale>  0 0.14114651E+04</rscale>
<asrwt>0</asrwt>
<pdfrwt beam="1">  1        2 0.16152696E+00 0.14114651E+04</pdfrwt>
<pdfrwt beam="2">  1       -2 0.72980791E-01 0.14114651E+04</pdfrwt>
<totfact> 0.38626222E+01</totfact>
</mgrwt>
</event>
<event>
12    3  0.4773567E-008  0.1827707E+04  0.7818608E-02  0.8691702E-01
          1   -1    0    0  501    0  0.00000000000E+00  0.00000000000E+00  0.17018503214E+04  0.17018503214E+04  0.00000000000E+00 0. -1.
         -1   -1    0    0    0  501 -0.00000000000E+00 -0.00000000000E+00 -0.49071771744E+03  0.49071771744E+03  0.00000000000E+00 0.  1.
         23    2    1    2    0    0  0.23010609404E+02 -0.57094039498E+03  0.91962808832E+03  0.10864773271E+04  0.90635196261E+02 0.  0.
        254    2    1    2    0    0 -0.23010609404E+02  0.57094039498E+03  0.29150451565E+03  0.11060907117E+04  0.90108787426E+03 0.  0.
         23    2    4    4    0    0  0.42503940562E+03  0.24874588125E+03  0.18709888665E+03  0.53507217738E+03  0.93612135203E+02 0.  0.
         23    2    4    4    0    0 -0.44805001502E+03  0.32219451373E+03  0.10440562901E+03  0.57101853433E+03  0.10297334870E+03 0.  0.
          1    1    3    3  502    0  0.54218617896E+02 -0.42943560551E+03  0.66361563349E+03  0.79230064169E+03  0.00000000000E+00 0. -1.
         -1    1    3    3    0  502 -0.31208008492E+02 -0.14150478948E+03  0.25601245483E+03  0.29417668546E+03  0.00000000000E+00 0.  1.
         13    1    5    5    0    0  0.28725860047E+03  0.14526112112E+03  0.16383680111E+03  0.36119356895E+03  0.00000000000E+00 0. -1.
        -13    1    5    5    0    0  0.13778080515E+03  0.10348476013E+03  0.23262085535E+02  0.17387860844E+03  0.00000000000E+00 0.  1.
          1    1    6    6  503    0 -0.39717053525E+03  0.23939688808E+03  0.95115301802E+02  0.47339436491E+03  0.00000000000E+00 0. -1.
         -1    1    6    6    0  503 -0.50879479776E+02  0.82797625655E+02  0.92903272052E+01  0.97624169425E+02  0.00000000000E+00 0.  1.
<mgrwt>
<rscale>  0 0.18277069E+04</rscale>
<asrwt>0</asrwt>
<pdfrwt beam="1">  1        1 0.26182312E+00 0.18277069E+04</pdfrwt>
<pdfrwt beam="2">  1       -1 0.75495035E-01 0.18277069E+04</pdfrwt>
<totfact> 0.78881316E+00</totfact>
</mgrwt>
</event>
<event>
12    3  0.4773567E-008  0.1302659E+04  0.7818608E-02  0.9027460E-01
         -1   -1    0    0    0  501 -0.00000000000E+00  0.00000000000E+00  0.18661771158E+03  0.18661771158E+03  0.00000000000E+00 0.  1.
          1   -1    0    0  501    0  0.00000000000E+00 -0.00000000000E+00 -0.22732559672E+04  0.22732559672E+04  0.00000000000E+00 0. -1.
         23    2    1    2    0    0  0.74768686033E+02  0.17788156615E+03 -0.10365603574E+04  0.10583065736E+04  0.91231689828E+02 0.  0.
        254    2    1    2    0    0 -0.74768686033E+02 -0.17788156615E+03 -0.10500778983E+04  0.14015671052E+04  0.90801682253E+03 0.  0.
         23    2    4    4    0    0  0.11809072118E+03  0.11147180273E+03  0.89626054552E+02  0.20646260134E+03  0.90678524824E+02 0.  0.
         23    2    4    4    0    0 -0.19285940721E+03 -0.28935336888E+03 -0.11397039528E+04  0.11951045039E+04  0.91812592146E+02 0.  0.
          2    1    3    3  502    0  0.88594174365E+02  0.17695339660E+03 -0.99527277363E+03  0.10147557964E+04  0.00000000000E+00 0. -1.
         -2    1    3    3    0  502 -0.13825488332E+02  0.92816954812E+00 -0.41287583758E+02  0.43550777248E+02  0.00000000000E+00 0.  1.
         13    1    5    5    0    0  0.97933394043E+02  0.48017787180E+02  0.21432956148E+02  0.11115767703E+03  0.00000000000E+00 0. -1.
        -13    1    5    5    0    0  0.20157327138E+02  0.63454015549E+02  0.68193098405E+02  0.95304924304E+02  0.00000000000E+00 0.  1.
          1    1    6    6  503    0 -0.14922566118E+03 -0.15874965043E+03 -0.60798707951E+03  0.64584676071E+03  0.00000000000E+00 0. -1.
         -1    1    6    6    0  503 -0.43633746031E+02 -0.13060371845E+03 -0.53171687332E+03  0.54925774318E+03  0.00000000000E+00 0.  1.
<mgrwt>
<rscale>  0 0.13026586E+04</rscale>
<asrwt>0</asrwt>
<pdfrwt beam="1">  1        1 0.34973169E+00 0.13026586E+04</pdfrwt>
<pdfrwt beam="2">  1       -1 0.28710417E-01 0.13026586E+04</pdfrwt>
<totfact> 0.21077454E+01</totfact>
</mgrwt>
</event>
<event>
12    3  0.4773567E-008  0.1430063E+04  0.7818608E-02  0.8932340E-01
         -3   -1    0    0    0  501 -0.00000000000E+00  0.00000000000E+00  0.12682286325E+04  0.12682286325E+04  0.00000000000E+00 0. -1.
          3   -1    0    0  501    0  0.00000000000E+00 -0.00000000000E+00 -0.40313702883E+03  0.40313702883E+03  0.00000000000E+00 0.  1.
         23    2    1    2    0    0 -0.11827437202E+03  0.57951359588E+01  0.62643035527E+03  0.64402120696E+03  0.91246448362E+02 0.  0.
        254    2    1    2    0    0  0.11827437202E+03 -0.57951359588E+01  0.23866124843E+03  0.10273444544E+04  0.99219707004E+03 0.  0.
         23    2    4    4    0    0  0.31694585369E+03  0.48277552894E+02  0.54953195316E+03  0.64290774243E+03  0.92518114140E+02 0.  0.
         23    2    4    4    0    0 -0.19867148167E+03 -0.54072688853E+02 -0.31087070474E+03  0.38443671196E+03  0.93577652928E+02 0.  0.
          4    1    3    3  502    0 -0.10590104634E+03  0.34986855564E+02  0.39551871516E+03  0.41094302004E+03  0.00000000000E+00 0. -1.
         -4    1    3    3    0  502 -0.12373325684E+02 -0.29191719605E+02  0.23091164010E+03  0.23307818692E+03  0.00000000000E+00 0.  1.
         13    1    5    5    0    0  0.12097509179E+03  0.31599908519E+02  0.13454874685E+03  0.18367605269E+03  0.00000000000E+00 0.  1.
        -13    1    5    5    0    0  0.19597076190E+03  0.16677644375E+02  0.41498320631E+03  0.45923168974E+03  0.00000000000E+00 0. -1.
          2    1    6    6  503    0 -0.10243307503E+03  0.18865348750E+02 -0.16425720172E+03  0.19449643843E+03  0.00000000000E+00 0. -1.
         -2    1    6    6    0  503 -0.96238406638E+02 -0.72938037602E+02 -0.14661350302E+03  0.18994027353E+03  0.00000000000E+00 0.  1.
<mgrwt>
<rscale>  0 0.14300628E+04</rscale>
<asrwt>0</asrwt>
<pdfrwt beam="1">  1        3 0.62021082E-01 0.14300628E+04</pdfrwt>
<pdfrwt beam="2">  1       -3 0.19511210E+00 0.14300628E+04</pdfrwt>
<totfact> 0.10136561E+00</totfact>
</mgrwt>
</event>
<event>
12    3  0.4773567E-008  0.1984036E+04  0.7818608E-02  0.8614121E-01
          2   -1    0    0  501    0  0.00000000000E+00  0.00000000000E+00  0.82480305570E+03  0.82480305570E+03  0.00000000000E+00 0.  1.
         -2   -1    0    0    0  501 -0.00000000000E+00 -0.00000000000E+00 -0.11931325634E+04  0.11931325634E+04  0.00000000000E+00 0. -1.
         23    2    1    2    0    0  0.17889449272E+03  0.76842077059E+03 -0.16956968208E+03  0.81211180745E+03  0.91093306637E+02 0.  0.
        254    2    1    2    0    0 -0.17889449272E+03 -0.76842077059E+03 -0.19875982559E+03  0.12058238116E+04  0.88996172740E+03 0.  0.
         23    2    4    4    0    0  0.13320440480E+03 -0.15403326051E+03  0.28232964161E+03  0.36004170584E+03  0.91925755992E+02 0.  0.
         23    2    4    4    0    0 -0.31209889753E+03 -0.61438751008E+03 -0.48108946720E+03  0.84578210579E+03  0.94987160459E+02 0.  0.
          1    1    3    3  502    0  0.71169661531E+02  0.14522625055E+03 -0.30969426793E+02  0.16466599518E+03  0.00000000000E+00 0. -1.
         -1    1    3    3    0  502  0.10772483119E+03  0.62319452004E+03 -0.13860025529E+03  0.64744581227E+03  0.00000000000E+00 0.  1.
         13    1    5    5    0    0  0.23756265817E+02 -0.35125152990E+02  0.10316479652E+02  0.43641336947E+02  0.00000000000E+00 0. -1.
        -13    1    5    5    0    0  0.10944813899E+03 -0.11890810752E+03  0.27201316195E+03  0.31640036890E+03  0.00000000000E+00 0.  1.
          1    1    6    6  503    0 -0.13739958807E+03 -0.36940117460E+03 -0.29026027341E+03  0.48947614949E+03  0.00000000000E+00 0. -1.
         -1    1    6    6    0  503 -0.17469930946E+03 -0.24498633548E+03 -0.19082919379E+03  0.35630595630E+03  0.00000000000E+00 0.  1.
<mgrwt>
<rscale>  0 0.19840357E+04</rscale>
<asrwt>0</asrwt>
<pdfrwt beam="1">  1        2 0.12689278E+00 0.19840357E+04</pdfrwt>
<pdfrwt beam="2">  1       -2 0.18355886E+00 0.19840357E+04</pdfrwt>
<totfact> 0.52690493E+00</totfact>
</mgrwt>
</event>
<event>
12    3  0.4773567E-008  0.3035490E+04  0.7818608E-02  0.8233669E-01
         -1   -1    0    0    0  501 -0.00000000000E+00  0.00000000000E+00  0.12052256248E+04  0.12052256248E+04  0.00000000000E+00 0.  1.
          1   -1    0    0  501    0  0.00000000000E+00 -0.00000000000E+00 -0.19113015195E+04  0.19113015195E+04  0.00000000000E+00 0. -1.
         23    2    1    2    0    0 -0.47501190238E+03 -0.98666528253E+02 -0.16531035257E+04  0.17251691288E+04  0.89921439015E+02 0.  0.
        254    2    1    2    0    0  0.47501190238E+03  0.98666528253E+02  0.94702763099E+03  0.13913580155E+04  0.89646215889E+03 0.  0.
         23    2    4    4    0    0  0.40384992508E+03  0.40362358863E+03  0.88721284976E+03  0.10589905082E+04  0.91145446365E+02 0.  0.
         23    2    4    4    0    0  0.71161977298E+02 -0.30495706038E+03  0.59814781226E+02  0.33236750732E+03  0.93954862488E+02 0.  0.
          4    1    3    3  502    0 -0.53111535670E+02 -0.35698614861E+02 -0.15992217475E+03  0.17225077155E+03  0.00000000000E+00 0.  1.
         -4    1    3    3    0  502 -0.42190036671E+03 -0.62967913392E+02 -0.14931813509E+04  0.15529183572E+04  0.00000000000E+00 0. -1.
         13    1    5    5    0    0  0.34885221268E+03  0.37210423780E+03  0.74046812301E+03  0.89913985079E+03  0.00000000000E+00 0. -1.
        -13    1    5    5    0    0  0.54997712398E+02  0.31519350827E+02  0.14674472675E+03  0.15985065741E+03  0.00000000000E+00 0.  1.
          2    1    6    6  503    0  0.34995086634E+02 -0.26522620139E+03  0.72476763346E+02  0.27716867647E+03  0.00000000000E+00 0. -1.
         -2    1    6    6    0  503  0.36166890663E+02 -0.39730858984E+02 -0.12661982120E+02  0.55198830849E+02  0.00000000000E+00 0.  1.
<mgrwt>
<rscale>  0 0.30354898E+04</rscale>
<asrwt>0</asrwt>
<pdfrwt beam="1">  1        1 0.29404639E+00 0.30354898E+04</pdfrwt>
<pdfrwt beam="2">  1       -1 0.18541933E+00 0.30354898E+04</pdfrwt>
<totfact> 0.55291080E-01</totfact>
</mgrwt>
</event>
<event>
12    3  0.4773567E-008  0.3270838E+04  0.7818608E-02  0.8170356E-01
         -2   -1    0    0    0  501 -0.00000000000E+00  0.00000000000E+00  0.11442933746E+04  0.11442933746E+04  0.00000000000E+00 0.  1.
          2   -1    0    0  501    0  0.00000000000E+00 -0.00000000000E+00 -0.23373333716E+04  0.23373333716E+04  0.00000000000E+00 0. -1.
         23    2    1    2    0    0  0.13764091309E+04  0.23540933737E+02 -0.12135728095E+04  0.18374584333E+04  0.91859995592E+02 0.  0.
        254    2    1    2    0    0 -0.13764091309E+04 -0.23540933737E+02  0.20532812418E+02  0.16441683129E+04  0.89878338525E+03 0.  0.
         23    2    4    4    0    0 -0.11648779477E+04  0.31442652586E+03  0.14115322522E+03  0.12182348149E+04  0.91472170825E+02 0.  0.
         23    2    4    4    0    0 -0.21153118322E+03 -0.33796745960E+03 -0.12062041280E+03  0.42593349803E+03  0.88896656490E+02 0.  0.
          1    1    3    3  502    0  0.13318932571E+04  0.30615429468E+02 -0.11912302184E+04  0.17871503535E+04  0.00000000000E+00 0. -1.
         -1    1    3    3    0  502  0.44515873778E+02 -0.70744957302E+01 -0.22342591078E+02  0.50308079710E+02  0.00000000000E+00 0.  1.
         13    1    5    5    0    0 -0.10417032319E+04  0.26898224053E+03  0.99340516649E+02  0.10804469479E+04  0.00000000000E+00 0.  1.
        -13    1    5    5    0    0 -0.12317471580E+03  0.45444285337E+02  0.41812708572E+02  0.13778786696E+03  0.00000000000E+00 0. -1.
          1    1    6    6  503    0 -0.68709886955E+02 -0.45021626922E+02 -0.32330238664E+02  0.88279328204E+02  0.00000000000E+00 0. -1.
         -1    1    6    6    0  503 -0.14282129627E+03 -0.29294583268E+03 -0.88290174139E+02  0.33765416983E+03  0.00000000000E+00 0.  1.
<mgrwt>
<rscale>  0 0.32708379E+04</rscale>
<asrwt>0</asrwt>
<pdfrwt beam="1">  1        2 0.35958975E+00 0.32708379E+04</pdfrwt>
<pdfrwt beam="2">  1       -2 0.17604514E+00 0.32708379E+04</pdfrwt>
<totfact> 0.69822203E-01</totfact>
</mgrwt>
</event>
<event>
12    3  0.4773567E-008  0.1376850E+04  0.7818608E-02  0.8970749E-01
          2   -1    0    0  501    0  0.00000000000E+00  0.00000000000E+00  0.14349436898E+04  0.14349436898E+04  0.00000000000E+00 0. -1.
         -2   -1    0    0    0  501 -0.00000000000E+00 -0.00000000000E+00 -0.33027686813E+03  0.33027686813E+03  0.00000000000E+00 0.  1.
         23    2    1    2    0    0 -0.15030125173E+03  0.37131099069E+03  0.25565230802E+03  0.48378838150E+03  0.90723631951E+02 0.  0.
        254    2    1    2    0    0  0.15030125173E+03 -0.37131099069E+03  0.84901451368E+03  0.12814321765E+04  0.87222729857E+03 0.  0.
         23    2    4    4    0    0  0.88928542873E+02 -0.47141194434E+03  0.97240076684E+03  0.10882321898E+04  0.92458318460E+02 0.  0.
         23    2    4    4    0    0  0.61372708854E+02  0.10010095364E+03 -0.12338625316E+03  0.19319998663E+03  0.91188031294E+02 0.  0.
          2    1    3    3  502    0 -0.48775552479E+02  0.75833009710E+02  0.10027752993E+03  0.13485281937E+03  0.00000000000E+00 0. -1.
         -2    1    3    3    0  502 -0.10152569925E+03  0.29547798098E+03  0.15537477809E+03  0.34893556213E+03  0.00000000000E+00 0.  1.
         13    1    5    5    0    0  0.26517131580E+02 -0.97411293269E+02  0.29681409231E+03  0.31351351441E+03  0.00000000000E+00 0. -1.
        -13    1    5    5    0    0  0.62411411293E+02 -0.37400065107E+03  0.67558667453E+03  0.77471867543E+03  0.00000000000E+00 0.  1.
          4    1    6    6  503    0  0.53008257945E+02  0.48417848298E+02 -0.12111617374E+03  0.14079520939E+03  0.00000000000E+00 0. -1.
         -4    1    6    6    0  503  0.83644509086E+01  0.51683105345E+02 -0.22700794189E+01  0.52404777241E+02  0.00000000000E+00 0.  1.
<mgrwt>
<rscale>  0 0.13768496E+04</rscale>
<asrwt>0</asrwt>
<pdfrwt beam="1">  1        2 0.22076056E+00 0.13768496E+04</pdfrwt>
<pdfrwt beam="2">  1       -2 0.50811827E-01 0.13768496E+04</pdfrwt>
<totfact> 0.49323083E+01</totfact>
</mgrwt>
</event>
<event>
12    3  0.4773567E-008  0.1130716E+04  0.7818608E-02  0.9175760E-01
          2   -1    0    0  501    0  0.00000000000E+00  0.00000000000E+00  0.88118765380E+03  0.88118765380E+03  0.00000000000E+00 0. -1.
         -2   -1    0    0    0  501 -0.00000000000E+00 -0.00000000000E+00 -0.36272614398E+03  0.36272614398E+03  0.00000000000E+00 0.  1.
         23    2    1    2    0    0  0.17044946523E+03  0.10016062693E+03  0.13332956931E+03  0.25629795265E+03  0.93950492796E+02 0.  0.
        254    2    1    2    0    0 -0.17044946523E+03 -0.10016062693E+03  0.38513194052E+03  0.98761584513E+03  0.88767858742E+03 0.  0.
         23    2    4    4    0    0  0.14742456047E+03  0.13006984541E+03  0.51957211744E+03  0.56300756081E+03  0.91488592672E+02 0.  0.
         23    2    4    4    0    0 -0.31787402570E+03 -0.23023047233E+03 -0.13444017692E+03  0.42460828432E+03  0.90377360762E+02 0.  0.
          4    1    3    3  502    0 -0.42227234678E+01  0.24599245516E+02  0.32328966008E+02  0.40842579701E+02  0.00000000000E+00 0. -1.
         -4    1    3    3    0  502  0.17467218870E+03  0.75561381410E+02  0.10100060330E+03  0.21545537295E+03  0.00000000000E+00 0.  1.
         13    1    5    5    0    0  0.16120386651E+01  0.40438505922E+01  0.11284470050E+03  0.11292864042E+03  0.00000000000E+00 0. -1.
        -13    1    5    5    0    0  0.14581252181E+03  0.12602599482E+03  0.40672741694E+03  0.45007892038E+03  0.00000000000E+00 0.  1.
          1    1    6    6  503    0 -0.45634771590E+02 -0.74989136173E+02 -0.45319495934E+02  0.98791495756E+02  0.00000000000E+00 0. -1.
         -1    1    6    6    0  503 -0.27223925411E+03 -0.15524133616E+03 -0.89120680985E+02  0.32581678857E+03  0.00000000000E+00 0.  1.
<mgrwt>
<rscale>  0 0.11307162E+04</rscale>
<asrwt>0</asrwt>
<pdfrwt beam="1">  1        2 0.13556733E+00 0.11307162E+04</pdfrwt>
<pdfrwt beam="2">  1       -2 0.55804022E-01 0.11307162E+04</pdfrwt>
<totfact> 0.90288981E+01</totfact>
</mgrwt>
</event>
<event>
12    3  0.4773567E-008  0.2838440E+04  0.7818608E-02  0.8291433E-01
          2   -1    0    0  501    0  0.00000000000E+00  0.00000000000E+00  0.17929403825E+04  0.17929403825E+04  0.00000000000E+00 0. -1.
         -2   -1    0    0    0  501 -0.00000000000E+00 -0.00000000000E+00 -0.11233979922E+04  0.11233979922E+04  0.00000000000E+00 0.  1.
         23    2    1    2    0    0  0.15231284992E+03  0.10825609948E+04  0.97693698222E+03  0.14694760002E+04  0.99077425224E+02 0.  0.
        254    2    1    2    0    0 -0.15231284992E+03 -0.10825609948E+04 -0.30739459192E+03  0.14468623745E+04  0.89653877990E+03 0.  0.
         23    2    4    4    0    0 -0.11799568022E+03 -0.79512841091E+03  0.21867534428E+03  0.83937247082E+03  0.10283515058E+03 0.  0.
         23    2    4    4    0    0 -0.34317169704E+02 -0.28743258394E+03 -0.52606993620E+03  0.60748990370E+03  0.92191360138E+02 0.  0.
          2    1    3    3  502    0  0.98565569882E+02  0.52024973379E+03  0.41565932843E+03  0.67316241308E+03  0.00000000000E+00 0. -1.
         -2    1    3    3    0  502  0.53747280039E+02  0.56231126106E+03  0.56127765379E+03  0.79631358714E+03  0.00000000000E+00 0.  1.
         13    1    5    5    0    0 -0.96091398993E+02 -0.72814928188E+03  0.22619020476E+03  0.76850305295E+03  0.00000000000E+00 0. -1.
        -13    1    5    5    0    0 -0.21904281225E+02 -0.66979129030E+02 -0.75148604841E+01  0.70869417873E+02  0.00000000000E+00 0.  1.
          1    1    6    6  503    0 -0.34814913975E+01 -0.25555291375E+03 -0.47832480292E+03  0.54232280940E+03  0.00000000000E+00 0. -1.
         -1    1    6    6    0  503 -0.30835678306E+02 -0.31879670190E+02 -0.47745133273E+02  0.65167094298E+02  0.00000000000E+00 0.  1.
<mgrwt>
<rscale>  0 0.28384402E+04</rscale>
<asrwt>0</asrwt>
<pdfrwt beam="1">  1        2 0.27583698E+00 0.28384402E+04</pdfrwt>
<pdfrwt beam="2">  1       -2 0.17283046E+00 0.28384402E+04</pdfrwt>
<totfact> 0.15373040E+00</totfact>
</mgrwt>
</event>
<event>
12    3  0.4773567E-008  0.2351274E+04  0.7818608E-02  0.8457975E-01
          1   -1    0    0  501    0  0.00000000000E+00  0.00000000000E+00  0.10657716948E+04  0.10657716948E+04  0.00000000000E+00 0. -1.
         -1   -1    0    0    0  501 -0.00000000000E+00 -0.00000000000E+00 -0.12968275812E+04  0.12968275812E+04  0.00000000000E+00 0.  1.
         23    2    1    2    0    0  0.30067368367E+03  0.80207252889E+03  0.41657231896E+03  0.95642285898E+03  0.86528507476E+02 0.  0.
        254    2    1    2    0    0 -0.30067368367E+03 -0.80207252889E+03 -0.64762820535E+03  0.14061764170E+04  0.90784625226E+03 0.  0.
         23    2    4    4    0    0 -0.35541220977E+03 -0.42032869473E+03 -0.80525376161E+03  0.97986446349E+03  0.93309676611E+02 0.  0.
         23    2    4    4    0    0  0.54738526097E+02 -0.38174383415E+03  0.15762555626E+03  0.42631195352E+03  0.90395821674E+02 0.  0.
          4    1    3    3  502    0  0.94364122956E+02  0.23542526504E+03  0.16763752327E+03  0.30402628559E+03  0.00000000000E+00 0. -1.
         -4    1    3    3    0  502  0.20630956072E+03  0.56664726384E+03  0.24893479569E+03  0.65239657339E+03  0.00000000000E+00 0.  1.
         13    1    5    5    0    0 -0.42919748826E+02 -0.10520623833E+03 -0.18710514299E+03  0.21890361339E+03  0.00000000000E+00 0.  1.
        -13    1    5    5    0    0 -0.31249246094E+03 -0.31512245640E+03 -0.61814861862E+03  0.76096085010E+03  0.00000000000E+00 0. -1.
          4    1    6    6  503    0  0.68408187011E+02 -0.33870791504E+03  0.16062999013E+03  0.38105737821E+03  0.00000000000E+00 0. -1.
         -4    1    6    6    0  503 -0.13669660914E+02 -0.43035919114E+02 -0.30044338732E+01  0.45254575309E+02  0.00000000000E+00 0.  1.
<mgrwt>
<rscale>  0 0.23512738E+04</rscale>
<asrwt>0</asrwt>
<pdfrwt beam="1">  1        1 0.16396488E+00 0.23512738E+04</pdfrwt>
<pdfrwt beam="2">  1       -1 0.19951193E+00 0.23512738E+04</pdfrwt>
<totfact> 0.18371792E+00</totfact>
</mgrwt>
</event>
<event>
12    3  0.4773567E-008  0.1270662E+04  0.7818608E-02  0.9053159E-01
          1   -1    0    0  501    0  0.00000000000E+00  0.00000000000E+00  0.41201713464E+03  0.41201713464E+03  0.00000000000E+00 0. -1.
         -1   -1    0    0    0  501 -0.00000000000E+00 -0.00000000000E+00 -0.97968156066E+03  0.97968156066E+03  0.00000000000E+00 0.  1.
         23    2    1    2    0    0 -0.63449967174E+02  0.29706595573E+03 -0.20441148045E+03  0.37547059049E+03  0.83186721241E+02 0.  0.
        254    2    1    2    0    0  0.63449967174E+02 -0.29706595573E+03 -0.36325294558E+03  0.10162281048E+04  0.89916226465E+03 0.  0.
         23    2    4    4    0    0 -0.19433126162E+03 -0.30801857679E+03 -0.56397811979E+03  0.67749134977E+03  0.91011683385E+02 0.  0.
         23    2    4    4    0    0  0.25778122879E+03  0.10952621062E+02  0.20072517422E+03  0.33873675505E+03  0.88774274600E+02 0.  0.
          3    1    3    3  502    0 -0.28988762391E+02  0.24990181764E+03 -0.19011715802E+03  0.31533442657E+03  0.00000000000E+00 0. -1.
         -3    1    3    3    0  502 -0.34461204783E+02  0.47164138091E+02 -0.14294322428E+02  0.60136163916E+02  0.00000000000E+00 0.  1.
         13    1    5    5    0    0 -0.48397466974E+02 -0.14936193742E+03 -0.19736571061E+03  0.25219937923E+03  0.00000000000E+00 0. -1.
        -13    1    5    5    0    0 -0.14593379464E+03 -0.15865663937E+03 -0.36661240918E+03  0.42529197054E+03  0.00000000000E+00 0.  1.
          2    1    6    6  503    0  0.22256155913E+03 -0.20140624569E+02  0.18182494545E+03  0.28809651707E+03  0.00000000000E+00 0.  1.
         -2    1    6    6    0  503  0.35219669662E+02  0.31093245630E+02  0.18900228765E+02  0.50640237976E+02  0.00000000000E+00 0. -1.
<mgrwt>
<rscale>  0 0.12706622E+04</rscale>
<asrwt>0</asrwt>
<pdfrwt beam="1">  1        1 0.63387252E-01 0.12706622E+04</pdfrwt>
<pdfrwt beam="2">  1       -1 0.15072024E+00 0.12706622E+04</pdfrwt>
<totfact> 0.19558120E+01</totfact>
</mgrwt>
</event>
<event>
12    3  0.4773567E-008  0.1466077E+04  0.7818608E-02  0.8907330E-01
         -1   -1    0    0    0  501 -0.00000000000E+00  0.00000000000E+00  0.15027625459E+04  0.15027625459E+04  0.00000000000E+00 0.  1.
          1   -1    0    0  501    0  0.00000000000E+00 -0.00000000000E+00 -0.35757195988E+03  0.35757195988E+03  0.00000000000E+00 0. -1.
         23    2    1    2    0    0 -0.91733132561E+02  0.30865410265E+03  0.75587902720E+03  0.82657761610E+03  0.90526951669E+02 0.  0.
        254    2    1    2    0    0  0.91733132561E+02 -0.30865410265E+03  0.38931155885E+03  0.10337568897E+04  0.90189106576E+03 0.  0.
         23    2    4    4    0    0  0.15090318234E+03 -0.36028701632E+03 -0.18890384725E+03  0.44337807720E+03  0.91219248341E+02 0.  0.
         23    2    4    4    0    0 -0.59170049776E+02  0.51632913673E+02  0.57821540610E+03  0.59037881252E+03  0.89705261062E+02 0.  0.
          2    1    3    3  502    0 -0.23305519649E+02  0.10205718230E+03  0.15100693255E+03  0.18374414108E+03  0.00000000000E+00 0. -1.
         -2    1    3    3    0  502 -0.68427612912E+02  0.20659692035E+03  0.60487209465E+03  0.64283347501E+03  0.00000000000E+00 0.  1.
         13    1    5    5    0    0  0.14628868192E+03 -0.33187795719E+03 -0.14439832094E+03  0.39037703828E+03  0.00000000000E+00 0.  1.
        -13    1    5    5    0    0  0.46145004211E+01 -0.28409059130E+02 -0.44505526306E+02  0.53001038920E+02  0.00000000000E+00 0. -1.
          2    1    6    6  503    0 -0.12566001098E+01 -0.22465915867E+02  0.16925961652E+03  0.17074868727E+03  0.00000000000E+00 0. -1.
         -2    1    6    6    0  503 -0.57913449666E+02  0.74098829540E+02  0.40895578958E+03  0.41963012525E+03  0.00000000000E+00 0.  1.
<mgrwt>
<rscale>  0 0.14660774E+04</rscale>
<asrwt>0</asrwt>
<pdfrwt beam="1">  1        1 0.55011072E-01 0.14660774E+04</pdfrwt>
<pdfrwt beam="2">  1       -1 0.23119423E+00 0.14660774E+04</pdfrwt>
<totfact> 0.62612325E+00</totfact>
</mgrwt>
</event>
<event>
12    3  0.4773567E-008  0.1287938E+04  0.7818608E-02  0.9039185E-01
         -4   -1    0    0    0  501 -0.00000000000E+00  0.00000000000E+00  0.69944415147E+03  0.69944415147E+03  0.00000000000E+00 0.  1.
          4   -1    0    0  501    0  0.00000000000E+00 -0.00000000000E+00 -0.59289383607E+03  0.59289383607E+03  0.00000000000E+00 0. -1.
         23    2    1    2    0    0 -0.22375355595E+02 -0.32712388267E+03 -0.61111823364E+02  0.34557369688E+03  0.90420317774E+02 0.  0.
        254    2    1    2    0    0  0.22375355595E+02  0.32712388267E+03  0.16766213876E+03  0.94676429067E+03  0.87220487167E+03 0.  0.
         23    2    4    4    0    0 -0.23749164594E+03  0.60296011523E+02 -0.26291619864E+03  0.37035667968E+03  0.89449716482E+02 0.  0.
         23    2    4    4    0    0  0.25986700154E+03  0.26682787115E+03  0.43057833740E+03  0.57640761099E+03  0.90111364770E+02 0.  0.
          3    1    3    3  502    0 -0.14582750116E+01 -0.28326979645E+03 -0.23721347741E+02  0.28426502860E+03  0.00000000000E+00 0. -1.
         -3    1    3    3    0  502 -0.20917080583E+02 -0.43854086220E+02 -0.37390475623E+02  0.61308668275E+02  0.00000000000E+00 0.  1.
         13    1    5    5    0    0 -0.20697952882E+03  0.75501334341E+02 -0.19438199380E+03  0.29381173624E+03  0.00000000000E+00 0. -1.
        -13    1    5    5    0    0 -0.30512117120E+02 -0.15205322818E+02 -0.68534204842E+02  0.76544943442E+02  0.00000000000E+00 0.  1.
          1    1    6    6  503    0  0.23874056820E+03  0.26343106539E+03  0.42538733691E+03  0.55438918777E+03  0.00000000000E+00 0. -1.
         -1    1    6    6    0  503  0.21126433341E+02  0.33968057612E+01  0.51910004933E+01  0.22018423223E+02  0.00000000000E+00 0.  1.
<mgrwt>
<rscale>  0 0.12879381E+04</rscale>
<asrwt>0</asrwt>
<pdfrwt beam="1">  1        4 0.91214436E-01 0.12879381E+04</pdfrwt>
<pdfrwt beam="2">  1       -4 0.10760679E+00 0.12879381E+04</pdfrwt>
<totfact> 0.13897609E+00</totfact>
</mgrwt>
</event>
<event>
12    3  0.4773567E-008  0.2055843E+04  0.7818608E-02  0.8580948E-01
          1   -1    0    0  501    0  0.00000000000E+00  0.00000000000E+00  0.67821257195E+03  0.67821257195E+03  0.00000000000E+00 0. -1.
         -1   -1    0    0    0  501 -0.00000000000E+00 -0.00000000000E+00 -0.15579524331E+04  0.15579524331E+04  0.00000000000E+00 0.  1.
         23    2    1    2    0    0 -0.17136150750E+03 -0.57851067584E+03 -0.96130741181E+03  0.11384517502E+04  0.89000445022E+02 0.  0.
        254    2    1    2    0    0  0.17136150750E+03  0.57851067584E+03  0.81567550707E+02  0.10977132548E+04  0.91339025401E+03 0.  0.
         23    2    4    4    0    0 -0.21432097894E+02  0.73621014584E+03  0.24865396276E+03  0.78398923557E+03  0.10171339457E+03 0.  0.
         23    2    4    4    0    0  0.19279360540E+03 -0.15769946999E+03 -0.16708641205E+03  0.31372401924E+03  0.92013010154E+02 0.  0.
          1    1    3    3  502    0  0.27659208566E+01 -0.10306355218E+03 -0.14661597826E+03  0.17923724832E+03  0.00000000000E+00 0. -1.
         -1    1    3    3    0  502 -0.17412742836E+03 -0.47544712367E+03 -0.81469143355E+03  0.95921450188E+03  0.00000000000E+00 0.  1.
         13    1    5    5    0    0  0.81827559689E+01  0.94442700640E+01 -0.52837734720E+01  0.13567239748E+02  0.00000000000E+00 0. -1.
        -13    1    5    5    0    0 -0.29614853863E+02  0.72676587577E+03  0.25393773623E+03  0.77042199582E+03  0.00000000000E+00 0.  1.
          4    1    6    6  503    0  0.61249181830E+02 -0.95268989383E+02 -0.10827540239E+03  0.15668824262E+03  0.00000000000E+00 0. -1.
         -4    1    6    6    0  503  0.13154442357E+03 -0.62430480610E+02 -0.58811009659E+02  0.15703577662E+03  0.00000000000E+00 0.  1.
<mgrwt>
<rscale>  0 0.20558433E+04</rscale>
<asrwt>0</asrwt>
<pdfrwt beam="1">  1        1 0.10434040E+00 0.20558433E+04</pdfrwt>
<pdfrwt beam="2">  1       -1 0.23968499E+00 0.20558433E+04</pdfrwt>
<totfact> 0.21492646E+00</totfact>
</mgrwt>
</event>
<event>
12    3  0.4773567E-008  0.1004431E+04  0.7818608E-02  0.9303698E-01
          3   -1    0    0  501    0  0.00000000000E+00  0.00000000000E+00  0.17586117073E+03  0.17586117073E+03  0.00000000000E+00 0. -1.
         -3   -1    0    0    0  501 -0.00000000000E+00 -0.00000000000E+00 -0.14342030865E+04  0.14342030865E+04  0.00000000000E+00 0.  1.
         23    2    1    2    0    0  0.45849785499E+01  0.42359020669E+02 -0.79569013411E+02  0.12638316581E+03  0.88465632000E+02 0.  0.
        254    2    1    2    0    0 -0.45849785499E+01 -0.42359020669E+02 -0.11787729023E+04  0.14836810914E+04  0.89999373165E+03 0.  0.
         23    2    4    4    0    0  0.48977068986E+01 -0.27399810011E+03 -0.11290495891E+02  0.28988661683E+03  0.93850034221E+02 0.  0.
         23    2    4    4    0    0 -0.94826854484E+01  0.23163907944E+03 -0.11674824065E+04  0.11937944746E+04  0.91561420233E+02 0.  0.
          1    1    3    3  502    0  0.25065883095E+02 -0.18762792903E+02 -0.13562557110E+02  0.34121603834E+02  0.00000000000E+00 0. -1.
         -1    1    3    3    0  502 -0.20480904545E+02  0.61121813572E+02 -0.66006456300E+02  0.92261561978E+02  0.00000000000E+00 0.  1.
         13    1    5    5    0    0  0.15554865445E+02 -0.47911797930E+01 -0.12408425908E+02  0.20466515980E+02  0.00000000000E+00 0. -1.
        -13    1    5    5    0    0 -0.10657158547E+02 -0.26920692032E+03  0.11179300173E+01  0.26942010085E+03  0.00000000000E+00 0.  1.
          1    1    6    6  503    0  0.38460461780E+02  0.11148115542E+03 -0.63179748426E+03  0.64270935597E+03  0.00000000000E+00 0. -1.
         -1    1    6    6    0  503 -0.47943147228E+02  0.12015792402E+03 -0.53568492219E+03  0.55108511859E+03  0.00000000000E+00 0.  1.
<mgrwt>
<rscale>  0 0.10044314E+04</rscale>
<asrwt>0</asrwt>
<pdfrwt beam="1">  1        3 0.27055563E-01 0.10044314E+04</pdfrwt>
<pdfrwt beam="2">  1       -3 0.22064664E+00 0.10044314E+04</pdfrwt>
<totfact> 0.37785944E+00</totfact>
</mgrwt>
</event>
<event>
12    3  0.4773567E-008  0.1693564E+04  0.7818608E-02  0.8765044E-01
         -1   -1    0    0    0  501 -0.00000000000E+00  0.00000000000E+00  0.44514493462E+03  0.44514493462E+03  0.00000000000E+00 0.  1.
          1   -1    0    0  501    0  0.00000000000E+00 -0.00000000000E+00 -0.16108005567E+04  0.16108005567E+04  0.00000000000E+00 0. -1.
         23    2    1    2    0    0 -0.19412382084E+02 -0.84572718864E+02  0.31343584146E+03  0.33758826897E+03  0.90523075928E+02 0.  0.
        254    2    1    2    0    0  0.19412382084E+02  0.84572718864E+02 -0.14790914636E+04  0.17183572224E+04  0.87035084921E+03 0.  0.
         23    2    4    4    0    0  0.33002045592E+03  0.32130059935E+03 -0.71261642248E+03  0.85319695546E+03  0.89304550568E+02 0.  0.
         23    2    4    4    0    0 -0.31060807383E+03 -0.23672788049E+03 -0.76647504111E+03  0.86516026693E+03  0.92199966914E+02 0.  0.
          3    1    3    3  502    0 -0.40903160907E+02 -0.26283253858E+02  0.63098044099E+02  0.79657022130E+02  0.00000000000E+00 0. -1.
         -3    1    3    3    0  502  0.21490778822E+02 -0.58289465006E+02  0.25033779737E+03  0.25793124684E+03  0.00000000000E+00 0.  1.
         13    1    5    5    0    0  0.18139514570E+02  0.35891628830E+02 -0.10962587897E+03  0.11676936391E+03  0.00000000000E+00 0. -1.
        -13    1    5    5    0    0  0.31188094135E+03  0.28540897052E+03 -0.60299054351E+03  0.73642759155E+03  0.00000000000E+00 0.  1.
          4    1    6    6  503    0 -0.28101960519E+03 -0.21663547538E+03 -0.61973976678E+03  0.71412906832E+03  0.00000000000E+00 0.  1.
         -4    1    6    6    0  503 -0.29588468639E+02 -0.20092405104E+02 -0.14673527433E+03  0.15103119861E+03  0.00000000000E+00 0. -1.
<mgrwt>
<rscale>  0 0.16935639E+04</rscale>
<asrwt>0</asrwt>
<pdfrwt beam="1">  1        1 0.24781547E+00 0.16935639E+04</pdfrwt>
<pdfrwt beam="2">  1       -1 0.68483836E-01 0.16935639E+04</pdfrwt>
<totfact> 0.11270854E+01</totfact>
</mgrwt>
</event>
<event>
12    3  0.4773567E-008  0.3369825E+04  0.7818608E-02  0.8145352E-01
          2   -1    0    0  501    0  0.00000000000E+00  0.00000000000E+00  0.25773502537E+04  0.25773502537E+04  0.00000000000E+00 0. -1.
         -2   -1    0    0    0  501 -0.00000000000E+00 -0.00000000000E+00 -0.11014915267E+04  0.11014915267E+04  0.00000000000E+00 0.  1.
         23    2    1    2    0    0 -0.10271113028E+04 -0.13649434658E+03  0.19657604279E+04  0.22253562582E+04  0.12003366563E+03 0.  0.
        254    2    1    2    0    0  0.10271113028E+04  0.13649434658E+03 -0.48990170099E+03  0.14534855222E+04  0.89388374606E+03 0.  0.
         23    2    4    4    0    0  0.14258727106E+03 -0.33727070890E+02  0.23779794730E+03  0.29190207253E+03  0.84795701696E+02 0.  0.
         23    2    4    4    0    0  0.88452403179E+03  0.17022141747E+03 -0.72769964829E+03  0.11615834497E+04  0.91494473126E+02 0.  0.
          3    1    3    3  502    0 -0.74723627302E+03 -0.50482926100E+02  0.13614938042E+04  0.15538905857E+04  0.00000000000E+00 0. -1.
         -3    1    3    3    0  502 -0.27987502982E+03 -0.86011420481E+02  0.60426662375E+03  0.67146567250E+03  0.00000000000E+00 0.  1.
         13    1    5    5    0    0  0.41685090517E+02 -0.10777601103E+02  0.15043758161E+03  0.15647769623E+03  0.00000000000E+00 0. -1.
        -13    1    5    5    0    0  0.10090218054E+03 -0.22949469787E+02  0.87360365690E+02  0.13542437630E+03  0.00000000000E+00 0.  1.
          4    1    6    6  503    0  0.51375414664E+03  0.98643703632E+02 -0.36410348354E+03  0.63737371312E+03  0.00000000000E+00 0. -1.
         -4    1    6    6    0  503  0.37076988514E+03  0.71577713839E+02 -0.36359616475E+03  0.52420973653E+03  0.00000000000E+00 0.  1.
<mgrwt>
<rscale>  0 0.33698246E+04</rscale>
<asrwt>0</asrwt>
<pdfrwt beam="1">  1        2 0.39651542E+00 0.33698246E+04</pdfrwt>
<pdfrwt beam="2">  1       -2 0.16946024E+00 0.33698246E+04</pdfrwt>
<totfact> 0.56021712E-01</totfact>
</mgrwt>
</event>
<event>
12    3  0.4773567E-008  0.1642893E+04  0.7818608E-02  0.8794622E-01
          1   -1    0    0  501    0  0.00000000000E+00  0.00000000000E+00  0.60473820833E+03  0.60473820833E+03  0.00000000000E+00 0. -1.
         -1   -1    0    0    0  501 -0.00000000000E+00 -0.00000000000E+00 -0.11158116612E+04  0.11158116612E+04  0.00000000000E+00 0.  1.
         23    2    1    2    0    0 -0.22684926086E+03 -0.25050868895E+03 -0.65950592434E+03  0.74611591234E+03  0.86750792531E+02 0.  0.
        254    2    1    2    0    0  0.22684926086E+03  0.25050868895E+03  0.14843247145E+03  0.97443395721E+03  0.90181713667E+03 0.  0.
         23    2    4    4    0    0  0.31362034735E+03  0.32236219632E+03 -0.26950617283E+03  0.53218528794E+03  0.91172888586E+02 0.  0.
         23    2    4    4    0    0 -0.86771086497E+02 -0.71853507366E+02  0.41793864428E+03  0.44224866928E+03  0.90658850235E+02 0.  0.
          1    1    3    3  502    0 -0.56583572200E+02 -0.15503483311E+02 -0.10664573111E+03  0.12171840699E+03  0.00000000000E+00 0. -1.
         -1    1    3    3    0  502 -0.17026568866E+03 -0.23500520564E+03 -0.55286019324E+03  0.62439750534E+03  0.00000000000E+00 0.  1.
         13    1    5    5    0    0  0.22190503516E+03  0.18774530186E+03 -0.21069788327E+03  0.35900381755E+03  0.00000000000E+00 0.  1.
        -13    1    5    5    0    0  0.91715312196E+02  0.13461689446E+03 -0.58808289556E+02  0.17318147039E+03  0.00000000000E+00 0. -1.
          1    1    6    6  503    0  0.13043542660E+02 -0.28986784838E+02  0.14590924147E+03  0.14933142484E+03  0.00000000000E+00 0. -1.
         -1    1    6    6    0  503 -0.99814629157E+02 -0.42866722527E+02  0.27202940281E+03  0.29291724443E+03  0.00000000000E+00 0.  1.
<mgrwt>
<rscale>  0 0.16428925E+04</rscale>
<asrwt>0</asrwt>
<pdfrwt beam="1">  1        1 0.93036647E-01 0.16428925E+04</pdfrwt>
<pdfrwt beam="2">  1       -1 0.17166333E+00 0.16428925E+04</pdfrwt>
<totfact> 0.77447666E+00</totfact>
</mgrwt>
</event>
<event>
12    3  0.4773567E-008  0.1639633E+04  0.7818608E-02  0.8796563E-01
         -2   -1    0    0    0  501 -0.00000000000E+00  0.00000000000E+00  0.35209322962E+03  0.35209322962E+03  0.00000000000E+00 0.  1.
          2   -1    0    0  501    0  0.00000000000E+00 -0.00000000000E+00 -0.19088673201E+04  0.19088673201E+04  0.00000000000E+00 0. -1.
         23    2    1    2    0    0  0.28913162048E+03 -0.35409428256E+03 -0.96493214506E+02  0.47625615990E+03  0.92353313423E+02 0.  0.
        254    2    1    2    0    0 -0.28913162048E+03  0.35409428256E+03 -0.14602808759E+04  0.17847043898E+04  0.91856935905E+03 0.  0.
         23    2    4    4    0    0 -0.10774854087E+03  0.15277541808E+02  0.99963503629E+02  0.17523767385E+03  0.94193359298E+02 0.  0.
         23    2    4    4    0    0 -0.18138307961E+03  0.33881674075E+03 -0.15602443796E+04  0.16094667159E+04  0.91235850187E+02 0.  0.
          4    1    3    3  502    0  0.15825337477E+03 -0.25392022141E+03 -0.85014903162E+02  0.31104202807E+03  0.00000000000E+00 0. -1.
         -4    1    3    3    0  502  0.13087824570E+03 -0.10017406115E+03 -0.11478311344E+02  0.16521413183E+03  0.00000000000E+00 0.  1.
         13    1    5    5    0    0 -0.62286960004E+02 -0.90873416686E+01  0.10602599683E+03  0.12330351645E+03  0.00000000000E+00 0. -1.
        -13    1    5    5    0    0 -0.45461580862E+02  0.24364883477E+02 -0.60624931977E+01  0.51934157403E+02  0.00000000000E+00 0.  1.
          4    1    6    6  503    0 -0.19117577619E+03  0.30849528949E+03 -0.14196223122E+04  0.14652798471E+04  0.00000000000E+00 0. -1.
         -4    1    6    6    0  503  0.97926965816E+01  0.30321451256E+02 -0.14062206734E+03  0.14418686881E+03  0.00000000000E+00 0.  1.
<mgrwt>
<rscale>  0 0.16396332E+04</rscale>
<asrwt>0</asrwt>
<pdfrwt beam="1">  1        2 0.29367190E+00 0.16396332E+04</pdfrwt>
<pdfrwt beam="2">  1       -2 0.54168188E-01 0.16396332E+04</pdfrwt>
<totfact> 0.23034133E+01</totfact>
</mgrwt>
</event>
<event>
12    3  0.4773567E-008  0.2108187E+04  0.7818608E-02  0.8557646E-01
         -2   -1    0    0    0  501 -0.00000000000E+00  0.00000000000E+00  0.64417266434E+03  0.64417266434E+03  0.00000000000E+00 0.  1.
          2   -1    0    0  501    0  0.00000000000E+00 -0.00000000000E+00 -0.17248683006E+04  0.17248683006E+04  0.00000000000E+00 0. -1.
         23    2    1    2    0    0  0.80260672050E+03  0.43034086368E+01 -0.77825319375E+03  0.11216860586E+04  0.91134589213E+02 0.  0.
        254    2    1    2    0    0 -0.80260672050E+03 -0.43034086368E+01 -0.30244244249E+03  0.12473549063E+04  0.90566371474E+03 0.  0.
         23    2    4    4    0    0 -0.37484502248E+03  0.13490419372E+03  0.28815293538E+03  0.49930479602E+03  0.86978346765E+02 0.  0.
         23    2    4    4    0    0 -0.42776169802E+03 -0.13920760235E+03 -0.59059537786E+03  0.74805011030E+03  0.91745519322E+02 0.  0.
          4    1    3    3  502    0  0.33464176021E+03  0.59362592139E+01 -0.26318934807E+03  0.42578043613E+03  0.00000000000E+00 0.  1.
         -4    1    3    3    0  502  0.46796496029E+03 -0.16328505772E+01 -0.51506384568E+03  0.69590562247E+03  0.00000000000E+00 0. -1.
         13    1    5    5    0    0 -0.13475990936E+03  0.79862445060E+02  0.15004695356E+03  0.21691549409E+03  0.00000000000E+00 0. -1.
        -13    1    5    5    0    0 -0.24008511311E+03  0.55041748658E+02  0.13810598182E+03  0.28238930194E+03  0.00000000000E+00 0.  1.
          4    1    6    6  503    0 -0.26049628273E+03 -0.11386801245E+03 -0.42498387546E+03  0.51130766861E+03  0.00000000000E+00 0.  1.
         -4    1    6    6    0  503 -0.16726541529E+03 -0.25339589903E+02 -0.16561150240E+03  0.23674244169E+03  0.00000000000E+00 0. -1.
<mgrwt>
<rscale>  0 0.21081869E+04</rscale>
<asrwt>0</asrwt>
<pdfrwt beam="1">  1        2 0.26536435E+00 0.21081869E+04</pdfrwt>
<pdfrwt beam="2">  1       -2 0.99103487E-01 0.21081869E+04</pdfrwt>
<totfact> 0.73820660E+00</totfact>
</mgrwt>
</event>
<event>
12    3  0.4773567E-008  0.1335451E+04  0.7818608E-02  0.9001915E-01
          2   -1    0    0  501    0  0.00000000000E+00  0.00000000000E+00  0.16069650858E+04  0.16069650858E+04  0.00000000000E+00 0. -1.
         -2   -1    0    0    0  501 -0.00000000000E+00 -0.00000000000E+00 -0.27745296659E+03  0.27745296659E+03  0.00000000000E+00 0.  1.
         23    2    1    2    0    0 -0.31226865221E+03 -0.95876026987E+02  0.17034920642E+03  0.37918578206E+03  0.89772387122E+02 0.  0.
        254    2    1    2    0    0  0.31226865221E+03  0.95876026987E+02  0.11591629128E+04  0.15052322703E+04  0.90297375683E+03 0.  0.
         23    2    4    4    0    0 -0.21847976169E+03  0.27951399909E+03  0.62685362332E+03  0.72605327064E+03  0.91358660145E+02 0.  0.
         23    2    4    4    0    0  0.53074841390E+03 -0.18363797210E+03  0.53230928944E+03  0.77917899965E+03  0.91378062020E+02 0.  0.
          4    1    3    3  502    0 -0.29934309451E+03 -0.90204137096E+02  0.13391372161E+03  0.34011168668E+03  0.00000000000E+00 0. -1.
         -4    1    3    3    0  502 -0.12925557697E+02 -0.56718898917E+01  0.36435484813E+02  0.39074095386E+02  0.00000000000E+00 0.  1.
         13    1    5    5    0    0 -0.91444486048E+02  0.51335868942E+02  0.16615887963E+03  0.19648470360E+03  0.00000000000E+00 0.  1.
        -13    1    5    5    0    0 -0.12703527565E+03  0.22817813015E+03  0.46069474369E+03  0.52956856704E+03  0.00000000000E+00 0. -1.
          4    1    6    6  503    0  0.15255279623E+03 -0.61123190788E+02  0.10240395272E+03  0.19363617850E+03  0.00000000000E+00 0. -1.
         -4    1    6    6    0  503  0.37819561767E+03 -0.12251478131E+03  0.42990533672E+03  0.58554282115E+03  0.00000000000E+00 0.  1.
<mgrwt>
<rscale>  0 0.13354508E+04</rscale>
<asrwt>0</asrwt>
<pdfrwt beam="1">  1        2 0.24722539E+00 0.13354508E+04</pdfrwt>
<pdfrwt beam="2">  1       -2 0.42685073E-01 0.13354508E+04</pdfrwt>
<totfact> 0.56212309E+01</totfact>
</mgrwt>
</event>
<event>
12    3  0.4773567E-008  0.1564067E+04  0.7818608E-02  0.8842932E-01
         -2   -1    0    0    0  501 -0.00000000000E+00  0.00000000000E+00  0.39688588788E+03  0.39688588788E+03  0.00000000000E+00 0.  1.
          2   -1    0    0  501    0  0.00000000000E+00 -0.00000000000E+00 -0.15409379228E+04  0.15409379228E+04  0.00000000000E+00 0. -1.
         23    2    1    2    0    0 -0.85729584835E+02 -0.25092478490E+03 -0.94587223556E+03  0.98648035646E+03  0.90312780328E+02 0.  0.
        254    2    1    2    0    0  0.85729584835E+02  0.25092478490E+03 -0.19817979935E+03  0.95134345420E+03  0.89188918907E+03 0.  0.
         23    2    4    4    0    0  0.31376292430E+03  0.27188663514E+03  0.21192335770E+03  0.47306533032E+03  0.80683221179E+02 0.  0.
         23    2    4    4    0    0 -0.22803333947E+03 -0.20961850237E+02 -0.41010315706E+03  0.47827812388E+03  0.90148551202E+02 0.  0.
          1    1    3    3  502    0 -0.45966722750E+02 -0.17706520076E+03 -0.77273132682E+03  0.79408987424E+03  0.00000000000E+00 0. -1.
         -1    1    3    3    0  502 -0.39762862085E+02 -0.73859584144E+02 -0.17314090874E+03  0.19239048222E+03  0.00000000000E+00 0.  1.
         13    1    5    5    0    0  0.10207149416E+02 -0.98490767335E+00 -0.43458843496E+01  0.11137443742E+02  0.00000000000E+00 0. -1.
        -13    1    5    5    0    0  0.30355577488E+03  0.27287154281E+03  0.21626924205E+03  0.46192788658E+03  0.00000000000E+00 0.  1.
          2    1    6    6  503    0 -0.99801855352E+02 -0.52522935045E+02 -0.21319322990E+03  0.24118545212E+03  0.00000000000E+00 0. -1.
         -2    1    6    6    0  503 -0.12823148411E+03  0.31561084809E+02 -0.19690992715E+03  0.23709267176E+03  0.00000000000E+00 0.  1.
<mgrwt>
<rscale>  0 0.15640672E+04</rscale>
<asrwt>0</asrwt>
<pdfrwt beam="1">  1        2 0.23706737E+00 0.15640672E+04</pdfrwt>
<pdfrwt beam="2">  1       -2 0.61059368E-01 0.15640672E+04</pdfrwt>
<totfact> 0.28879484E+01</totfact>
</mgrwt>
</event>
<event>
12    3  0.4773567E-008  0.1476681E+04  0.7818608E-02  0.8900109E-01
         -1   -1    0    0    0  501 -0.00000000000E+00  0.00000000000E+00  0.36445510044E+03  0.36445510044E+03  0.00000000000E+00 0.  1.
          1   -1    0    0  501    0  0.00000000000E+00 -0.00000000000E+00 -0.14957865325E+04  0.14957865325E+04  0.00000000000E+00 0. -1.
         23    2    1    2    0    0  0.32685240257E+03 -0.19108355298E+03 -0.71946219552E+03  0.81787803767E+03  0.89180807569E+02 0.  0.
        254    2    1    2    0    0 -0.32685240257E+03  0.19108355298E+03 -0.41186923656E+03  0.10423635953E+04  0.87951132993E+03 0.  0.
         23    2    4    4    0    0 -0.53204373512E+03 -0.59022969646E+02 -0.45115354702E+03  0.70576960253E+03  0.89537488458E+02 0.  0.
         23    2    4    4    0    0  0.20519133256E+03  0.25010652262E+03  0.39284310462E+02  0.33659399276E+03  0.84234810481E+02 0.  0.
          2    1    3    3  502    0  0.29327423841E+03 -0.15983747467E+03 -0.56089305214E+03  0.65280840464E+03  0.00000000000E+00 0. -1.
         -2    1    3    3    0  502  0.33578164155E+02 -0.31246078303E+02 -0.15856914338E+03  0.16506963303E+03  0.00000000000E+00 0.  1.
         13    1    5    5    0    0 -0.51026787525E+03 -0.36759565029E+02 -0.42632797661E+03  0.66594302592E+03  0.00000000000E+00 0.  1.
        -13    1    5    5    0    0 -0.21775859877E+02 -0.22263404617E+02 -0.24825570413E+02  0.39826576615E+02  0.00000000000E+00 0. -1.
          3    1    6    6  503    0  0.72210475026E+02  0.15018854186E+03  0.34555970759E+02  0.17019126278E+03  0.00000000000E+00 0. -1.
         -3    1    6    6    0  503  0.13298085753E+03  0.99917980759E+02  0.47283397038E+01  0.16640272998E+03  0.00000000000E+00 0.  1.
<mgrwt>
<rscale>  0 0.14766815E+04</rscale>
<asrwt>0</asrwt>
<pdfrwt beam="1">  1        1 0.23012101E+00 0.14766815E+04</pdfrwt>
<pdfrwt beam="2">  1       -1 0.56070015E-01 0.14766815E+04</pdfrwt>
<totfact> 0.20538801E+01</totfact>
</mgrwt>
</event>
<event>
12    3  0.4773567E-008  0.1383223E+04  0.7818608E-02  0.8966053E-01
          2   -1    0    0  501    0  0.00000000000E+00  0.00000000000E+00  0.22819373090E+04  0.22819373090E+04  0.00000000000E+00 0.  1.
         -2   -1    0    0    0  501 -0.00000000000E+00 -0.00000000000E+00 -0.20961431574E+03  0.20961431574E+03  0.00000000000E+00 0. -1.
         23    2    1    2    0    0  0.22983509804E+03 -0.13282400474E+03  0.11226596945E+04  0.11572050804E+04  0.91062725870E+02 0.  0.
        254    2    1    2    0    0 -0.22983509804E+03  0.13282400474E+03  0.94966329882E+03  0.13343465443E+04  0.89897382095E+03 0.  0.
         23    2    4    4    0    0 -0.48423718763E+02 -0.37450003939E+03  0.40495250399E+03  0.56266716368E+03  0.10006333268E+03 0.  0.
         23    2    4    4    0    0 -0.18141137927E+03  0.50732404413E+03  0.54471079483E+03  0.77167938067E+03  0.92149022090E+02 0.  0.
          3    1    3    3  502    0  0.46988247084E+02 -0.35985808454E+01  0.33646036944E+03  0.33974464728E+03  0.00000000000E+00 0. -1.
         -3    1    3    3    0  502  0.18284685095E+03 -0.12922542389E+03  0.78619932503E+03  0.81746043315E+03  0.00000000000E+00 0.  1.
         13    1    5    5    0    0 -0.65569833135E+02 -0.34071038912E+03  0.33076073076E+03  0.47935960748E+03  0.00000000000E+00 0.  1.
        -13    1    5    5    0    0  0.17146114372E+02 -0.33789650269E+02  0.74191773238E+02  0.83307556197E+02  0.00000000000E+00 0. -1.
          1    1    6    6  503    0 -0.22392588232E+02  0.82882147603E+02  0.44640725542E+02  0.96766072442E+02  0.00000000000E+00 0. -1.
         -1    1    6    6    0  503 -0.15901879104E+03  0.42444189653E+03  0.50007006928E+03  0.67491330823E+03  0.00000000000E+00 0.  1.
<mgrwt>
<rscale>  0 0.13832234E+04</rscale>
<asrwt>0</asrwt>
<pdfrwt beam="1">  1        2 0.35106726E+00 0.13832234E+04</pdfrwt>
<pdfrwt beam="2">  1       -2 0.32248358E-01 0.13832234E+04</pdfrwt>
<totfact> 0.40581808E+01</totfact>
</mgrwt>
</event>
<event>
12    3  0.4773567E-008  0.3151566E+04  0.7818608E-02  0.8201727E-01
          2   -1    0    0  501    0  0.00000000000E+00  0.00000000000E+00  0.14422998956E+04  0.14422998956E+04  0.00000000000E+00 0. -1.
         -2   -1    0    0    0  501 -0.00000000000E+00 -0.00000000000E+00 -0.17216203405E+04  0.17216203405E+04  0.00000000000E+00 0.  1.
         23    2    1    2    0    0  0.69759591992E+03  0.94814968659E+03 -0.95774914843E+03  0.15203140673E+04  0.91888717113E+02 0.  0.
        254    2    1    2    0    0 -0.69759591992E+03 -0.94814968659E+03  0.67842870356E+03  0.16436061688E+04  0.92495828906E+03 0.  0.
         23    2    4    4    0    0 -0.57960214294E+03 -0.58326781362E+03 -0.35913630339E+02  0.82776519692E+03  0.88121767326E+02 0.  0.
         23    2    4    4    0    0 -0.11799377699E+03 -0.36488187297E+03  0.71434233390E+03  0.81584097185E+03  0.90830659540E+02 0.  0.
          1    1    3    3  502    0  0.65813154846E+02  0.14156743691E+03 -0.12299789400E+03  0.19874906911E+03  0.00000000000E+00 0. -1.
         -1    1    3    3    0  502  0.63178276508E+03  0.80658224968E+03 -0.83475125444E+03  0.13215649982E+04  0.00000000000E+00 0.  1.
         13    1    5    5    0    0 -0.27147144043E+03 -0.31941948154E+03  0.11424503080E+02  0.41935196128E+03  0.00000000000E+00 0. -1.
        -13    1    5    5    0    0 -0.30813070250E+03 -0.26384833209E+03 -0.47338133419E+02  0.40841323564E+03  0.00000000000E+00 0.  1.
          2    1    6    6  503    0 -0.70703822257E+02 -0.32068646922E+03  0.57415921396E+03  0.66143604755E+03  0.00000000000E+00 0. -1.
         -2    1    6    6    0  503 -0.47289954729E+02 -0.44195403748E+02  0.14018311995E+03  0.15440492430E+03  0.00000000000E+00 0.  1.
<mgrwt>
<rscale>  0 0.31515665E+04</rscale>
<asrwt>0</asrwt>
<pdfrwt beam="1">  1        2 0.22189229E+00 0.31515665E+04</pdfrwt>
<pdfrwt beam="2">  1       -2 0.26486467E+00 0.31515665E+04</pdfrwt>
<totfact> 0.60287784E-01</totfact>
</mgrwt>
</event>
<event>
12    3  0.4773567E-008  0.2102101E+04  0.7818608E-02  0.8560319E-01
          2   -1    0    0  501    0  0.00000000000E+00  0.00000000000E+00  0.12826066441E+04  0.12826066441E+04  0.00000000000E+00 0. -1.
         -2   -1    0    0    0  501 -0.00000000000E+00 -0.00000000000E+00 -0.86129819391E+03  0.86129819391E+03  0.00000000000E+00 0.  1.
         23    2    1    2    0    0  0.26026496425E+02  0.74172377266E+03 -0.26560027679E+03  0.79382649788E+03  0.93730828752E+02 0.  0.
        254    2    1    2    0    0 -0.26026496425E+02 -0.74172377266E+03  0.68690872701E+03  0.13500783402E+04  0.89444753446E+03 0.  0.
         23    2    4    4    0    0  0.68109131973E+02  0.18949939770E+03  0.11208824922E+03  0.24794294875E+03  0.91449738294E+02 0.  0.
         23    2    4    4    0    0 -0.94135628398E+02 -0.93122317036E+03  0.57482047779E+03  0.11021353914E+04  0.90806000728E+02 0.  0.
          3    1    3    3  502    0 -0.19415657349E+02  0.95657451337E+02 -0.58793412376E+02  0.11394727327E+03  0.00000000000E+00 0. -1.
         -3    1    3    3    0  502  0.45442153774E+02  0.64606632132E+03 -0.20680686441E+03  0.67987922461E+03  0.00000000000E+00 0.  1.
         13    1    5    5    0    0  0.89759519836E+02  0.15245113560E+03  0.10062491672E+03  0.20352762469E+03  0.00000000000E+00 0. -1.
        -13    1    5    5    0    0 -0.21650387863E+02  0.37048262102E+02  0.11463332502E+02  0.44415324061E+02  0.00000000000E+00 0.  1.
          4    1    6    6  503    0 -0.37004738199E+02 -0.73005954070E+03  0.43634759962E+03  0.85132573748E+03  0.00000000000E+00 0.  1.
         -4    1    6    6    0  503 -0.57130890199E+02 -0.20116362967E+03  0.13847287817E+03  0.25080965393E+03  0.00000000000E+00 0. -1.
<mgrwt>
<rscale>  0 0.21021007E+04</rscale>
<asrwt>0</asrwt>
<pdfrwt beam="1">  1        2 0.19732410E+00 0.21021007E+04</pdfrwt>
<pdfrwt beam="2">  1       -2 0.13250741E+00 0.21021007E+04</pdfrwt>
<totfact> 0.64523192E+00</totfact>
</mgrwt>
</event>
<event>
12    3  0.4773567E-008  0.1139076E+04  0.7818608E-02  0.9167921E-01
          1   -1    0    0  501    0  0.00000000000E+00  0.00000000000E+00  0.57323946368E+03  0.57323946368E+03  0.00000000000E+00 0. -1.
         -1   -1    0    0    0  501 -0.00000000000E+00 -0.00000000000E+00 -0.56586082888E+03  0.56586082888E+03  0.00000000000E+00 0.  1.
         23    2    1    2    0    0  0.14512034893E+03  0.23446863645E+02 -0.99670018139E+02  0.21004408407E+03  0.11213711985E+03 0.  0.
        254    2    1    2    0    0 -0.14512034893E+03 -0.23446863645E+02  0.10704865294E+03  0.92905620848E+03  0.91108526129E+03 0.  0.
         23    2    4    4    0    0 -0.23077484442E+03  0.34895745062E+01  0.47689654339E+03  0.53759109395E+03  0.91129936078E+02 0.  0.
         23    2    4    4    0    0  0.85654495486E+02 -0.26936438152E+02 -0.36984789045E+03  0.39146511454E+03  0.91625376036E+02 0.  0.
          3    1    3    3  502    0 -0.14030355776E+02 -0.15111725460E+02 -0.16317992861E+02  0.26296235863E+02  0.00000000000E+00 0. -1.
         -3    1    3    3    0  502  0.15915070471E+03  0.38558589105E+02 -0.83352025279E+02  0.18374784821E+03  0.00000000000E+00 0.  1.
         13    1    5    5    0    0 -0.16907469884E+03  0.19766578684E+02  0.41559229086E+03  0.44910346653E+03  0.00000000000E+00 0.  1.
        -13    1    5    5    0    0 -0.61700145572E+02 -0.16277004178E+02  0.61304252525E+02  0.88487627419E+02  0.00000000000E+00 0. -1.
          1    1    6    6  503    0  0.50279755532E+02 -0.26416851163E+01 -0.32688918954E+03  0.33074397130E+03  0.00000000000E+00 0.  1.
         -1    1    6    6    0  503  0.35374739953E+02 -0.24294753035E+02 -0.42958700911E+02  0.60721143235E+02  0.00000000000E+00 0. -1.
<mgrwt>
<rscale>  0 0.11390764E+04</rscale>
<asrwt>0</asrwt>
<pdfrwt beam="1">  1        1 0.88190687E-01 0.11390764E+04</pdfrwt>
<pdfrwt beam="2">  1       -1 0.87055512E-01 0.11390764E+04</pdfrwt>
<totfact> 0.47268251E+01</totfact>
</mgrwt>
</event>
<event>
12    3  0.4773567E-008  0.2455113E+04  0.7818608E-02  0.8419154E-01
          1   -1    0    0  501    0  0.00000000000E+00  0.00000000000E+00  0.58381308958E+03  0.58381308958E+03  0.00000000000E+00 0. -1.
         -1   -1    0    0    0  501 -0.00000000000E+00 -0.00000000000E+00 -0.25811258642E+04  0.25811258642E+04  0.00000000000E+00 0.  1.
         23    2    1    2    0    0 -0.15198759360E+03 -0.28642945864E+03 -0.21697104469E+04  0.21952913568E+04  0.80738186092E+02 0.  0.
        254    2    1    2    0    0  0.15198759360E+03  0.28642945864E+03  0.17239767227E+03  0.96964759695E+03  0.89741486587E+03 0.  0.
         23    2    4    4    0    0 -0.10783400564E+03  0.55006865703E+03  0.59377995151E+02  0.57121887546E+03  0.92528682850E+02 0.  0.
         23    2    4    4    0    0  0.25982159924E+03 -0.26363919839E+03  0.11301967712E+03  0.39842872149E+03  0.94652566435E+02 0.  0.
          3    1    3    3  502    0 -0.40874200143E+02 -0.28770806492E+02 -0.46007789226E+03  0.46278518396E+03  0.00000000000E+00 0. -1.
         -3    1    3    3    0  502 -0.11111339346E+03 -0.25765865215E+03 -0.17096325546E+04  0.17325061729E+04  0.00000000000E+00 0.  1.
         13    1    5    5    0    0 -0.74447406386E+02  0.37170792367E+03 -0.37041036993E+01  0.37910805481E+03  0.00000000000E+00 0.  1.
        -13    1    5    5    0    0 -0.33386599253E+02  0.17836073336E+03  0.63082098850E+02  0.19211082065E+03  0.00000000000E+00 0. -1.
          2    1    6    6  503    0  0.28451751860E+02 -0.36703901316E+02 -0.16692112513E+02  0.49348811291E+02  0.00000000000E+00 0. -1.
         -2    1    6    6    0  503  0.23136984738E+03 -0.22693529708E+03  0.12971178963E+03  0.34907991020E+03  0.00000000000E+00 0.  1.
<mgrwt>
<rscale>  0 0.24551131E+04</rscale>
<asrwt>0</asrwt>
<pdfrwt beam="1">  1        1 0.89817399E-01 0.24551131E+04</pdfrwt>
<pdfrwt beam="2">  1       -1 0.39709628E+00 0.24551131E+04</pdfrwt>
<totfact> 0.23797744E-01</totfact>
</mgrwt>
</event>
<event>
12    3  0.4773567E-008  0.1404718E+04  0.7818608E-02  0.8950411E-01
          1   -1    0    0  501    0  0.00000000000E+00  0.00000000000E+00  0.18555810747E+04  0.18555810747E+04  0.00000000000E+00 0. -1.
         -1   -1    0    0    0  501 -0.00000000000E+00 -0.00000000000E+00 -0.26585094282E+03  0.26585094282E+03  0.00000000000E+00 0.  1.
         23    2    1    2    0    0  0.14895555118E+03  0.18048795121E+03  0.10838483192E+04  0.11124453219E+04  0.89687002595E+02 0.  0.
        254    2    1    2    0    0 -0.14895555118E+03 -0.18048795121E+03  0.50588181266E+03  0.10089866956E+04  0.84105534108E+03 0.  0.
         23    2    4    4    0    0  0.27976352024E+03  0.13438734102E+03  0.26834037693E+03  0.42035773411E+03  0.91468475741E+02 0.  0.
         23    2    4    4    0    0 -0.42871907142E+03 -0.31487529223E+03  0.23754143572E+03  0.58862896148E+03  0.84330473443E+02 0.  0.
          1    1    3    3  502    0  0.15218497948E+03  0.13044483772E+03  0.87341831862E+03  0.89612258256E+03  0.00000000000E+00 0. -1.
         -1    1    3    3    0  502 -0.32294282967E+01  0.50043113489E+02  0.21043000058E+03  0.21632273935E+03  0.00000000000E+00 0.  1.
         13    1    5    5    0    0 -0.45398536287E+01  0.12708285813E+02  0.57712218651E+01  0.14677118283E+02  0.00000000000E+00 0. -1.
        -13    1    5    5    0    0  0.28430337386E+03  0.12167905521E+03  0.26256915507E+03  0.40568061583E+03  0.00000000000E+00 0.  1.
          3    1    6    6  503    0 -0.31252752510E+02  0.37620733616E+00  0.13145069628E+02  0.33906768158E+02  0.00000000000E+00 0. -1.
         -3    1    6    6    0  503 -0.39746631891E+03 -0.31525149957E+03  0.22439636609E+03  0.55472219332E+03  0.00000000000E+00 0.  1.
<mgrwt>
<rscale>  0 0.14047177E+04</rscale>
<asrwt>0</asrwt>
<pdfrwt beam="1">  1        1 0.28547400E+00 0.14047177E+04</pdfrwt>
<pdfrwt beam="2">  1       -1 0.40900146E-01 0.14047177E+04</pdfrwt>
<totfact> 0.21293833E+01</totfact>
</mgrwt>
</event>
<event>
12    3  0.4773567E-008  0.1640090E+04  0.7818608E-02  0.8796291E-01
         -1   -1    0    0    0  501 -0.00000000000E+00  0.00000000000E+00  0.87350905091E+03  0.87350905091E+03  0.00000000000E+00 0.  1.
          1   -1    0    0  501    0  0.00000000000E+00 -0.00000000000E+00 -0.76985349951E+03  0.76985349951E+03  0.00000000000E+00 0. -1.
         23    2    1    2    0    0  0.11542705236E+03 -0.52266207557E+03  0.21147343594E+03  0.58268496513E+03  0.91113691718E+02 0.  0.
        254    2    1    2    0    0 -0.11542705236E+03  0.52266207557E+03 -0.10781788454E+03  0.10606775853E+04  0.90934767502E+03 0.  0.
         23    2    4    4    0    0  0.13765460736E+03  0.45006370922E+02 -0.40223392805E+03  0.43717756947E+03  0.91420621439E+02 0.  0.
         23    2    4    4    0    0 -0.25308165971E+03  0.47765570465E+03  0.29441604351E+03  0.62350001582E+03  0.99328567792E+02 0.  0.
          2    1    3    3  502    0 -0.95335591559E+01 -0.73444782620E+02  0.49495455640E+02  0.89077634529E+02  0.00000000000E+00 0. -1.
         -2    1    3    3    0  502  0.12496061151E+03 -0.44921729295E+03  0.16197798030E+03  0.49360733060E+03  0.00000000000E+00 0.  1.
         13    1    5    5    0    0  0.12253681437E+03  0.49347792678E+02 -0.40005205977E+03  0.42129814389E+03  0.00000000000E+00 0. -1.
        -13    1    5    5    0    0  0.15117792985E+02 -0.43414217557E+01 -0.21818682791E+01  0.15879425581E+02  0.00000000000E+00 0.  1.
          2    1    6    6  503    0 -0.23781383462E+03  0.40821032129E+03  0.28509376166E+03  0.55178758529E+03  0.00000000000E+00 0. -1.
         -2    1    6    6    0  503 -0.15267825094E+02  0.69445383359E+02  0.93222818518E+01  0.71712430526E+02  0.00000000000E+00 0.  1.
<mgrwt>
<rscale>  0 0.16400902E+04</rscale>
<asrwt>0</asrwt>
<pdfrwt beam="1">  1        1 0.11843900E+00 0.16400902E+04</pdfrwt>
<pdfrwt beam="2">  1       -1 0.13438601E+00 0.16400902E+04</pdfrwt>
<totfact> 0.10479510E+01</totfact>
</mgrwt>
</event>
<event>
12    3  0.4773567E-008  0.1663591E+04  0.7818608E-02  0.8782406E-01
         -1   -1    0    0    0  501 -0.00000000000E+00  0.00000000000E+00  0.38462300809E+03  0.38462300809E+03  0.00000000000E+00 0.  1.
          1   -1    0    0  501    0  0.00000000000E+00 -0.00000000000E+00 -0.17988625609E+04  0.17988625609E+04  0.00000000000E+00 0. -1.
         23    2    1    2    0    0 -0.47397754869E+03 -0.19221896854E+02 -0.68767497795E+02  0.48776118993E+03  0.90320604878E+02 0.  0.
        254    2    1    2    0    0  0.47397754869E+03  0.19221896854E+02 -0.13454720550E+04  0.16957243790E+04  0.91660346983E+03 0.  0.
         23    2    4    4    0    0  0.72086931893E+02  0.17598948029E+03  0.61232651098E+02  0.22156678968E+03  0.95778817090E+02 0.  0.
         23    2    4    4    0    0  0.40189061680E+03 -0.15676758344E+03 -0.14067047061E+04  0.14741575894E+04  0.90721138868E+02 0.  0.
          1    1    3    3  502    0 -0.28521827719E+03  0.70454571333E+01 -0.44313372761E+00  0.28530562644E+03  0.00000000000E+00 0. -1.
         -1    1    3    3    0  502 -0.18875927150E+03 -0.26267353988E+02 -0.68324364067E+02  0.20245556349E+03  0.00000000000E+00 0.  1.
         13    1    5    5    0    0  0.73235263478E+02  0.91798814983E+02 -0.41581998089E-01  0.11743265295E+03  0.00000000000E+00 0.  1.
        -13    1    5    5    0    0 -0.11483315855E+01  0.84190665311E+02  0.61274233096E+02  0.10413413673E+03  0.00000000000E+00 0. -1.
          3    1    6    6  503    0  0.53786962125E+02 -0.12073645545E+02 -0.10030948841E+03  0.11445874224E+03  0.00000000000E+00 0. -1.
         -3    1    6    6    0  503  0.34810365468E+03 -0.14469393789E+03 -0.13063952177E+04  0.13596988471E+04  0.00000000000E+00 0.  1.
<mgrwt>
<rscale>  0 0.16635912E+04</rscale>
<asrwt>0</asrwt>
<pdfrwt beam="1">  1        1 0.27674808E+00 0.16635912E+04</pdfrwt>
<pdfrwt beam="2">  1       -1 0.59172772E-01 0.16635912E+04</pdfrwt>
<totfact> 0.11278545E+01</totfact>
</mgrwt>
</event>
<event>
12    3  0.4773567E-008  0.2174118E+04  0.7818608E-02  0.8529279E-01
         -1   -1    0    0    0  501 -0.00000000000E+00  0.00000000000E+00  0.56963329738E+03  0.56963329738E+03  0.00000000000E+00 0. -1.
          1   -1    0    0  501    0  0.00000000000E+00 -0.00000000000E+00 -0.20744877925E+04  0.20744877925E+04  0.00000000000E+00 0.  1.
         23    2    1    2    0    0  0.16058900894E+03  0.87236260424E+03 -0.77764267579E+03  0.11827002016E+04  0.85125158001E+02 0.  0.
        254    2    1    2    0    0 -0.16058900894E+03 -0.87236260424E+03 -0.72721181936E+03  0.14614208883E+04  0.90559849800E+03 0.  0.
         23    2    4    4    0    0 -0.36697439335E+03 -0.18910319550E+03  0.20827856628E+02  0.42354039671E+03  0.92317084625E+02 0.  0.
         23    2    4    4    0    0  0.20638538441E+03 -0.68325940875E+03 -0.74803967599E+03  0.10378804916E+04  0.90521884060E+02 0.  0.
          1    1    3    3  502    0  0.15837620866E+03  0.83993949335E+03 -0.72486280859E+03  0.11207173895E+04  0.00000000000E+00 0. -1.
         -1    1    3    3    0  502  0.22128002821E+01  0.32423110891E+02 -0.52779867207E+02  0.61982812031E+02  0.00000000000E+00 0.  1.
         13    1    5    5    0    0 -0.15408416713E+03 -0.61462160924E+02 -0.33990685418E+02  0.16933663065E+03  0.00000000000E+00 0.  1.
        -13    1    5    5    0    0 -0.21289022622E+03 -0.12764103457E+03  0.54818542046E+02  0.25420376606E+03  0.00000000000E+00 0. -1.
          2    1    6    6  503    0  0.19745726147E+03 -0.64002970437E+03 -0.72847348886E+03  0.98959639074E+03  0.00000000000E+00 0. -1.
         -2    1    6    6    0  503  0.89281229451E+01 -0.43229704376E+02 -0.19566187132E+02  0.48284100889E+02  0.00000000000E+00 0.  1.
<mgrwt>
<rscale>  0 0.21741180E+04</rscale>
<asrwt>0</asrwt>
<pdfrwt beam="1">  1        1 0.31915197E+00 0.21741180E+04</pdfrwt>
<pdfrwt beam="2">  1       -1 0.87635890E-01 0.21741180E+04</pdfrwt>
<totfact> 0.31037548E+00</totfact>
</mgrwt>
</event>
<event>
12    3  0.4773567E-008  0.3662444E+04  0.7818608E-02  0.8076336E-01
          2   -1    0    0  501    0  0.00000000000E+00  0.00000000000E+00  0.35643822431E+04  0.35643822431E+04  0.00000000000E+00 0. -1.
         -2   -1    0    0    0  501 -0.00000000000E+00 -0.00000000000E+00 -0.94080065359E+03  0.94080065359E+03  0.00000000000E+00 0.  1.
         23    2    1    2    0    0 -0.20333691483E+03  0.86192528274E+03  0.30388932410E+04  0.31666898018E+04  0.93760742837E+02 0.  0.
        254    2    1    2    0    0  0.20333691483E+03 -0.86192528274E+03 -0.41531165140E+03  0.13384930949E+04  0.91368424712E+03 0.  0.
         23    2    4    4    0    0 -0.94648762309E+02  0.64893215540E+02 -0.32397273221E+03  0.35635878947E+03  0.94147426842E+02 0.  0.
         23    2    4    4    0    0  0.29798567714E+03 -0.92681849828E+03 -0.91338919181E+02  0.98213430547E+03  0.91961966510E+02 0.  0.
          2    1    3    3  502    0 -0.96645852003E+02  0.57279855131E+03  0.18978245337E+04  0.19847358922E+04  0.00000000000E+00 0. -1.
         -2    1    3    3    0  502 -0.10669106282E+03  0.28912673144E+03  0.11410687073E+04  0.11819539096E+04  0.00000000000E+00 0.  1.
         13    1    5    5    0    0 -0.68103527824E+01 -0.10953122054E+02 -0.73461871180E+00  0.12918647468E+02  0.00000000000E+00 0.  1.
        -13    1    5    5    0    0 -0.87838409526E+02  0.75846337593E+02 -0.32323811350E+03  0.34344014200E+03  0.00000000000E+00 0. -1.
          3    1    6    6  503    0  0.28995628486E+03 -0.88287569280E+03 -0.68053807117E+02  0.93175933412E+03  0.00000000000E+00 0. -1.
         -3    1    6    6    0  503  0.80293922754E+01 -0.43942805488E+02 -0.23285112065E+02  0.50374971348E+02  0.00000000000E+00 0.  1.
<mgrwt>
<rscale>  0 0.36624435E+04</rscale>
<asrwt>0</asrwt>
<pdfrwt beam="1">  1        2 0.54836649E+00 0.36624435E+04</pdfrwt>
<pdfrwt beam="2">  1       -2 0.14473856E+00 0.36624435E+04</pdfrwt>
<totfact> 0.19509468E-01</totfact>
</mgrwt>
</event>
<event>
12    3  0.4773567E-008  0.2090236E+04  0.7818608E-02  0.8565557E-01
         -1   -1    0    0    0  501 -0.00000000000E+00  0.00000000000E+00  0.11221576028E+04  0.11221576028E+04  0.00000000000E+00 0.  1.
          1   -1    0    0  501    0  0.00000000000E+00 -0.00000000000E+00 -0.97336740764E+03  0.97336740764E+03  0.00000000000E+00 0. -1.
         23    2    1    2    0    0 -0.44867274370E+03  0.30364096086E+03 -0.58704978167E+03  0.80417398461E+03  0.92538031721E+02 0.  0.
        254    2    1    2    0    0  0.44867274370E+03 -0.30364096086E+03  0.73583997681E+03  0.12913510258E+04  0.91248119779E+03 0.  0.
         23    2    4    4    0    0  0.47680344165E+03 -0.22028940565E+03 -0.11479649702E+02  0.53325035373E+03  0.91406855213E+02 0.  0.
         23    2    4    4    0    0 -0.28130697954E+02 -0.83351555207E+02  0.74731962651E+03  0.75810067208E+03  0.92147636472E+02 0.  0.
          4    1    3    3  502    0 -0.84033455809E+02  0.98184176628E+02 -0.11162963039E+03  0.17077156852E+03  0.00000000000E+00 0.  1.
         -4    1    3    3    0  502 -0.36463928789E+03  0.20545678423E+03 -0.47542015128E+03  0.63340241609E+03  0.00000000000E+00 0. -1.
         13    1    5    5    0    0  0.14402414700E+03 -0.28049150246E+02 -0.24261857389E+02  0.14872238390E+03  0.00000000000E+00 0. -1.
        -13    1    5    5    0    0  0.33277929465E+03 -0.19224025540E+03  0.12782207688E+02  0.38452796983E+03  0.00000000000E+00 0.  1.
          3    1    6    6  503    0  0.76386812607E+01 -0.83667623231E+02  0.62614871164E+03  0.63176010456E+03  0.00000000000E+00 0. -1.
         -3    1    6    6    0  503 -0.35769379215E+02  0.31606802322E+00  0.12117091487E+03  0.12634056751E+03  0.00000000000E+00 0.  1.
<mgrwt>
<rscale>  0 0.20902360E+04</rscale>
<asrwt>0</asrwt>
<pdfrwt beam="1">  1        1 0.14974883E+00 0.20902360E+04</pdfrwt>
<pdfrwt beam="2">  1       -1 0.17263963E+00 0.20902360E+04</pdfrwt>
<totfact> 0.34398578E+00</totfact>
</mgrwt>
</event>
<event>
12    3  0.4773567E-008  0.1600873E+04  0.7818608E-02  0.8820012E-01
         -2   -1    0    0    0  501 -0.00000000000E+00  0.00000000000E+00  0.10536727319E+04  0.10536727319E+04  0.00000000000E+00 0.  1.
          2   -1    0    0  501    0  0.00000000000E+00 -0.00000000000E+00 -0.60806237242E+03  0.60806237242E+03  0.00000000000E+00 0. -1.
         23    2    1    2    0    0  0.62748333444E+02  0.48458042065E+03 -0.95755909206E+02  0.50660439120E+03  0.93398488257E+02 0.  0.
        254    2    1    2    0    0 -0.62748333444E+02 -0.48458042065E+03  0.54136626872E+03  0.11551307132E+04  0.89582028897E+03 0.  0.
         23    2    4    4    0    0  0.22619194497E+03  0.84529157189E+02  0.42674936315E+03  0.49869082078E+03  0.90937018838E+02 0.  0.
         23    2    4    4    0    0 -0.28894027842E+03 -0.56910957784E+03  0.11461690557E+03  0.65643989237E+03  0.10200049594E+03 0.  0.
          2    1    3    3  502    0  0.34378845637E+02  0.38798400775E+03 -0.11045046002E+03  0.40486145707E+03  0.00000000000E+00 0. -1.
         -2    1    3    3    0  502  0.28369487807E+02  0.96596412901E+02  0.14694550810E+02  0.10174293414E+03  0.00000000000E+00 0.  1.
         13    1    5    5    0    0  0.61412152439E+02  0.59193201045E+02  0.96824195478E+02  0.12903570183E+03  0.00000000000E+00 0.  1.
        -13    1    5    5    0    0  0.16477979253E+03  0.25335956144E+02  0.32992516768E+03  0.36965511895E+03  0.00000000000E+00 0. -1.
          2    1    6    6  503    0 -0.60904216590E+02 -0.12666970562E+03  0.69089058208E+02  0.15661365166E+03  0.00000000000E+00 0.  1.
         -2    1    6    6    0  503 -0.22803606183E+03 -0.44243987222E+03  0.45527847358E+02  0.49982624071E+03  0.00000000000E+00 0. -1.
<mgrwt>
<rscale>  0 0.16008732E+04</rscale>
<asrwt>0</asrwt>
<pdfrwt beam="1">  1        2 0.93548057E-01 0.16008732E+04</pdfrwt>
<pdfrwt beam="2">  1       -2 0.16210350E+00 0.16008732E+04</pdfrwt>
<totfact> 0.11363812E+01</totfact>
</mgrwt>
</event>
<event>
12    3  0.4773567E-008  0.1543162E+04  0.7818608E-02  0.8856247E-01
          2   -1    0    0  501    0  0.00000000000E+00  0.00000000000E+00  0.23237919084E+04  0.23237919084E+04  0.00000000000E+00 0. -1.
         -2   -1    0    0    0  501 -0.00000000000E+00 -0.00000000000E+00 -0.25619219955E+03  0.25619219955E+03  0.00000000000E+00 0.  1.
         23    2    1    2    0    0 -0.10325577138E+03  0.33433997399E+03  0.81855366266E+02  0.37102400017E+03  0.92268820209E+02 0.  0.
        254    2    1    2    0    0  0.10325577138E+03 -0.33433997399E+03  0.19857443426E+04  0.22089601078E+04  0.90215253206E+03 0.  0.
         23    2    4    4    0    0  0.61614301947E+02 -0.37800209477E+03  0.20476729542E+04  0.20851543070E+04  0.90675525965E+02 0.  0.
         23    2    4    4    0    0  0.41641469434E+02  0.43662120784E+02 -0.61928611586E+02  0.12380580075E+03  0.88613377087E+02 0.  0.
          3    1    3    3  502    0  0.15895063856E+02  0.19295256217E+02  0.73692879713E+01  0.26062739163E+02  0.00000000000E+00 0. -1.
         -3    1    3    3    0  502 -0.11915083524E+03  0.31504471777E+03  0.74486078295E+02  0.34496126100E+03  0.00000000000E+00 0.  1.
         13    1    5    5    0    0  0.48341759140E+02 -0.23141356410E+03  0.14772799389E+04  0.14960765960E+04  0.00000000000E+00 0. -1.
        -13    1    5    5    0    0  0.13272542807E+02 -0.14658853067E+03  0.57039301528E+03  0.58907771100E+03  0.00000000000E+00 0.  1.
          3    1    6    6  503    0  0.55929931272E+02  0.60397455943E+02 -0.59703477348E+02  0.10168832334E+03  0.00000000000E+00 0. -1.
         -3    1    6    6    0  503 -0.14288461838E+02 -0.16735335159E+02 -0.22251342378E+01  0.22117477410E+02  0.00000000000E+00 0.  1.
<mgrwt>
<rscale>  0 0.15431622E+04</rscale>
<asrwt>0</asrwt>
<pdfrwt beam="1">  1        2 0.35750643E+00 0.15431622E+04</pdfrwt>
<pdfrwt beam="2">  1       -2 0.39414186E-01 0.15431622E+04</pdfrwt>
<totfact> 0.25802933E+01</totfact>
</mgrwt>
</event>
<event>
12    3  0.4773567E-008  0.1633344E+04  0.7818608E-02  0.8800321E-01
         -2   -1    0    0    0  501 -0.00000000000E+00  0.00000000000E+00  0.31059035563E+03  0.31059035563E+03  0.00000000000E+00 0. -1.
          2   -1    0    0  501    0  0.00000000000E+00 -0.00000000000E+00 -0.21473725201E+04  0.21473725201E+04  0.00000000000E+00 0.  1.
         23    2    1    2    0    0 -0.42885296667E+03  0.28530788479E+03 -0.44734728008E+03  0.69005027168E+03  0.10360662286E+03 0.  0.
        254    2    1    2    0    0  0.42885296667E+03 -0.28530788479E+03 -0.13894348844E+04  0.17679126040E+04  0.96419407875E+03 0.  0.
         23    2    4    4    0    0 -0.20668396676E+03 -0.18613602599E+03 -0.92344458504E+03  0.96878353657E+03  0.91797368117E+02 0.  0.
         23    2    4    4    0    0  0.63553693343E+03 -0.99171858804E+02 -0.46599029932E+03  0.79912906748E+03  0.87852467751E+02 0.  0.
          4    1    3    3  502    0 -0.43137037225E+03  0.26835678726E+03 -0.42887507370E+03  0.66485306058E+03  0.00000000000E+00 0. -1.
         -4    1    3    3    0  502  0.25174055803E+01  0.16951097532E+02 -0.18472206386E+02  0.25197211099E+02  0.00000000000E+00 0.  1.
         13    1    5    5    0    0 -0.10751337931E+03 -0.14992355951E+03 -0.52013747531E+03  0.55188693919E+03  0.00000000000E+00 0.  1.
        -13    1    5    5    0    0 -0.99170587451E+02 -0.36212466477E+02 -0.40330710973E+03  0.41689659738E+03  0.00000000000E+00 0. -1.
          1    1    6    6  503    0  0.61068857142E+03 -0.10526467815E+03 -0.42725461167E+03  0.75270690639E+03  0.00000000000E+00 0. -1.
         -1    1    6    6    0  503  0.24848362007E+02  0.60928193443E+01 -0.38735687655E+02  0.46422161088E+02  0.00000000000E+00 0.  1.
<mgrwt>
<rscale>  0 0.16333440E+04</rscale>
<asrwt>0</asrwt>
<pdfrwt beam="1">  1        2 0.33036501E+00 0.16333440E+04</pdfrwt>
<pdfrwt beam="2">  1       -2 0.47783131E-01 0.16333440E+04</pdfrwt>
<totfact> 0.21953052E+01</totfact>
</mgrwt>
</event>
<event>
12    3  0.4773567E-008  0.1240472E+04  0.7818608E-02  0.9078151E-01
         -1   -1    0    0    0  501 -0.00000000000E+00  0.00000000000E+00  0.18548031830E+03  0.18548031830E+03  0.00000000000E+00 0.  1.
          1   -1    0    0  501    0  0.00000000000E+00 -0.00000000000E+00 -0.20740337163E+04  0.20740337163E+04  0.00000000000E+00 0. -1.
         23    2    1    2    0    0  0.18187996651E+03  0.19381427238E+03 -0.60881522443E+03  0.67332294338E+03  0.10983403021E+03 0.  0.
        254    2    1    2    0    0 -0.18187996651E+03 -0.19381427238E+03 -0.12797381735E+04  0.15861910912E+04  0.89868130644E+03 0.  0.
         23    2    4    4    0    0 -0.16400734079E+03  0.37945585380E+01  0.85953719244E+02  0.20325900244E+03  0.83745887736E+02 0.  0.
         23    2    4    4    0    0 -0.17872625719E+02 -0.19760883092E+03 -0.13656918928E+04  0.13829320887E+04  0.89544040892E+02 0.  0.
          2    1    3    3  502    0  0.18128907207E+03  0.15479315272E+03 -0.44396370541E+03  0.50391509156E+03  0.00000000000E+00 0. -1.
         -2    1    3    3    0  502  0.59089443923E+00  0.39021119656E+02 -0.16485151902E+03  0.16940785182E+03  0.00000000000E+00 0.  1.
         13    1    5    5    0    0 -0.10818741135E+03 -0.36293215054E+02  0.41566258744E+02  0.12144738490E+03  0.00000000000E+00 0.  1.
        -13    1    5    5    0    0 -0.55819929440E+02  0.40087773592E+02  0.44387460500E+02  0.81811617536E+02  0.00000000000E+00 0. -1.
          3    1    6    6  503    0 -0.24785019193E+02 -0.17133766383E+02 -0.10066519175E+03  0.10507779954E+03  0.00000000000E+00 0. -1.
         -3    1    6    6    0  503  0.69123934746E+01 -0.18047506453E+03 -0.12650267010E+04  0.12778542892E+04  0.00000000000E+00 0.  1.
<mgrwt>
<rscale>  0 0.12404716E+04</rscale>
<asrwt>0</asrwt>
<pdfrwt beam="1">  1        1 0.31908213E+00 0.12404716E+04</pdfrwt>
<pdfrwt beam="2">  1       -1 0.28535432E-01 0.12404716E+04</pdfrwt>
<totfact> 0.29236565E+01</totfact>
</mgrwt>
</event>
<event>
12    3  0.4773567E-008  0.2128808E+04  0.7818608E-02  0.8548658E-01
         -1   -1    0    0    0  501 -0.00000000000E+00  0.00000000000E+00  0.62081000447E+03  0.62081000447E+03  0.00000000000E+00 0.  1.
          1   -1    0    0  501    0  0.00000000000E+00 -0.00000000000E+00 -0.18249637806E+04  0.18249637806E+04  0.00000000000E+00 0. -1.
         23    2    1    2    0    0  0.17952346145E+02  0.40443984410E+03  0.39190518720E+03  0.57067314661E+03  0.90467067404E+02 0.  0.
        254    2    1    2    0    0 -0.17952346145E+02 -0.40443984410E+03 -0.15960589633E+04  0.18751006384E+04  0.89705312869E+03 0.  0.
         23    2    4    4    0    0 -0.29790553769E+03 -0.54432008535E+03 -0.82240787732E+03  0.10343087954E+04  0.91694617412E+02 0.  0.
         23    2    4    4    0    0  0.27995319155E+03  0.13988024125E+03 -0.77365108598E+03  0.84079184303E+03  0.10224797857E+03 0.  0.
          2    1    3    3  502    0  0.41284641954E+02  0.17024311397E+03  0.12732480044E+03  0.21656117917E+03  0.00000000000E+00 0. -1.
         -2    1    3    3    0  502 -0.23332295810E+02  0.23419673013E+03  0.26458038675E+03  0.35411196744E+03  0.00000000000E+00 0.  1.
         13    1    5    5    0    0 -0.15853305884E+03 -0.30139663311E+03 -0.37576213374E+03  0.50711915991E+03  0.00000000000E+00 0.  1.
        -13    1    5    5    0    0 -0.13937247885E+03 -0.24292345224E+03 -0.44664574358E+03  0.52718963549E+03  0.00000000000E+00 0. -1.
          4    1    6    6  503    0  0.58390361143E+01 -0.13125218138E+02 -0.49063244851E+02  0.51123064162E+02  0.00000000000E+00 0. -1.
         -4    1    6    6    0  503  0.27411415543E+03  0.15300545939E+03 -0.72458784112E+03  0.78966877887E+03  0.00000000000E+00 0.  1.
<mgrwt>
<rscale>  0 0.21288079E+04</rscale>
<asrwt>0</asrwt>
<pdfrwt beam="1">  1        1 0.28076365E+00 0.21288079E+04</pdfrwt>
<pdfrwt beam="2">  1       -1 0.95509235E-01 0.21288079E+04</pdfrwt>
<totfact> 0.38019882E+00</totfact>
</mgrwt>
</event>
<event>
12    3  0.4773567E-008  0.2399928E+04  0.7818608E-02  0.8439531E-01
          2   -1    0    0  501    0  0.00000000000E+00  0.00000000000E+00  0.27627384113E+04  0.27627384113E+04  0.00000000000E+00 0. -1.
         -2   -1    0    0    0  501 -0.00000000000E+00 -0.00000000000E+00 -0.52119062009E+03  0.52119062009E+03  0.00000000000E+00 0.  1.
         23    2    1    2    0    0  0.18395197982E+03 -0.45277384001E+03  0.22076859591E+04  0.22629418785E+04  0.90477457995E+02 0.  0.
        254    2    1    2    0    0 -0.18395197982E+03  0.45277384001E+03  0.33861832072E+02  0.10209871529E+04  0.89578215072E+03 0.  0.
         23    2    4    4    0    0 -0.10291258945E+03 -0.25837797511E+03 -0.40019087881E+02  0.29568294889E+03  0.92068994676E+02 0.  0.
         23    2    4    4    0    0 -0.81039390373E+02  0.71115181512E+03  0.73880919954E+02  0.72530420396E+03  0.91123602926E+02 0.  0.
          3    1    3    3  502    0  0.92538898984E+02 -0.28752829934E+03  0.11797862259E+04  0.12178388685E+04  0.00000000000E+00 0. -1.
         -3    1    3    3    0  502  0.91413080836E+02 -0.16524554067E+03  0.10278997332E+04  0.10451030100E+04  0.00000000000E+00 0.  1.
         13    1    5    5    0    0 -0.64145954396E+02 -0.24101698082E+03 -0.43063226727E+02  0.25309747135E+03  0.00000000000E+00 0.  1.
        -13    1    5    5    0    0 -0.38766635052E+02 -0.17360994294E+02  0.30441388458E+01  0.42585477541E+02  0.00000000000E+00 0. -1.
          4    1    6    6  503    0  0.19000183429E+02  0.17273574140E+03  0.12078068138E+02  0.17419679405E+03  0.00000000000E+00 0. -1.
         -4    1    6    6    0  503 -0.10003957380E+03  0.53841607372E+03  0.61802851815E+02  0.55110740991E+03  0.00000000000E+00 0.  1.
<mgrwt>
<rscale>  0 0.23999278E+04</rscale>
<asrwt>0</asrwt>
<pdfrwt beam="1">  1        2 0.42503667E+00 0.23999278E+04</pdfrwt>
<pdfrwt beam="2">  1       -2 0.80183174E-01 0.23999278E+04</pdfrwt>
<totfact> 0.30119199E+00</totfact>
</mgrwt>
</event>
<event>
12    3  0.4773567E-008  0.1923712E+04  0.7818608E-02  0.8643143E-01
         -2   -1    0    0    0  501 -0.00000000000E+00  0.00000000000E+00  0.29794526579E+03  0.29794526579E+03  0.00000000000E+00 0.  1.
          2   -1    0    0  501    0  0.00000000000E+00 -0.00000000000E+00 -0.31051565750E+04  0.31051565750E+04  0.00000000000E+00 0. -1.
         23    2    1    2    0    0 -0.53880435039E+03 -0.39724355519E+03 -0.17368067515E+04  0.18635757196E+04  0.91127384967E+02 0.  0.
        254    2    1    2    0    0  0.53880435039E+03  0.39724355519E+03 -0.10704045577E+04  0.15395261212E+04  0.88105742759E+03 0.  0.
         23    2    4    4    0    0  0.51909870105E+03  0.28333830202E+03 -0.16265197144E+03  0.62018469812E+03  0.91811443411E+02 0.  0.
         23    2    4    4    0    0  0.19705649338E+02  0.11390525317E+03 -0.90775258626E+03  0.91934142313E+03  0.88380852613E+02 0.  0.
          1    1    3    3  502    0 -0.44905168369E+03 -0.33956823821E+03 -0.15405156613E+04  0.16401653898E+04  0.00000000000E+00 0. -1.
         -1    1    3    3    0  502 -0.89752666699E+02 -0.57675316971E+02 -0.19629109022E+03  0.22341032981E+03  0.00000000000E+00 0.  1.
         13    1    5    5    0    0  0.16580500235E+03  0.10376710956E+03 -0.97506375076E+02  0.21855526763E+03  0.00000000000E+00 0.  1.
        -13    1    5    5    0    0  0.35329369871E+03  0.17957119245E+03 -0.65145596367E+02  0.40162943048E+03  0.00000000000E+00 0. -1.
          2    1    6    6  503    0  0.32618623539E+02  0.11092708238E+03 -0.88836352543E+03  0.89585631968E+03  0.00000000000E+00 0. -1.
         -2    1    6    6    0  503 -0.12912974201E+02  0.29781707922E+01 -0.19389060828E+02  0.23485103444E+02  0.00000000000E+00 0.  1.
<mgrwt>
<rscale>  0 0.19237117E+04</rscale>
<asrwt>0</asrwt>
<pdfrwt beam="1">  1        2 0.47771643E+00 0.19237117E+04</pdfrwt>
<pdfrwt beam="2">  1       -2 0.45837730E-01 0.19237117E+04</pdfrwt>
<totfact> 0.63228010E+00</totfact>
</mgrwt>
</event>
<event>
12    3  0.4773567E-008  0.1129901E+04  0.7818608E-02  0.9176529E-01
         -2   -1    0    0    0  501 -0.00000000000E+00  0.00000000000E+00  0.11830650205E+04  0.11830650205E+04  0.00000000000E+00 0.  1.
          2   -1    0    0  501    0  0.00000000000E+00 -0.00000000000E+00 -0.26978129904E+03  0.26978129904E+03  0.00000000000E+00 0. -1.
         23    2    1    2    0    0  0.16290148456E+03  0.81938487294E+02  0.97159880462E+02  0.22537233186E+03  0.90010200670E+02 0.  0.
        254    2    1    2    0    0 -0.16290148456E+03 -0.81938487294E+02  0.81612384103E+03  0.12274739877E+04  0.89854518931E+03 0.  0.
         23    2    4    4    0    0  0.40231440907E+02 -0.27559082482E+03  0.87789670630E+03  0.92552434860E+03  0.91234978765E+02 0.  0.
         23    2    4    4    0    0 -0.20313292547E+03  0.19365233752E+03 -0.61772865275E+02  0.30194963911E+03  0.92701048732E+02 0.  0.
          3    1    3    3  502    0  0.17596497590E+02  0.40328200723E+02 -0.29194841478E+01  0.44096755988E+02  0.00000000000E+00 0. -1.
         -3    1    3    3    0  502  0.14530498697E+03  0.41610286571E+02  0.10007936461E+03  0.18127557587E+03  0.00000000000E+00 0.  1.
         13    1    5    5    0    0 -0.20613849179E+02 -0.16950447550E+03  0.51743186106E+03  0.54487836150E+03  0.00000000000E+00 0.  1.
        -13    1    5    5    0    0  0.60845290087E+02 -0.10608634932E+03  0.36046484524E+03  0.38064598710E+03  0.00000000000E+00 0. -1.
          2    1    6    6  503    0 -0.54233808225E+02  0.22825047667E+02 -0.46185589061E+02  0.74802388949E+02  0.00000000000E+00 0. -1.
         -2    1    6    6    0  503 -0.14889911725E+03  0.17082728985E+03 -0.15587276215E+02  0.22714725016E+03  0.00000000000E+00 0.  1.
<mgrwt>
<rscale>  0 0.11299006E+04</rscale>
<asrwt>0</asrwt>
<pdfrwt beam="1">  1        2 0.41504816E-01 0.11299006E+04</pdfrwt>
<pdfrwt beam="2">  1       -2 0.18201000E+00 0.11299006E+04</pdfrwt>
<totfact> 0.21496460E+01</totfact>
</mgrwt>
</event>
<event>
12    3  0.4773567E-008  0.2008848E+04  0.7818608E-02  0.8602495E-01
         -2   -1    0    0    0  501 -0.00000000000E+00  0.00000000000E+00  0.57408739164E+03  0.57408739164E+03  0.00000000000E+00 0.  1.
          2   -1    0    0  501    0  0.00000000000E+00 -0.00000000000E+00 -0.17573422321E+04  0.17573422321E+04  0.00000000000E+00 0. -1.
         23    2    1    2    0    0 -0.62456793889E+03 -0.40659110563E+03 -0.74802277993E+03  0.10627461209E+04  0.12037358805E+03 0.  0.
        254    2    1    2    0    0  0.62456793889E+03  0.40659110563E+03 -0.43523206050E+03  0.12686835028E+04  0.92990830000E+03 0.  0.
         23    2    4    4    0    0 -0.14955365293E+03  0.18895735898E+03  0.12331747969E+03  0.28526540051E+03  0.89988717692E+02 0.  0.
         23    2    4    4    0    0  0.77412159182E+03  0.21763374665E+03 -0.55854954019E+03  0.98341810232E+03  0.92221952498E+02 0.  0.
          1    1    3    3  502    0 -0.11774987354E+03 -0.43898481294E+02 -0.17982997765E+03  0.21938762554E+03  0.00000000000E+00 0.  1.
         -1    1    3    3    0  502 -0.50681806535E+03 -0.36269262433E+03 -0.56819280229E+03  0.84335849535E+03  0.00000000000E+00 0. -1.
         13    1    5    5    0    0 -0.34411712055E+02  0.99583715453E+02  0.21676247256E+02  0.10756831320E+03  0.00000000000E+00 0. -1.
        -13    1    5    5    0    0 -0.11514194087E+03  0.89373643527E+02  0.10164123244E+03  0.17769708731E+03  0.00000000000E+00 0.  1.
          4    1    6    6  503    0  0.59448794509E+03  0.12661169840E+03 -0.42901829569E+03  0.74397791437E+03  0.00000000000E+00 0. -1.
         -4    1    6    6    0  503  0.17963364673E+03  0.91022048253E+02 -0.12953124450E+03  0.23944018795E+03  0.00000000000E+00 0.  1.
<mgrwt>
<rscale>  0 0.20088484E+04</rscale>
<asrwt>0</asrwt>
<pdfrwt beam="1">  1        2 0.27036034E+00 0.20088484E+04</pdfrwt>
<pdfrwt beam="2">  1       -2 0.88321138E-01 0.20088484E+04</pdfrwt>
<totfact> 0.93369621E+00</totfact>
</mgrwt>
</event>
<event>
12    3  0.4773567E-008  0.1548837E+04  0.7818608E-02  0.8852611E-01
          2   -1    0    0  501    0  0.00000000000E+00  0.00000000000E+00  0.11245833591E+04  0.11245833591E+04  0.00000000000E+00 0. -1.
         -2   -1    0    0    0  501 -0.00000000000E+00 -0.00000000000E+00 -0.53328523091E+03  0.53328523091E+03  0.00000000000E+00 0.  1.
         23    2    1    2    0    0 -0.47410608242E+03 -0.10804398543E+02  0.39846107693E+03  0.62608941381E+03  0.91232734458E+02 0.  0.
        254    2    1    2    0    0  0.47410608242E+03  0.10804398543E+02  0.19283705124E+03  0.10317791762E+04  0.89581740754E+03 0.  0.
         23    2    4    4    0    0  0.62333463595E+03  0.11161577412E+03  0.39059934582E+03  0.74926588053E+03  0.88472376307E+02 0.  0.
         23    2    4    4    0    0 -0.14922855352E+03 -0.10081137557E+03 -0.19776229457E+03  0.28251329565E+03  0.90949120022E+02 0.  0.
          1    1    3    3  502    0 -0.27941682577E+02  0.20509429683E+02  0.39841333771E+02  0.52808202089E+02  0.00000000000E+00 0.  1.
         -1    1    3    3    0  502 -0.44616439985E+03 -0.31313828226E+02  0.35861974316E+03  0.57328121172E+03  0.00000000000E+00 0. -1.
         13    1    5    5    0    0  0.42935095316E+03  0.10225500229E+03  0.23257517843E+03  0.49888830422E+03  0.00000000000E+00 0.  1.
        -13    1    5    5    0    0  0.19398368279E+03  0.93607718281E+01  0.15802416739E+03  0.25037757631E+03  0.00000000000E+00 0. -1.
          4    1    6    6  503    0 -0.11735193810E+03 -0.37460318776E+02 -0.16073415993E+03  0.20250980971E+03  0.00000000000E+00 0. -1.
         -4    1    6    6    0  503 -0.31876615424E+02 -0.63351056796E+02 -0.37028134642E+02  0.80003485944E+02  0.00000000000E+00 0.  1.
<mgrwt>
<rscale>  0 0.15488366E+04</rscale>
<asrwt>0</asrwt>
<pdfrwt beam="1">  1        2 0.17301282E+00 0.15488366E+04</pdfrwt>
<pdfrwt beam="2">  1       -2 0.82043882E-01 0.15488366E+04</pdfrwt>
<totfact> 0.26452893E+01</totfact>
</mgrwt>
</event>
<event>
12    3  0.4773567E-008  0.1908371E+04  0.7818608E-02  0.8650701E-01
          2   -1    0    0  501    0  0.00000000000E+00  0.00000000000E+00  0.12698044958E+04  0.12698044958E+04  0.00000000000E+00 0. -1.
         -2   -1    0    0    0  501 -0.00000000000E+00 -0.00000000000E+00 -0.71701558201E+03  0.71701558201E+03  0.00000000000E+00 0.  1.
         23    2    1    2    0    0  0.23721819619E+03  0.35018858766E+03 -0.41261429737E+03  0.59988571444E+03  0.10347846378E+03 0.  0.
        254    2    1    2    0    0 -0.23721819619E+03 -0.35018858766E+03  0.96540321119E+03  0.13869343634E+04  0.90148713171E+03 0.  0.
         23    2    4    4    0    0 -0.28984375860E+03  0.20436025740E+03  0.63728649922E+03  0.73497437902E+03  0.90998552296E+02 0.  0.
         23    2    4    4    0    0  0.52625562409E+02 -0.55454884506E+03  0.32811671197E+03  0.65195998437E+03  0.84245908905E+02 0.  0.
          1    1    3    3  502    0  0.11041557354E+03  0.22266425234E+03 -0.18517090089E+03  0.30993423607E+03  0.00000000000E+00 0. -1.
         -1    1    3    3    0  502  0.12680262265E+03  0.12752433532E+03 -0.22744339648E+03  0.28995147838E+03  0.00000000000E+00 0.  1.
         13    1    5    5    0    0 -0.22771010874E+03  0.18915571055E+03  0.46538235889E+03  0.55155463593E+03  0.00000000000E+00 0. -1.
        -13    1    5    5    0    0 -0.62133649857E+02  0.15204546855E+02  0.17190414033E+03  0.18341974308E+03  0.00000000000E+00 0.  1.
          1    1    6    6  503    0  0.55851704170E+01 -0.12908507087E+03  0.11857190978E+03  0.17536660868E+03  0.00000000000E+00 0. -1.
         -1    1    6    6    0  503  0.47040391992E+02 -0.42546377420E+03  0.20954480219E+03  0.47659337570E+03  0.00000000000E+00 0.  1.
<mgrwt>
<rscale>  0 0.19083706E+04</rscale>
<asrwt>0</asrwt>
<pdfrwt beam="1">  1        2 0.19535454E+00 0.19083706E+04</pdfrwt>
<pdfrwt beam="2">  1       -2 0.11031009E+00 0.19083706E+04</pdfrwt>
<totfact> 0.10518123E+01</totfact>
</mgrwt>
</event>
<event>
12    3  0.4773567E-008  0.3246600E+04  0.7818608E-02  0.8176618E-01
          2   -1    0    0  501    0  0.00000000000E+00  0.00000000000E+00  0.29135540271E+04  0.29135540271E+04  0.00000000000E+00 0.  1.
         -2   -1    0    0    0  501 -0.00000000000E+00 -0.00000000000E+00 -0.90442905880E+03  0.90442905880E+03  0.00000000000E+00 0. -1.
         23    2    1    2    0    0  0.87839099312E+02  0.57890712708E+03  0.25533800115E+04  0.26212520215E+04  0.91452216737E+02 0.  0.
        254    2    1    2    0    0 -0.87839099312E+02 -0.57890712708E+03 -0.54425504317E+03  0.11967310644E+04  0.89056303504E+03 0.  0.
         23    2    4    4    0    0 -0.35370494177E+03 -0.12817771306E+03 -0.54113513745E+03  0.66540191329E+03  0.91628364941E+02 0.  0.
         23    2    4    4    0    0  0.26586584246E+03 -0.45072941403E+03 -0.31199057167E+01  0.53132915113E+03  0.91974356085E+02 0.  0.
          2    1    3    3  502    0  0.54189208303E+02  0.13930612822E+03  0.75111233133E+03  0.76584097692E+03  0.00000000000E+00 0.  1.
         -2    1    3    3    0  502  0.33649891009E+02  0.43960099886E+03  0.18022676801E+04  0.18554110446E+04  0.00000000000E+00 0. -1.
         13    1    5    5    0    0 -0.38540423333E+02 -0.48494021394E+02 -0.79230145265E+02  0.10057062325E+03  0.00000000000E+00 0.  1.
        -13    1    5    5    0    0 -0.31516451844E+03 -0.79683691661E+02 -0.46190499219E+03  0.56483129004E+03  0.00000000000E+00 0. -1.
          1    1    6    6  503    0  0.18090841142E+03 -0.34675046965E+03  0.32374535260E+02  0.39244343803E+03  0.00000000000E+00 0. -1.
         -1    1    6    6    0  503  0.84957431033E+02 -0.10397894438E+03 -0.35494440977E+02  0.13888571310E+03  0.00000000000E+00 0.  1.
<mgrwt>
<rscale>  0 0.32466000E+04</rscale>
<asrwt>0</asrwt>
<pdfrwt beam="1">  1        2 0.44823908E+00 0.32466000E+04</pdfrwt>
<pdfrwt beam="2">  1       -2 0.13914293E+00 0.32466000E+04</pdfrwt>
<totfact> 0.60292914E-01</totfact>
</mgrwt>
</event>
<event>
12    3  0.4773567E-008  0.2811384E+04  0.7818608E-02  0.8299743E-01
         -2   -1    0    0    0  501 -0.00000000000E+00  0.00000000000E+00  0.87711875144E+03  0.87711875144E+03  0.00000000000E+00 0.  1.
          2   -1    0    0  501    0  0.00000000000E+00 -0.00000000000E+00 -0.22527964859E+04  0.22527964859E+04  0.00000000000E+00 0. -1.
         23    2    1    2    0    0  0.10445608049E+04  0.30924497976E+03 -0.13422590126E+04  0.17311167572E+04  0.91467137726E+02 0.  0.
        254    2    1    2    0    0 -0.10445608049E+04 -0.30924497976E+03 -0.33418721799E+02  0.13987984801E+04  0.87680137105E+03 0.  0.
         23    2    4    4    0    0 -0.79349705049E+03 -0.13097484033E+03  0.36429879754E+03  0.88770826409E+03  0.92305852019E+02 0.  0.
         23    2    4    4    0    0 -0.25106375446E+03 -0.17827013943E+03 -0.39771751934E+03  0.51109021602E+03  0.90668254115E+02 0.  0.
          3    1    3    3  502    0  0.33331318633E+03  0.13179645212E+03 -0.48731031560E+03  0.60492919310E+03  0.00000000000E+00 0. -1.
         -3    1    3    3    0  502  0.71124761862E+03  0.17744852764E+03 -0.85494869701E+03  0.11261875641E+04  0.00000000000E+00 0.  1.
         13    1    5    5    0    0 -0.18269372671E+03 -0.41797247587E+02  0.45016749185E+02  0.19274468966E+03  0.00000000000E+00 0. -1.
        -13    1    5    5    0    0 -0.61080332378E+03 -0.89177592740E+02  0.31928204836E+03  0.69496357443E+03  0.00000000000E+00 0.  1.
          1    1    6    6  503    0 -0.58873144457E+02 -0.14711970230E+02 -0.12835363767E+03  0.14197586242E+03  0.00000000000E+00 0. -1.
         -1    1    6    6    0  503 -0.19219061000E+03 -0.16355816920E+03 -0.26936388167E+03  0.36911435360E+03  0.00000000000E+00 0.  1.
<mgrwt>
<rscale>  0 0.28113840E+04</rscale>
<asrwt>0</asrwt>
<pdfrwt beam="1">  1        2 0.34658407E+00 0.28113840E+04</pdfrwt>
<pdfrwt beam="2">  1       -2 0.13494135E+00 0.28113840E+04</pdfrwt>
<totfact> 0.16553520E+00</totfact>
</mgrwt>
</event>
<event>
12    3  0.4773567E-008  0.1715342E+04  0.7818608E-02  0.8752662E-01
          1   -1    0    0  501    0  0.00000000000E+00  0.00000000000E+00  0.65073229569E+03  0.65073229569E+03  0.00000000000E+00 0. -1.
         -1   -1    0    0    0  501 -0.00000000000E+00 -0.00000000000E+00 -0.11304186056E+04  0.11304186056E+04  0.00000000000E+00 0.  1.
         23    2    1    2    0    0  0.21806783874E+03 -0.29608074575E+03  0.33197379744E+03  0.50364549829E+03  0.90745773796E+02 0.  0.
        254    2    1    2    0    0 -0.21806783874E+03  0.29608074575E+03 -0.81166010739E+03  0.12775054030E+04  0.91542915324E+03 0.  0.
         23    2    4    4    0    0  0.22004946818E+03  0.43658240065E+03 -0.54697398721E+03  0.73920507912E+03  0.90651228937E+02 0.  0.
         23    2    4    4    0    0 -0.43811730692E+03 -0.14050165490E+03 -0.26468612018E+03  0.53830032393E+03  0.89560074100E+02 0.  0.
          2    1    3    3  502    0  0.10948587834E+03 -0.17921810041E+03  0.24229512498E+03  0.32064499476E+03  0.00000000000E+00 0. -1.
         -2    1    3    3    0  502  0.10858196039E+03 -0.11686264534E+03  0.89678672454E+02  0.18300050353E+03  0.00000000000E+00 0.  1.
         13    1    5    5    0    0  0.17799230140E+03  0.37571545197E+03 -0.50509824414E+03  0.65419232374E+03  0.00000000000E+00 0.  1.
        -13    1    5    5    0    0  0.42057166788E+02  0.60866948682E+02 -0.41875743068E+02  0.85012755382E+02  0.00000000000E+00 0. -1.
          4    1    6    6  503    0 -0.11869625594E+03  0.15398127084E+01 -0.57011383138E+02  0.13168701532E+03  0.00000000000E+00 0. -1.
         -4    1    6    6    0  503 -0.31942105098E+03 -0.14204146761E+03 -0.20767473704E+03  0.40661330861E+03  0.00000000000E+00 0.  1.
<mgrwt>
<rscale>  0 0.17153424E+04</rscale>
<asrwt>0</asrwt>
<pdfrwt beam="1">  1        1 0.10011266E+00 0.17153424E+04</pdfrwt>
<pdfrwt beam="2">  1       -1 0.17391055E+00 0.17153424E+04</pdfrwt>
<totfact> 0.66562727E+00</totfact>
</mgrwt>
</event>
<event>
12    3  0.4773567E-008  0.1791901E+04  0.7818608E-02  0.8710618E-01
          2   -1    0    0  501    0  0.00000000000E+00  0.00000000000E+00  0.22652352194E+04  0.22652352194E+04  0.00000000000E+00 0. -1.
         -2   -1    0    0    0  501 -0.00000000000E+00 -0.00000000000E+00 -0.35436819613E+03  0.35436819613E+03  0.00000000000E+00 0.  1.
         23    2    1    2    0    0 -0.59390983606E+02 -0.56122351022E+03  0.19097921491E+03  0.60222415031E+03  0.87759611076E+02 0.  0.
        254    2    1    2    0    0  0.59390983606E+02  0.56122351022E+03  0.17198878084E+04  0.20173792652E+04  0.89067721934E+03 0.  0.
         23    2    4    4    0    0  0.29481505877E+03  0.67344849735E+02  0.12533603353E+04  0.12925877528E+04  0.91759037309E+02 0.  0.
         23    2    4    4    0    0 -0.23542407517E+03  0.49387866048E+03  0.46652747304E+03  0.72479151240E+03  0.91291987020E+02 0.  0.
          4    1    3    3  502    0 -0.36458612581E+02 -0.66460944886E+02  0.22882886156E+02  0.79182789199E+02  0.00000000000E+00 0. -1.
         -4    1    3    3    0  502 -0.22932371025E+02 -0.49476256533E+03  0.16809632875E+03  0.52304136111E+03  0.00000000000E+00 0.  1.
         13    1    5    5    0    0  0.28375259766E+02  0.38438720768E+02  0.20847637321E+03  0.21388101554E+03  0.00000000000E+00 0. -1.
        -13    1    5    5    0    0  0.26643979901E+03  0.28906128967E+02  0.10448839621E+04  0.10787067373E+04  0.00000000000E+00 0.  1.
          3    1    6    6  503    0 -0.18964030815E+03  0.35352506603E+03  0.29197262839E+03  0.49617681779E+03  0.00000000000E+00 0. -1.
         -3    1    6    6    0  503 -0.45783767017E+02  0.14035359445E+03  0.17455484465E+03  0.22861469460E+03  0.00000000000E+00 0.  1.
<mgrwt>
<rscale>  0 0.17919010E+04</rscale>
<asrwt>0</asrwt>
<pdfrwt beam="1">  1        2 0.34849772E+00 0.17919010E+04</pdfrwt>
<pdfrwt beam="2">  1       -2 0.54518185E-01 0.17919010E+04</pdfrwt>
<totfact> 0.14197086E+01</totfact>
</mgrwt>
</event>
<event>
12    3  0.4773567E-008  0.2051109E+04  0.7818608E-02  0.8583091E-01
          2   -1    0    0  501    0  0.00000000000E+00  0.00000000000E+00  0.13871793919E+04  0.13871793919E+04  0.00000000000E+00 0.  1.
         -2   -1    0    0    0  501 -0.00000000000E+00 -0.00000000000E+00 -0.75820206174E+03  0.75820206174E+03  0.00000000000E+00 0. -1.
         23    2    1    2    0    0  0.41574728723E+03  0.70679581930E+03  0.35051205385E+03  0.89660505682E+03  0.92928956751E+02 0.  0.
        254    2    1    2    0    0 -0.41574728723E+03 -0.70679581930E+03  0.27846527634E+03  0.12487763968E+04  0.89971853496E+03 0.  0.
         23    2    4    4    0    0  0.20810206194E+03 -0.50793889046E+03  0.12745961533E+03  0.57116414018E+03  0.93135046404E+02 0.  0.
         23    2    4    4    0    0 -0.62384934917E+03 -0.19885692884E+03  0.15100566101E+03  0.67761225665E+03  0.87313069471E+02 0.  0.
          1    1    3    3  502    0  0.16101033365E+03  0.28265327883E+03  0.90333374308E+02  0.33760527557E+03  0.00000000000E+00 0. -1.
         -1    1    3    3    0  502  0.25473695359E+03  0.42414254047E+03  0.26017867954E+03  0.55899978125E+03  0.00000000000E+00 0.  1.
         13    1    5    5    0    0  0.57275770066E+02 -0.18118374904E+03  0.87068897202E+02  0.20901927569E+03  0.00000000000E+00 0.  1.
        -13    1    5    5    0    0  0.15082629187E+03 -0.32675514142E+03  0.40390718129E+02  0.36214486449E+03  0.00000000000E+00 0. -1.
          3    1    6    6  503    0 -0.29233988341E+03 -0.12579143644E+03  0.10451963794E+03  0.33497827934E+03  0.00000000000E+00 0. -1.
         -3    1    6    6    0  503 -0.33150946576E+03 -0.73065492405E+02  0.46486023063E+02  0.34263397731E+03  0.00000000000E+00 0.  1.
<mgrwt>
<rscale>  0 0.20511092E+04</rscale>
<asrwt>0</asrwt>
<pdfrwt beam="1">  1        2 0.21341221E+00 0.20511092E+04</pdfrwt>
<pdfrwt beam="2">  1       -2 0.11664647E+00 0.20511092E+04</pdfrwt>
<totfact> 0.77562049E+00</totfact>
</mgrwt>
</event>
<event>
12    3  0.4773567E-008  0.1277592E+04  0.7818608E-02  0.9047526E-01
          1   -1    0    0  501    0  0.00000000000E+00  0.00000000000E+00  0.39276588111E+03  0.39276588111E+03  0.00000000000E+00 0. -1.
         -1   -1    0    0    0  501 -0.00000000000E+00 -0.00000000000E+00 -0.10389406146E+04  0.10389406146E+04  0.00000000000E+00 0.  1.
         23    2    1    2    0    0 -0.19345762938E+03 -0.24020214329E+03 -0.92279306524E+02  0.33424408575E+03  0.89892794154E+02 0.  0.
        254    2    1    2    0    0  0.19345762938E+03  0.24020214329E+03 -0.55389542698E+03  0.10974624100E+04  0.89582401914E+03 0.  0.
         23    2    4    4    0    0  0.53710462088E+03  0.17103861520E+03 -0.43077597205E+03  0.71519401515E+03  0.90548106259E+02 0.  0.
         23    2    4    4    0    0 -0.34364699150E+03  0.69163528084E+02 -0.12311945492E+03  0.38226839482E+03  0.89965977529E+02 0.  0.
          3    1    3    3  502    0 -0.18208877339E+03 -0.24342794463E+03 -0.74661872517E+02  0.31303015962E+03  0.00000000000E+00 0. -1.
         -3    1    3    3    0  502 -0.11368855986E+02  0.32258013469E+01 -0.17617434007E+02  0.21213926128E+02  0.00000000000E+00 0.  1.
         13    1    5    5    0    0  0.32090459291E+03  0.13728820736E+03 -0.22831365543E+03  0.41707905112E+03  0.00000000000E+00 0. -1.
        -13    1    5    5    0    0  0.21620002797E+03  0.33750407847E+02 -0.20246231663E+03  0.29811496403E+03  0.00000000000E+00 0.  1.
          2    1    6    6  503    0 -0.22917192374E+02  0.30141622179E+02 -0.46964604058E+01  0.38154578156E+02  0.00000000000E+00 0.  1.
         -2    1    6    6    0  503 -0.32072979913E+03  0.39021905905E+02 -0.11842299452E+03  0.34411381666E+03  0.00000000000E+00 0. -1.
<mgrwt>
<rscale>  0 0.12775922E+04</rscale>
<asrwt>0</asrwt>
<pdfrwt beam="1">  1        1 0.60425520E-01 0.12775922E+04</pdfrwt>
<pdfrwt beam="2">  1       -1 0.15983702E+00 0.12775922E+04</pdfrwt>
<totfact> 0.17731042E+01</totfact>
</mgrwt>
</event>
<event>
12    3  0.4773567E-008  0.5032673E+04  0.7818608E-02  0.7823487E-01
         -2   -1    0    0    0  501 -0.00000000000E+00  0.00000000000E+00  0.17910606579E+04  0.17910606579E+04  0.00000000000E+00 0.  1.
          2   -1    0    0  501    0  0.00000000000E+00 -0.00000000000E+00 -0.35353070443E+04  0.35353070443E+04  0.00000000000E+00 0. -1.
         23    2    1    2    0    0  0.21932426269E+04  0.32878853798E+03  0.22206080797E+03  0.22306575143E+04  0.90037883293E+02 0.  0.
        254    2    1    2    0    0 -0.21932426269E+04 -0.32878853798E+03 -0.19663071944E+04  0.30957101879E+04  0.89366798183E+03 0.  0.
         23    2    4    4    0    0 -0.16645090902E+04 -0.47479983636E+03 -0.10581141371E+04  0.20307523541E+04  0.91237057956E+02 0.  0.
         23    2    4    4    0    0 -0.52873353668E+03  0.14601129838E+03 -0.90819305736E+03  0.10649578338E+04  0.91880935397E+02 0.  0.
          2    1    3    3  502    0  0.13600646048E+03  0.39558454223E+02  0.30337076573E+01  0.14167509299E+03  0.00000000000E+00 0. -1.
         -2    1    3    3    0  502  0.20572361664E+04  0.28923008376E+03  0.21902710031E+03  0.20889824213E+04  0.00000000000E+00 0.  1.
         13    1    5    5    0    0 -0.13412643443E+04 -0.39612536931E+03 -0.81470751484E+03  0.16185344248E+04  0.00000000000E+00 0. -1.
        -13    1    5    5    0    0 -0.32324474592E+03 -0.78674467055E+02 -0.24340662223E+03  0.41221792935E+03  0.00000000000E+00 0.  1.
          1    1    6    6  503    0 -0.39425193492E+03  0.14948232342E+03 -0.68795035252E+03  0.80687994196E+03  0.00000000000E+00 0. -1.
         -1    1    6    6    0  503 -0.13448160176E+03 -0.34710250374E+01 -0.22024270484E+03  0.25807789185E+03  0.00000000000E+00 0.  1.
<mgrwt>
<rscale>  0 0.50326730E+04</rscale>
<asrwt>0</asrwt>
<pdfrwt beam="1">  1        2 0.54389339E+00 0.50326730E+04</pdfrwt>
<pdfrwt beam="2">  1       -2 0.27554779E+00 0.50326730E+04</pdfrwt>
<totfact> 0.24939936E-02</totfact>
</mgrwt>
</event>
<event>
12    3  0.4773567E-008  0.1213368E+04  0.7818608E-02  0.9101236E-01
         -1   -1    0    0    0  501 -0.00000000000E+00  0.00000000000E+00  0.21186393564E+03  0.21186393564E+03  0.00000000000E+00 0.  1.
          1   -1    0    0  501    0  0.00000000000E+00 -0.00000000000E+00 -0.17372715643E+04  0.17372715643E+04  0.00000000000E+00 0. -1.
         23    2    1    2    0    0 -0.19055309846E+03  0.18500311076E+03 -0.52483387187E+03  0.59528256183E+03  0.91510114359E+02 0.  0.
        254    2    1    2    0    0  0.19055309846E+03 -0.18500311076E+03 -0.10005737568E+04  0.13538529381E+04  0.87248684859E+03 0.  0.
         23    2    4    4    0    0  0.31788624638E+03 -0.23626382932E+03 -0.10951753950E+04  0.11680935287E+04  0.90338714771E+02 0.  0.
         23    2    4    4    0    0 -0.12733314793E+03  0.51260718553E+02  0.94601638156E+02  0.18575940943E+03  0.81949352797E+02 0.  0.
          1    1    3    3  502    0 -0.20094647865E+03  0.17648456368E+03 -0.50147914337E+03  0.56833759310E+03  0.00000000000E+00 0. -1.
         -1    1    3    3    0  502  0.10393380193E+02  0.85185470864E+01 -0.23354728498E+02  0.26944968723E+02  0.00000000000E+00 0.  1.
         13    1    5    5    0    0  0.30798281967E+03 -0.19921004026E+03 -0.10143211405E+04  0.10786034644E+04  0.00000000000E+00 0. -1.
        -13    1    5    5    0    0  0.99034267104E+01 -0.37053789054E+02 -0.80854254429E+02  0.89490064270E+02  0.00000000000E+00 0.  1.
          1    1    6    6  503    0 -0.13343327065E+03  0.29805224556E+02  0.74341479116E+02  0.15562597677E+03  0.00000000000E+00 0. -1.
         -1    1    6    6    0  503  0.61001227251E+01  0.21455493997E+02  0.20260159041E+02  0.30133432667E+02  0.00000000000E+00 0.  1.
<mgrwt>
<rscale>  0 0.12133675E+04</rscale>
<asrwt>0</asrwt>
<pdfrwt beam="1">  1        1 0.26727254E+00 0.12133675E+04</pdfrwt>
<pdfrwt beam="2">  1       -1 0.32594453E-01 0.12133675E+04</pdfrwt>
<totfact> 0.39184423E+01</totfact>
</mgrwt>
</event>
<event>
12    3  0.4773567E-008  0.1473152E+04  0.7818608E-02  0.8902505E-01
          1   -1    0    0  501    0  0.00000000000E+00  0.00000000000E+00  0.83533926820E+03  0.83533926820E+03  0.00000000000E+00 0. -1.
         -1   -1    0    0    0  501 -0.00000000000E+00 -0.00000000000E+00 -0.64948987286E+03  0.64948987286E+03  0.00000000000E+00 0.  1.
         23    2    1    2    0    0  0.37902060853E+03  0.31837838523E+03  0.12830212170E+03  0.52245027460E+03  0.10710479508E+03 0.  0.
        254    2    1    2    0    0 -0.37902060853E+03 -0.31837838523E+03  0.57547273630E+02  0.96237886646E+03  0.82331037649E+03 0.  0.
         23    2    4    4    0    0 -0.42821517664E+03  0.13378471640E+03  0.16650103915E+03  0.48577168722E+03  0.83576002646E+02 0.  0.
         23    2    4    4    0    0  0.49194568118E+02 -0.45216310163E+03 -0.10895376552E+03  0.47660717924E+03  0.91716434035E+02 0.  0.
          2    1    3    3  502    0  0.38549301079E+03  0.30712840461E+03  0.12889685653E+03  0.50945767038E+03  0.00000000000E+00 0. -1.
         -2    1    3    3    0  502 -0.64724022614E+01  0.11249980622E+02 -0.59473482336E+00  0.12992604225E+02  0.00000000000E+00 0.  1.
         13    1    5    5    0    0 -0.35204131173E+03  0.82353851057E+02  0.15414434720E+03  0.39303399563E+03  0.00000000000E+00 0.  1.
        -13    1    5    5    0    0 -0.76173864911E+02  0.51430865339E+02  0.12356691952E+02  0.92737691588E+02  0.00000000000E+00 0. -1.
          3    1    6    6  503    0 -0.17959912858E+02 -0.15508517505E+03 -0.10326050214E+02  0.15646276651E+03  0.00000000000E+00 0. -1.
         -3    1    6    6    0  503  0.67154480976E+02 -0.29707792658E+03 -0.98627715304E+02  0.32014441273E+03  0.00000000000E+00 0.  1.
<mgrwt>
<rscale>  0 0.14731523E+04</rscale>
<asrwt>0</asrwt>
<pdfrwt beam="1">  1        1 0.12851373E+00 0.14731523E+04</pdfrwt>
<pdfrwt beam="2">  1       -1 0.99921519E-01 0.14731523E+04</pdfrwt>
<totfact> 0.19084979E+01</totfact>
</mgrwt>
</event>
<event>
12    3  0.4773567E-008  0.2589753E+04  0.7818608E-02  0.8371690E-01
         -1   -1    0    0    0  501 -0.00000000000E+00  0.00000000000E+00  0.11740786290E+04  0.11740786290E+04  0.00000000000E+00 0.  1.
          1   -1    0    0  501    0  0.00000000000E+00 -0.00000000000E+00 -0.14281034653E+04  0.14281034653E+04  0.00000000000E+00 0. -1.
         23    2    1    2    0    0 -0.75942269634E+03 -0.81033648043E+03 -0.37014549651E+03  0.11741656288E+04  0.91045000305E+02 0.  0.
        254    2    1    2    0    0  0.75942269634E+03  0.81033648043E+03  0.11612066013E+03  0.14280164655E+04  0.89015671359E+03 0.  0.
         23    2    4    4    0    0  0.91108951664E+02  0.66768684913E+03  0.25097584482E+03  0.72490366878E+03  0.91596314092E+02 0.  0.
         23    2    4    4    0    0  0.66831374468E+03  0.14264963130E+03 -0.13485518468E+03  0.70311279670E+03  0.95861908030E+02 0.  0.
          3    1    3    3  502    0 -0.60305107576E+03 -0.68534078815E+03 -0.28220322038E+03  0.95551099076E+03  0.00000000000E+00 0. -1.
         -3    1    3    3    0  502 -0.15637162059E+03 -0.12499569227E+03 -0.87942276133E+02  0.21865463806E+03  0.00000000000E+00 0.  1.
         13    1    5    5    0    0  0.49057734919E+02  0.14080047795E+03  0.30432879396E+02  0.15217620082E+03  0.00000000000E+00 0. -1.
        -13    1    5    5    0    0  0.42051216745E+02  0.52688637118E+03  0.22054296542E+03  0.57272746796E+03  0.00000000000E+00 0.  1.
          1    1    6    6  503    0  0.31843068936E+03  0.41255265587E+02 -0.10406739352E+03  0.33753536593E+03  0.00000000000E+00 0. -1.
         -1    1    6    6    0  503  0.34988305533E+03  0.10139436571E+03 -0.30787791160E+02  0.36557743077E+03  0.00000000000E+00 0.  1.
<mgrwt>
<rscale>  0 0.25897535E+04</rscale>
<asrwt>0</asrwt>
<pdfrwt beam="1">  1        1 0.21970822E+00 0.25897535E+04</pdfrwt>
<pdfrwt beam="2">  1       -1 0.18062748E+00 0.25897535E+04</pdfrwt>
<totfact> 0.13330500E+00</totfact>
</mgrwt>
</event>
<event>
12    3  0.4773567E-008  0.1042326E+04  0.7818608E-02  0.9263303E-01
         -2   -1    0    0    0  501 -0.00000000000E+00  0.00000000000E+00  0.13329684295E+03  0.13329684295E+03  0.00000000000E+00 0.  1.
          2   -1    0    0  501    0  0.00000000000E+00 -0.00000000000E+00 -0.20376400355E+04  0.20376400355E+04  0.00000000000E+00 0. -1.
         23    2    1    2    0    0  0.25290046904E+02 -0.74574895102E+02 -0.10681199450E+03  0.16032269733E+03  0.89964235426E+02 0.  0.
        254    2    1    2    0    0 -0.25290046904E+02  0.74574895102E+02 -0.17975311981E+04  0.20106141812E+04  0.89735721761E+03 0.  0.
         23    2    4    4    0    0 -0.31102030860E+03  0.92231387229E+02 -0.16352190922E+04  0.16694809815E+04  0.89358867464E+02 0.  0.
         23    2    4    4    0    0  0.28573026170E+03 -0.17656492127E+02 -0.16231210594E+03  0.34113319965E+03  0.89850464692E+02 0.  0.
          1    1    3    3  502    0 -0.29230802538E+01 -0.16741191177E-01  0.14704096804E+02  0.14991835821E+02  0.00000000000E+00 0. -1.
         -1    1    3    3    0  502  0.28213127157E+02 -0.74558153911E+02 -0.12151609131E+03  0.14533086150E+03  0.00000000000E+00 0.  1.
         13    1    5    5    0    0 -0.18915574164E+03  0.32923298747E+02 -0.11397998303E+04  0.11558579028E+04  0.00000000000E+00 0. -1.
        -13    1    5    5    0    0 -0.12186456696E+03  0.59308088482E+02 -0.49541926183E+03  0.51362307875E+03  0.00000000000E+00 0.  1.
          3    1    6    6  503    0  0.11495025873E+03 -0.22922192062E+02 -0.20296601655E+02  0.11895772741E+03  0.00000000000E+00 0. -1.
         -3    1    6    6    0  503  0.17078000296E+03  0.52656999353E+01 -0.14201550428E+03  0.22217547224E+03  0.00000000000E+00 0.  1.
<mgrwt>
<rscale>  0 0.10423262E+04</rscale>
<asrwt>0</asrwt>
<pdfrwt beam="1">  1        2 0.31348308E+00 0.10423262E+04</pdfrwt>
<pdfrwt beam="2">  1       -2 0.20507207E-01 0.10423262E+04</pdfrwt>
<totfact> 0.13013983E+02</totfact>
</mgrwt>
</event>
<event>
12    3  0.4773567E-008  0.1792030E+04  0.7818608E-02  0.8710549E-01
         -2   -1    0    0    0  501 -0.00000000000E+00  0.00000000000E+00  0.39009206282E+03  0.39009206282E+03  0.00000000000E+00 0.  1.
          2   -1    0    0  501    0  0.00000000000E+00 -0.00000000000E+00 -0.20580861675E+04  0.20580861675E+04  0.00000000000E+00 0. -1.
         23    2    1    2    0    0 -0.24899744600E+03  0.25215453360E+03  0.14443323981E+03  0.39380199676E+03  0.92937693994E+02 0.  0.
        254    2    1    2    0    0  0.24899744600E+03 -0.25215453360E+03 -0.18124273445E+04  0.20543762336E+04  0.89999288497E+03 0.  0.
         23    2    4    4    0    0  0.52328416773E+03 -0.28759029693E+03 -0.80730201233E+03  0.10083343695E+04  0.92017185868E+02 0.  0.
         23    2    4    4    0    0 -0.27428672173E+03  0.35435763335E+02 -0.10051253322E+04  0.10460418641E+04  0.86242385050E+02 0.  0.
          2    1    3    3  502    0 -0.21299238789E+02  0.64431674911E+02  0.68622098745E+01  0.68206951473E+02  0.00000000000E+00 0. -1.
         -2    1    3    3    0  502 -0.22769820721E+03  0.18772285868E+03  0.13757102994E+03  0.32559504529E+03  0.00000000000E+00 0.  1.
         13    1    5    5    0    0  0.38122587763E+03 -0.22892523627E+03 -0.65717244057E+03  0.79348317576E+03  0.00000000000E+00 0.  1.
        -13    1    5    5    0    0  0.14205829010E+03 -0.58665060660E+02 -0.15012957176E+03  0.21485119373E+03  0.00000000000E+00 0. -1.
          3    1    6    6  503    0 -0.16466597552E+03  0.17579637872E+02 -0.74525508427E+03  0.76343242517E+03  0.00000000000E+00 0. -1.
         -3    1    6    6    0  503 -0.10962074620E+03  0.17856125463E+02 -0.25987024790E+03  0.28260943890E+03  0.00000000000E+00 0.  1.
<mgrwt>
<rscale>  0 0.17920302E+04</rscale>
<asrwt>0</asrwt>
<pdfrwt beam="1">  1        2 0.31662865E+00 0.17920302E+04</pdfrwt>
<pdfrwt beam="2">  1       -2 0.60014162E-01 0.17920302E+04</pdfrwt>
<totfact> 0.15165908E+01</totfact>
</mgrwt>
</event>
<event>
12    3  0.4773567E-008  0.1421722E+04  0.7818608E-02  0.8938243E-01
          2   -1    0    0  501    0  0.00000000000E+00  0.00000000000E+00  0.31557935780E+04  0.31557935780E+04  0.00000000000E+00 0. -1.
         -2   -1    0    0    0  501 -0.00000000000E+00 -0.00000000000E+00 -0.16012559580E+03  0.16012559580E+03  0.00000000000E+00 0.  1.
         23    2    1    2    0    0  0.22608248894E+03 -0.81384735387E+02  0.10410542106E+03  0.27699300857E+03  0.90279682883E+02 0.  0.
        254    2    1    2    0    0 -0.22608248894E+03  0.81384735387E+02  0.28915625611E+04  0.30389261652E+04  0.90343866741E+03 0.  0.
         23    2    4    4    0    0  0.26982407684E+03  0.24880076859E+03  0.15650982394E+04  0.16099666062E+04  0.88051798473E+02 0.  0.
         23    2    4    4    0    0 -0.49590656578E+03 -0.16741603320E+03  0.13264643217E+04  0.14289595590E+04  0.92012903028E+02 0.  0.
          3    1    3    3  502    0  0.70342675858E+02  0.66687423070E+01  0.60078159610E+02  0.92746694998E+02  0.00000000000E+00 0. -1.
         -3    1    3    3    0  502  0.15573981308E+03 -0.88053477694E+02  0.44027261446E+02  0.18424631357E+03  0.00000000000E+00 0.  1.
         13    1    5    5    0    0  0.14313542089E+03  0.73093825971E+02  0.64807983981E+03  0.66771096657E+03  0.00000000000E+00 0. -1.
        -13    1    5    5    0    0  0.12668865595E+03  0.17570694262E+03  0.91701839963E+03  0.94225563967E+03  0.00000000000E+00 0.  1.
          4    1    6    6  503    0 -0.16889070264E+03 -0.65839499415E+02  0.58074223571E+03  0.60837525711E+03  0.00000000000E+00 0. -1.
         -4    1    6    6    0  503 -0.32701586314E+03 -0.10157653379E+03  0.74572208596E+03  0.82058430186E+03  0.00000000000E+00 0.  1.
<mgrwt>
<rscale>  0 0.14217220E+04</rscale>
<asrwt>0</asrwt>
<pdfrwt beam="1">  1        2 0.48550666E+00 0.14217220E+04</pdfrwt>
<pdfrwt beam="2">  1       -2 0.24634709E-01 0.14217220E+04</pdfrwt>
<totfact> 0.20054810E+01</totfact>
</mgrwt>
</event>
<event>
12    3  0.4773567E-008  0.1983190E+04  0.7818608E-02  0.8614520E-01
         -2   -1    0    0    0  501 -0.00000000000E+00  0.00000000000E+00  0.70519253097E+03  0.70519253097E+03  0.00000000000E+00 0.  1.
          2   -1    0    0  501    0  0.00000000000E+00 -0.00000000000E+00 -0.13943156008E+04  0.13943156008E+04  0.00000000000E+00 0. -1.
         23    2    1    2    0    0 -0.72098959089E+03  0.18256448709E+01 -0.62382526319E+03  0.95787019901E+03  0.92347365965E+02 0.  0.
        254    2    1    2    0    0  0.72098959089E+03 -0.18256448709E+01 -0.65297806659E+02  0.11416379328E+04  0.88274800644E+03 0.  0.
         23    2    4    4    0    0  0.47519193510E+03 -0.40235779610E+03  0.95355689605E+02  0.63658981013E+03  0.91949483711E+02 0.  0.
         23    2    4    4    0    0  0.24579765579E+03  0.40053215123E+03 -0.16065349626E+03  0.50504812266E+03  0.91769104689E+02 0.  0.
          4    1    3    3  502    0 -0.35516983354E+03 -0.20986690695E+02 -0.25376272800E+03  0.43701438645E+03  0.00000000000E+00 0. -1.
         -4    1    3    3    0  502 -0.36581975735E+03  0.22812335566E+02 -0.37006253520E+03  0.52085581256E+03  0.00000000000E+00 0.  1.
         13    1    5    5    0    0  0.40252742146E+03 -0.31348797358E+03  0.48145039429E+02  0.51246558853E+03  0.00000000000E+00 0. -1.
        -13    1    5    5    0    0  0.72664513639E+02 -0.88869822528E+02  0.47210650177E+02  0.12412422160E+03  0.00000000000E+00 0.  1.
          1    1    6    6  503    0 -0.41363624168E+01  0.13299211085E+02 -0.17655081439E+02  0.22487338885E+02  0.00000000000E+00 0. -1.
         -1    1    6    6    0  503  0.24993401821E+03  0.38723294015E+03 -0.14299841483E+03  0.48256078377E+03  0.00000000000E+00 0.  1.
<mgrwt>
<rscale>  0 0.19831903E+04</rscale>
<asrwt>0</asrwt>
<pdfrwt beam="1">  1        2 0.21451009E+00 0.19831903E+04</pdfrwt>
<pdfrwt beam="2">  1       -2 0.10849116E+00 0.19831903E+04</pdfrwt>
<totfact> 0.92161473E+00</totfact>
</mgrwt>
</event>
<event>
12    3  0.4773567E-008  0.3053380E+04  0.7818608E-02  0.8228650E-01
         -2   -1    0    0    0  501 -0.00000000000E+00  0.00000000000E+00  0.70855892820E+03  0.70855892820E+03  0.00000000000E+00 0.  1.
          2   -1    0    0  501    0  0.00000000000E+00 -0.00000000000E+00 -0.32894696871E+04  0.32894696871E+04  0.00000000000E+00 0. -1.
         23    2    1    2    0    0  0.11161814286E+04  0.26604024086E+02 -0.22641142642E+04  0.25260174112E+04  0.89340946515E+02 0.  0.
        254    2    1    2    0    0 -0.11161814286E+04 -0.26604024086E+02 -0.31679649466E+03  0.14720112040E+04  0.90547678609E+03 0.  0.
         23    2    4    4    0    0 -0.30638152400E+03  0.20399875239E+03  0.24899331969E+03  0.45366144743E+03  0.91246404927E+02 0.  0.
         23    2    4    4    0    0 -0.80979990460E+03 -0.23060277647E+03 -0.56578981435E+03  0.10183497566E+04  0.89244533475E+02 0.  0.
          1    1    3    3  502    0  0.76352350856E+03  0.14701360552E+02 -0.16393368180E+04  0.18084826460E+04  0.00000000000E+00 0. -1.
         -1    1    3    3    0  502  0.35265792004E+03  0.11902663533E+02 -0.62477744622E+03  0.71753476520E+03  0.00000000000E+00 0.  1.
         13    1    5    5    0    0 -0.15574629020E+03  0.14306155030E+03  0.10305441996E+03  0.23525247620E+03  0.00000000000E+00 0.  1.
        -13    1    5    5    0    0 -0.15063523380E+03  0.60937202089E+02  0.14593889973E+03  0.21840897123E+03  0.00000000000E+00 0. -1.
          3    1    6    6  503    0 -0.79975075998E+03 -0.22220205183E+03 -0.54242588298E+03  0.99156485842E+03  0.00000000000E+00 0. -1.
         -3    1    6    6    0  503 -0.10049144626E+02 -0.84007246385E+01 -0.23363931368E+02  0.26784898192E+02  0.00000000000E+00 0.  1.
<mgrwt>
<rscale>  0 0.30533805E+04</rscale>
<asrwt>0</asrwt>
<pdfrwt beam="1">  1        2 0.50607227E+00 0.30533805E+04</pdfrwt>
<pdfrwt beam="2">  1       -2 0.10900906E+00 0.30533805E+04</pdfrwt>
<totfact> 0.64737613E-01</totfact>
</mgrwt>
</event>
<event>
12    3  0.4773567E-008  0.1240766E+04  0.7818608E-02  0.9077904E-01
          4   -1    0    0  501    0  0.00000000000E+00  0.00000000000E+00  0.20698186239E+04  0.20698186239E+04  0.00000000000E+00 0. -1.
         -4   -1    0    0    0  501 -0.00000000000E+00 -0.00000000000E+00 -0.18594637139E+03  0.18594637139E+03  0.00000000000E+00 0.  1.
         23    2    1    2    0    0  0.81510363337E+02  0.19355071744E+03  0.10809245472E+03  0.25353137346E+03  0.92132290817E+02 0.  0.
        254    2    1    2    0    0 -0.81510363337E+02 -0.19355071744E+03  0.17757797978E+04  0.20022336219E+04  0.90079951522E+03 0.  0.
         23    2    4    4    0    0  0.16842398410E+03 -0.11107288425E+03  0.16996371928E+04  0.17140759111E+04  0.92659688718E+02 0.  0.
         23    2    4    4    0    0 -0.24993434744E+03 -0.82477833193E+02  0.76142605041E+02  0.28815771076E+03  0.89260287757E+02 0.  0.
          4    1    3    3  502    0  0.48379689580E+02  0.11054145374E+03  0.10383554301E+02  0.12111079869E+03  0.00000000000E+00 0.  1.
         -4    1    3    3    0  502  0.33130673757E+02  0.83009263694E+02  0.97708900414E+02  0.13242057477E+03  0.00000000000E+00 0. -1.
         13    1    5    5    0    0  0.28798703147E+02 -0.45187636369E+02  0.75558601731E+03  0.75748367463E+03  0.00000000000E+00 0. -1.
        -13    1    5    5    0    0  0.13962528095E+03 -0.65885247876E+02  0.94405117549E+03  0.95659223649E+03  0.00000000000E+00 0.  1.
          2    1    6    6  503    0 -0.28938508291E+01 -0.13476384923E+02 -0.10603326698E+02  0.17390165620E+02  0.00000000000E+00 0. -1.
         -2    1    6    6    0  503 -0.24704049661E+03 -0.69001448270E+02  0.86745931739E+02  0.27076754514E+03  0.00000000000E+00 0.  1.
<mgrwt>
<rscale>  0 0.12407663E+04</rscale>
<asrwt>0</asrwt>
<pdfrwt beam="1">  1        4 0.31843362E+00 0.12407663E+04</pdfrwt>
<pdfrwt beam="2">  1       -4 0.28607136E-01 0.12407663E+04</pdfrwt>
<totfact> 0.55616399E-01</totfact>
</mgrwt>
</event>
<event>
12    3  0.4773567E-008  0.1801134E+04  0.7818608E-02  0.8705696E-01
         -2   -1    0    0    0  501 -0.00000000000E+00  0.00000000000E+00  0.51158327744E+03  0.51158327744E+03  0.00000000000E+00 0.  1.
          2   -1    0    0  501    0  0.00000000000E+00 -0.00000000000E+00 -0.15853163880E+04  0.15853163880E+04  0.00000000000E+00 0. -1.
         23    2    1    2    0    0  0.15925376144E+03  0.64711873474E+03 -0.29139874234E+03  0.73309882255E+03  0.91630994772E+02 0.  0.
        254    2    1    2    0    0 -0.15925376144E+03 -0.64711873474E+03 -0.78233436819E+03  0.13638008429E+04  0.89653848659E+03 0.  0.
         23    2    4    4    0    0  0.50684268761E+02  0.16650806769E+03 -0.38080011231E+03  0.42842250837E+03  0.90792557148E+02 0.  0.
         23    2    4    4    0    0 -0.20993803020E+03 -0.81362680243E+03 -0.40153425588E+03  0.93537833449E+03  0.87408923092E+02 0.  0.
          3    1    3    3  502    0 -0.10484066642E+02  0.79027236183E+02 -0.37973008574E+02  0.88301580350E+02  0.00000000000E+00 0. -1.
         -3    1    3    3    0  502  0.16973782808E+03  0.56809149855E+03 -0.25342573377E+03  0.64479724220E+03  0.00000000000E+00 0.  1.
         13    1    5    5    0    0 -0.23275040631E+02  0.15379207261E+02 -0.48402323694E+02  0.55866201511E+02  0.00000000000E+00 0. -1.
        -13    1    5    5    0    0  0.73959309392E+02  0.15112886043E+03 -0.33239778862E+03  0.37255630686E+03  0.00000000000E+00 0.  1.
          2    1    6    6  503    0 -0.71853717516E+02 -0.40131299388E+03 -0.22875362044E+03  0.46748614380E+03  0.00000000000E+00 0. -1.
         -2    1    6    6    0  503 -0.13808431268E+03 -0.41231380854E+03 -0.17278063543E+03  0.46789219069E+03  0.00000000000E+00 0.  1.
<mgrwt>
<rscale>  0 0.18011345E+04</rscale>
<asrwt>0</asrwt>
<pdfrwt beam="1">  1        2 0.24389482E+00 0.18011345E+04</pdfrwt>
<pdfrwt beam="2">  1       -2 0.78705121E-01 0.18011345E+04</pdfrwt>
<totfact> 0.15383207E+01</totfact>
</mgrwt>
</event>
<event>
12    3  0.4773567E-008  0.2017063E+04  0.7818608E-02  0.8598684E-01
         -2   -1    0    0    0  501 -0.00000000000E+00  0.00000000000E+00  0.66048547671E+03  0.66048547671E+03  0.00000000000E+00 0.  1.
          2   -1    0    0  501    0  0.00000000000E+00 -0.00000000000E+00 -0.15399821992E+04  0.15399821992E+04  0.00000000000E+00 0. -1.
         23    2    1    2    0    0  0.76086869564E+03 -0.12769777847E+03 -0.58718232111E+03  0.97361809956E+03  0.89001297315E+02 0.  0.
        254    2    1    2    0    0 -0.76086869564E+03  0.12769777847E+03 -0.29231440137E+03  0.12268495763E+04  0.90801116683E+03 0.  0.
         23    2    4    4    0    0  0.44157597551E+01 -0.26408957154E+03 -0.22593133647E+03  0.35982600987E+03  0.93096658621E+02 0.  0.
         23    2    4    4    0    0 -0.76528445540E+03  0.39178735001E+03 -0.66383064901E+02  0.86702356648E+03  0.90363312349E+02 0.  0.
          2    1    3    3  502    0  0.65240744130E+03 -0.13742982112E+03 -0.48697409050E+03  0.82563078311E+03  0.00000000000E+00 0.  1.
         -2    1    3    3    0  502  0.10846125435E+03  0.97320426496E+01 -0.10020823061E+03  0.14798731645E+03  0.00000000000E+00 0. -1.
         13    1    5    5    0    0  0.30248881869E+02 -0.32953694570E+02 -0.19296272140E+02  0.48716393120E+02  0.00000000000E+00 0.  1.
        -13    1    5    5    0    0 -0.25833122114E+02 -0.23113587697E+03 -0.20663506433E+03  0.31110961675E+03  0.00000000000E+00 0. -1.
          4    1    6    6  503    0 -0.40797895516E+03  0.21176465017E+03 -0.80598987126E+02  0.46667685998E+03  0.00000000000E+00 0. -1.
         -4    1    6    6    0  503 -0.35730550024E+03  0.18002269984E+03  0.14215922225E+02  0.40034670650E+03  0.00000000000E+00 0.  1.
<mgrwt>
<rscale>  0 0.20170631E+04</rscale>
<asrwt>0</asrwt>
<pdfrwt beam="1">  1        2 0.23692034E+00 0.20170631E+04</pdfrwt>
<pdfrwt beam="2">  1       -2 0.10161315E+00 0.20170631E+04</pdfrwt>
<totfact> 0.88912937E+00</totfact>
</mgrwt>
</event>
<event>
12    3  0.4773567E-008  0.3218633E+04  0.7818608E-02  0.8183913E-01
          2   -1    0    0  501    0  0.00000000000E+00  0.00000000000E+00  0.12015737075E+04  0.12015737075E+04  0.00000000000E+00 0.  1.
         -2   -1    0    0    0  501 -0.00000000000E+00 -0.00000000000E+00 -0.21554235078E+04  0.21554235078E+04  0.00000000000E+00 0. -1.
         23    2    1    2    0    0  0.38698968112E+03  0.14251718376E+04 -0.50898002768E+03  0.15650183954E+04  0.96675381546E+02 0.  0.
        254    2    1    2    0    0 -0.38698968112E+03 -0.14251718376E+04 -0.44486977256E+03  0.17919788200E+04  0.91236133016E+03 0.  0.
         23    2    4    4    0    0 -0.98394220082E+02  0.93831984841E+02 -0.13404995408E+03  0.21220025428E+03  0.92594242808E+02 0.  0.
         23    2    4    4    0    0 -0.28859546104E+03 -0.15190038224E+04 -0.31081981848E+03  0.15797785657E+04  0.91822679295E+02 0.  0.
          3    1    3    3  502    0  0.25404670667E+03  0.93600968240E+03 -0.28538088368E+03  0.10109876871E+04  0.00000000000E+00 0. -1.
         -3    1    3    3    0  502  0.13294297445E+03  0.48916215515E+03 -0.22359914400E+03  0.55403070825E+03  0.00000000000E+00 0.  1.
         13    1    5    5    0    0 -0.23222199104E+02  0.64907501798E+02 -0.18548887462E+02  0.71388483294E+02  0.00000000000E+00 0.  1.
        -13    1    5    5    0    0 -0.75172020978E+02  0.28924483043E+02 -0.11550106662E+03  0.14081177098E+03  0.00000000000E+00 0. -1.
          4    1    6    6  503    0 -0.10052549048E+03 -0.58430648975E+03 -0.16360638929E+03  0.61504999701E+03  0.00000000000E+00 0.  1.
         -4    1    6    6    0  503 -0.18806997056E+03 -0.93469733264E+03 -0.14721342919E+03  0.96472856867E+03  0.00000000000E+00 0. -1.
<mgrwt>
<rscale>  0 0.32186334E+04</rscale>
<asrwt>0</asrwt>
<pdfrwt beam="1">  1        2 0.18485750E+00 0.32186334E+04</pdfrwt>
<pdfrwt beam="2">  1       -2 0.33160361E+00 0.32186334E+04</pdfrwt>
<totfact> 0.32228236E-01</totfact>
</mgrwt>
</event>
<event>
12    3  0.4773567E-008  0.2083102E+04  0.7818608E-02  0.8568724E-01
         -2   -1    0    0    0  501 -0.00000000000E+00  0.00000000000E+00  0.62404987388E+03  0.62404987388E+03  0.00000000000E+00 0. -1.
          2   -1    0    0  501    0  0.00000000000E+00 -0.00000000000E+00 -0.17383679932E+04  0.17383679932E+04  0.00000000000E+00 0.  1.
         23    2    1    2    0    0 -0.11991028253E+03  0.61006733166E+03 -0.11029273497E+04  0.12683525252E+04  0.75556365057E+02 0.  0.
        254    2    1    2    0    0  0.11991028253E+03 -0.61006733166E+03 -0.11390769631E+02  0.10940653420E+04  0.90016031784E+03 0.  0.
         23    2    4    4    0    0  0.15950915488E+03 -0.77037482904E+03  0.19486024709E+03  0.81567553421E+03  0.91845051588E+02 0.  0.
         23    2    4    4    0    0 -0.39598872355E+02  0.16030749738E+03 -0.20625101672E+03  0.27838980774E+03  0.87720229958E+02 0.  0.
          3    1    3    3  502    0 -0.29237526965E+02  0.22671929719E+03 -0.33956731994E+03  0.40934391099E+03  0.00000000000E+00 0. -1.
         -3    1    3    3    0  502 -0.90672755560E+02  0.38334803448E+03 -0.76336002979E+03  0.85900861417E+03  0.00000000000E+00 0.  1.
         13    1    5    5    0    0  0.43365508905E+02 -0.31371906680E+03  0.11947851655E+03  0.33848978737E+03  0.00000000000E+00 0. -1.
        -13    1    5    5    0    0  0.11614364598E+03 -0.45665576225E+03  0.75381730545E+02  0.47718574685E+03  0.00000000000E+00 0.  1.
          1    1    6    6  503    0 -0.57133026230E+02  0.11218638482E+03 -0.10123462999E+03  0.16155004777E+03  0.00000000000E+00 0. -1.
         -1    1    6    6    0  503  0.17534153874E+02  0.48121112558E+02 -0.10501638674E+03  0.11683975997E+03  0.00000000000E+00 0.  1.
<mgrwt>
<rscale>  0 0.20831018E+04</rscale>
<asrwt>0</asrwt>
<pdfrwt beam="1">  1        2 0.26744122E+00 0.20831018E+04</pdfrwt>
<pdfrwt beam="2">  1       -2 0.96007675E-01 0.20831018E+04</pdfrwt>
<totfact> 0.78342322E+00</totfact>
</mgrwt>
</event>
<event>
12    3  0.4773567E-008  0.1559231E+04  0.7818608E-02  0.8845993E-01
          1   -1    0    0  501    0  0.00000000000E+00  0.00000000000E+00  0.19628035959E+04  0.19628035959E+04  0.00000000000E+00 0. -1.
         -1   -1    0    0    0  501 -0.00000000000E+00 -0.00000000000E+00 -0.30965929797E+03  0.30965929797E+03  0.00000000000E+00 0.  1.
         23    2    1    2    0    0  0.79025850724E+02  0.41101548072E+02 -0.18041787300E+03  0.21939940422E+03  0.87470379776E+02 0.  0.
        254    2    1    2    0    0 -0.79025850724E+02 -0.41101548072E+02  0.18335621709E+04  0.20530634896E+04  0.91933945605E+03 0.  0.
         23    2    4    4    0    0 -0.28036925164E+03  0.35565825551E+03  0.10634958117E+04  0.11595070083E+04  0.91287725686E+02 0.  0.
         23    2    4    4    0    0  0.20134340092E+03 -0.39675980358E+03  0.77006635920E+03  0.89355648128E+03  0.86507114393E+02 0.  0.
          3    1    3    3  502    0  0.24553458169E+02 -0.26990233549E+02 -0.40301045820E+02  0.54364688073E+02  0.00000000000E+00 0. -1.
         -3    1    3    3    0  502  0.54472392555E+02  0.68091781621E+02 -0.14011682718E+03  0.16503471615E+03  0.00000000000E+00 0.  1.
         13    1    5    5    0    0 -0.11063111858E+03  0.14003127996E+03  0.53553485449E+03  0.56448700972E+03  0.00000000000E+00 0. -1.
        -13    1    5    5    0    0 -0.16973813306E+03  0.21562697555E+03  0.52796095722E+03  0.59501999862E+03  0.00000000000E+00 0.  1.
          1    1    6    6  503    0  0.13002408159E+02 -0.60843684192E+02  0.16485840119E+03  0.17620814103E+03  0.00000000000E+00 0. -1.
         -1    1    6    6    0  503  0.18834099276E+03 -0.33591611939E+03  0.60520795801E+03  0.71734834025E+03  0.00000000000E+00 0.  1.
<mgrwt>
<rscale>  0 0.15592311E+04</rscale>
<asrwt>0</asrwt>
<pdfrwt beam="1">  1        1 0.30196978E+00 0.15592311E+04</pdfrwt>
<pdfrwt beam="2">  1       -1 0.47639893E-01 0.15592311E+04</pdfrwt>
<totfact> 0.13383640E+01</totfact>
</mgrwt>
</event>
<event>
12    3  0.4773567E-008  0.1792854E+04  0.7818608E-02  0.8710109E-01
          1   -1    0    0  501    0  0.00000000000E+00  0.00000000000E+00  0.80789826551E+03  0.80789826551E+03  0.00000000000E+00 0. -1.
         -1   -1    0    0    0  501 -0.00000000000E+00 -0.00000000000E+00 -0.99465634080E+03  0.99465634080E+03  0.00000000000E+00 0.  1.
         23    2    1    2    0    0 -0.32997712314E+03  0.54241332709E+03 -0.27800255220E+03  0.69928003431E+03  0.92790237362E+02 0.  0.
        254    2    1    2    0    0  0.32997712314E+03 -0.54241332709E+03  0.91244476917E+02  0.11032745720E+04  0.89765923793E+03 0.  0.
         23    2    4    4    0    0  0.66927008152E+02 -0.70857371694E+03  0.22407942944E+03  0.75182784749E+03  0.92073800848E+02 0.  0.
         23    2    4    4    0    0  0.26305011499E+03  0.16616038985E+03 -0.13283495252E+03  0.35144672451E+03  0.95210489985E+02 0.  0.
          4    1    3    3  502    0 -0.28926634779E+03  0.46663899944E+03 -0.20363583670E+03  0.58557196804E+03  0.00000000000E+00 0. -1.
         -4    1    3    3    0  502 -0.40710775351E+02  0.75774327649E+02 -0.74366715503E+02  0.11370806627E+03  0.00000000000E+00 0.  1.
         13    1    5    5    0    0 -0.23495281822E+01 -0.86194568939E+02  0.58125846141E+02  0.10398864355E+03  0.00000000000E+00 0.  1.
        -13    1    5    5    0    0  0.69276536334E+02 -0.62237914800E+03  0.16595358330E+03  0.64783920394E+03  0.00000000000E+00 0. -1.
          1    1    6    6  503    0  0.22046897284E+03  0.12532315393E+03 -0.65500093349E+02  0.26192121549E+03  0.00000000000E+00 0. -1.
         -1    1    6    6    0  503  0.42581142150E+02  0.40837235918E+02 -0.67334859174E+02  0.89525509014E+02  0.00000000000E+00 0.  1.
<mgrwt>
<rscale>  0 0.17928537E+04</rscale>
<asrwt>0</asrwt>
<pdfrwt beam="1">  1        1 0.12429204E+00 0.17928537E+04</pdfrwt>
<pdfrwt beam="2">  1       -1 0.15302405E+00 0.17928537E+04</pdfrwt>
<totfact> 0.67916238E+00</totfact>
</mgrwt>
</event>
<event>
12    3  0.4773567E-008  0.1136447E+04  0.7818608E-02  0.9170379E-01
         -2   -1    0    0    0  501 -0.00000000000E+00  0.00000000000E+00  0.22810583121E+04  0.22810583121E+04  0.00000000000E+00 0.  1.
          2   -1    0    0  501    0  0.00000000000E+00 -0.00000000000E+00 -0.14154736308E+03  0.14154736308E+03  0.00000000000E+00 0. -1.
         23    2    1    2    0    0  0.75174624778E+02  0.18247477860E+03  0.63448392907E+03  0.67047097007E+03  0.89516458966E+02 0.  0.
        254    2    1    2    0    0 -0.75174624778E+02 -0.18247477860E+03  0.15050270200E+04  0.17521347052E+04  0.87516936936E+03 0.  0.
         23    2    4    4    0    0  0.27889730858E+03  0.17971635665E+03  0.36780473014E+03  0.50375031842E+03  0.91664530875E+02 0.  0.
         23    2    4    4    0    0 -0.35407193336E+03 -0.36219113525E+03  0.11372222899E+04  0.12483843867E+04  0.92949922226E+02 0.  0.
          2    1    3    3  502    0  0.55313312562E+02  0.77243029493E+02  0.42156567084E+03  0.43213847663E+03  0.00000000000E+00 0. -1.
         -2    1    3    3    0  502  0.19861312215E+02  0.10523174911E+03  0.21291825822E+03  0.23833249344E+03  0.00000000000E+00 0.  1.
         13    1    5    5    0    0  0.26944993325E+03  0.18602560680E+03  0.36774837096E+03  0.49238974122E+03  0.00000000000E+00 0.  1.
        -13    1    5    5    0    0  0.94473753335E+01 -0.63092501509E+01  0.56359179484E-01  0.11360577209E+02  0.00000000000E+00 0. -1.
          4    1    6    6  503    0 -0.21325717653E+03 -0.20564680704E+03  0.55268817302E+03  0.62708328728E+03  0.00000000000E+00 0.  1.
         -4    1    6    6    0  503 -0.14081475682E+03 -0.15654432822E+03  0.58453411684E+03  0.62130109945E+03  0.00000000000E+00 0. -1.
<mgrwt>
<rscale>  0 0.11364467E+04</rscale>
<asrwt>0</asrwt>
<pdfrwt beam="1">  1        2 0.21776519E-01 0.11364467E+04</pdfrwt>
<pdfrwt beam="2">  1       -2 0.35093202E+00 0.11364467E+04</pdfrwt>
<totfact> 0.39832661E+00</totfact>
</mgrwt>
</event>
<event>
12    3  0.4773567E-008  0.1425049E+04  0.7818608E-02  0.8935884E-01
         -1   -1    0    0    0  501 -0.00000000000E+00  0.00000000000E+00  0.31934924683E+03  0.31934924683E+03  0.00000000000E+00 0. -1.
          1   -1    0    0  501    0  0.00000000000E+00 -0.00000000000E+00 -0.15897681544E+04  0.15897681544E+04  0.00000000000E+00 0.  1.
         23    2    1    2    0    0 -0.63750765683E+02 -0.20172317676E+03 -0.83672180472E+03  0.87144700579E+03  0.12066526110E+03 0.  0.
        254    2    1    2    0    0  0.63750765683E+02  0.20172317676E+03 -0.43369710281E+03  0.10376703954E+04  0.91864589062E+03 0.  0.
         23    2    4    4    0    0 -0.84823743017E+02  0.14255671434E+02 -0.67415510633E+03  0.68604485300E+03  0.93670386944E+02 0.  0.
         23    2    4    4    0    0  0.14857450870E+03  0.18746750533E+03  0.24045800351E+03  0.35162554241E+03  0.92747077774E+02 0.  0.
          1    1    3    3  502    0 -0.11052559879E+02  0.44833863874E+01 -0.19473607300E+03  0.19510099426E+03  0.00000000000E+00 0. -1.
         -1    1    3    3    0  502 -0.52698205804E+02 -0.20620656315E+03 -0.64198573173E+03  0.67634601154E+03  0.00000000000E+00 0.  1.
         13    1    5    5    0    0 -0.14242615699E+02 -0.34421687147E+02 -0.29341671035E+03  0.29577199083E+03  0.00000000000E+00 0. -1.
        -13    1    5    5    0    0 -0.70581127318E+02  0.48677358581E+02 -0.38073839597E+03  0.39027286216E+03  0.00000000000E+00 0.  1.
          2    1    6    6  503    0  0.13626626783E+03  0.16988618076E+03  0.16515499032E+03  0.27332394880E+03  0.00000000000E+00 0. -1.
         -2    1    6    6    0  503  0.12308240875E+02  0.17581324572E+02  0.75303013189E+02  0.78301593614E+02  0.00000000000E+00 0.  1.
<mgrwt>
<rscale>  0 0.14250491E+04</rscale>
<asrwt>0</asrwt>
<pdfrwt beam="1">  1        1 0.24457971E+00 0.14250491E+04</pdfrwt>
<pdfrwt beam="2">  1       -1 0.49130654E-01 0.14250491E+04</pdfrwt>
<totfact> 0.22904403E+01</totfact>
</mgrwt>
</event>
<event>
12    3  0.4773567E-008  0.1214112E+04  0.7818608E-02  0.9100593E-01
          1   -1    0    0  501    0  0.00000000000E+00  0.00000000000E+00  0.16221980206E+04  0.16221980206E+04  0.00000000000E+00 0. -1.
         -1   -1    0    0    0  501 -0.00000000000E+00 -0.00000000000E+00 -0.22717155442E+03  0.22717155442E+03  0.00000000000E+00 0.  1.
         23    2    1    2    0    0 -0.96299410313E+02 -0.20837210934E+03  0.14634479797E+03  0.28756750932E+03  0.92659377010E+02 0.  0.
        254    2    1    2    0    0  0.96299410313E+02  0.20837210934E+03  0.12486816683E+04  0.15618020657E+04  0.90957532485E+03 0.  0.
         23    2    4    4    0    0 -0.21788734860E+03  0.52999770850E+02  0.11646349798E+04  0.11894018642E+04  0.89544881965E+02 0.  0.
         23    2    4    4    0    0  0.31418675891E+03  0.15537233849E+03  0.84046688429E+02  0.37240020157E+03  0.93617205979E+02 0.  0.
          2    1    3    3  502    0 -0.50462919773E+02 -0.12855263174E+03  0.13785688154E+03  0.19513278860E+03  0.00000000000E+00 0. -1.
         -2    1    3    3    0  502 -0.45836490539E+02 -0.79819477600E+02  0.84879164279E+01  0.92434720720E+02  0.00000000000E+00 0.  1.
         13    1    5    5    0    0 -0.17059615032E+03  0.56315294998E+02  0.71296124031E+03  0.73524702594E+03  0.00000000000E+00 0.  1.
        -13    1    5    5    0    0 -0.47291198272E+02 -0.33155241486E+01  0.45167373951E+03  0.45415483824E+03  0.00000000000E+00 0. -1.
          4    1    6    6  503    0  0.61785782500E+02  0.70996730616E+02  0.41620285644E+02  0.10290902222E+03  0.00000000000E+00 0. -1.
         -4    1    6    6    0  503  0.25240097641E+03  0.84375607873E+02  0.42426402785E+02  0.26949117935E+03  0.00000000000E+00 0.  1.
<mgrwt>
<rscale>  0 0.12141124E+04</rscale>
<asrwt>0</asrwt>
<pdfrwt beam="1">  1        1 0.24956892E+00 0.12141124E+04</pdfrwt>
<pdfrwt beam="2">  1       -1 0.34949471E-01 0.12141124E+04</pdfrwt>
<totfact> 0.41445701E+01</totfact>
</mgrwt>
</event>
<event>
12    3  0.4773567E-008  0.1877642E+04  0.7818608E-02  0.8666066E-01
          2   -1    0    0  501    0  0.00000000000E+00  0.00000000000E+00  0.99023814483E+03  0.99023814483E+03  0.00000000000E+00 0. -1.
         -2   -1    0    0    0  501 -0.00000000000E+00 -0.00000000000E+00 -0.89007384918E+03  0.89007384918E+03  0.00000000000E+00 0.  1.
         23    2    1    2    0    0 -0.29684782230E+03 -0.16389087480E+03  0.67017739161E+03  0.75657242776E+03  0.91023369373E+02 0.  0.
        254    2    1    2    0    0  0.29684782230E+03  0.16389087480E+03 -0.57001309596E+03  0.11237395662E+04  0.90713661304E+03 0.  0.
         23    2    4    4    0    0 -0.19477663698E+03 -0.20485796540E+03 -0.25659604533E+02  0.29802866434E+03  0.90873236762E+02 0.  0.
         23    2    4    4    0    0  0.49162445928E+03  0.36874884020E+03 -0.54435349143E+03  0.82571090190E+03  0.88359797290E+02 0.  0.
          4    1    3    3  502    0 -0.24628041088E+03 -0.97806486192E+02  0.46573684548E+03  0.53584602150E+03  0.00000000000E+00 0. -1.
         -4    1    3    3    0  502 -0.50567411417E+02 -0.66084388608E+02  0.20444054614E+03  0.22072640626E+03  0.00000000000E+00 0.  1.
         13    1    5    5    0    0 -0.20336181277E+03 -0.19886066259E+03 -0.31273885498E+02  0.28614619679E+03  0.00000000000E+00 0. -1.
        -13    1    5    5    0    0  0.85851757912E+01 -0.59973028092E+01  0.56142809653E+01  0.11882467551E+02  0.00000000000E+00 0.  1.
          1    1    6    6  503    0  0.39106326261E+03  0.33077712394E+03 -0.46856277781E+03  0.69418661600E+03  0.00000000000E+00 0. -1.
         -1    1    6    6    0  503  0.10056119667E+03  0.37971716268E+02 -0.75790713617E+02  0.13152428590E+03  0.00000000000E+00 0.  1.
<mgrwt>
<rscale>  0 0.18776422E+04</rscale>
<asrwt>0</asrwt>
<pdfrwt beam="1">  1        2 0.15234433E+00 0.18776422E+04</pdfrwt>
<pdfrwt beam="2">  1       -2 0.13693444E+00 0.18776422E+04</pdfrwt>
<totfact> 0.91203054E+00</totfact>
</mgrwt>
</event>
<event>
12    3  0.4773567E-008  0.2520158E+04  0.7818608E-02  0.8395839E-01
         -2   -1    0    0    0  501 -0.00000000000E+00  0.00000000000E+00  0.78261475365E+03  0.78261475365E+03  0.00000000000E+00 0.  1.
          2   -1    0    0  501    0  0.00000000000E+00 -0.00000000000E+00 -0.20288379397E+04  0.20288379397E+04  0.00000000000E+00 0. -1.
         23    2    1    2    0    0  0.34540548061E+03 -0.42885495728E+03  0.51431792616E+03  0.75893145541E+03  0.90733149496E+02 0.  0.
        254    2    1    2    0    0 -0.34540548061E+03  0.42885495728E+03 -0.17605411122E+04  0.20525212379E+04  0.90006494432E+03 0.  0.
         23    2    4    4    0    0  0.21745381465E+02  0.61979246222E+03 -0.95087860019E+03  0.11387243551E+04  0.88924050781E+02 0.  0.
         23    2    4    4    0    0 -0.36715086208E+03 -0.19093750494E+03 -0.80966251202E+03  0.91379688282E+03  0.90633731932E+02 0.  0.
          4    1    3    3  502    0  0.13162693382E+03 -0.12923934629E+03  0.12299346139E+03  0.22171118574E+03  0.00000000000E+00 0. -1.
         -4    1    3    3    0  502  0.21377854679E+03 -0.29961561099E+03  0.39132446477E+03  0.53722026967E+03  0.00000000000E+00 0.  1.
         13    1    5    5    0    0  0.14476640141E+02  0.12001423747E+03 -0.12897481139E+03  0.17676960224E+03  0.00000000000E+00 0. -1.
        -13    1    5    5    0    0  0.72687413240E+01  0.49977822475E+03 -0.82190378880E+03  0.96195475287E+03  0.00000000000E+00 0.  1.
          3    1    6    6  503    0 -0.26449561128E+01  0.69174047759E+01 -0.27480089136E+02  0.28460526710E+02  0.00000000000E+00 0. -1.
         -3    1    6    6    0  503 -0.36450590596E+03 -0.19785490971E+03 -0.78218242288E+03  0.88533635611E+03  0.00000000000E+00 0.  1.
<mgrwt>
<rscale>  0 0.25201575E+04</rscale>
<asrwt>0</asrwt>
<pdfrwt beam="1">  1        2 0.31212891E+00 0.25201575E+04</pdfrwt>
<pdfrwt beam="2">  1       -2 0.12040227E+00 0.25201575E+04</pdfrwt>
<totfact> 0.30189472E+00</totfact>
</mgrwt>
</event>
<event>
12    3  0.4773567E-008  0.1760049E+04  0.7818608E-02  0.8727838E-01
         -2   -1    0    0    0  501 -0.00000000000E+00  0.00000000000E+00  0.40366212908E+03  0.40366212908E+03  0.00000000000E+00 0.  1.
          2   -1    0    0  501    0  0.00000000000E+00 -0.00000000000E+00 -0.19185433193E+04  0.19185433193E+04  0.00000000000E+00 0. -1.
         23    2    1    2    0    0  0.17652140402E+03 -0.60903406428E+03 -0.46811869745E+03  0.79342219941E+03  0.91111876750E+02 0.  0.
        254    2    1    2    0    0 -0.17652140402E+03  0.60903406428E+03 -0.10467624928E+04  0.15287832490E+04  0.91617913562E+03 0.  0.
         23    2    4    4    0    0  0.21427366498E+03  0.62879182957E+03 -0.84779421128E+03  0.10805671483E+04  0.87051529384E+02 0.  0.
         23    2    4    4    0    0 -0.39079506900E+03 -0.19757765289E+02 -0.19896828150E+03  0.44821610073E+03  0.90543584356E+02 0.  0.
          2    1    3    3  502    0  0.14076899259E+03 -0.44410388117E+03 -0.38948062599E+03  0.60723910000E+03  0.00000000000E+00 0. -1.
         -2    1    3    3    0  502  0.35752411427E+02 -0.16493018311E+03 -0.78638071460E+02  0.18618309941E+03  0.00000000000E+00 0.  1.
         13    1    5    5    0    0  0.12876022782E+03  0.40088216369E+03 -0.46874318703E+03  0.63008402679E+03  0.00000000000E+00 0.  1.
        -13    1    5    5    0    0  0.85513437160E+02  0.22790966588E+03 -0.37905102425E+03  0.45048312146E+03  0.00000000000E+00 0. -1.
          3    1    6    6  503    0 -0.29473099295E+03  0.23565046325E+02 -0.15715922043E+03  0.33484427751E+03  0.00000000000E+00 0. -1.
         -3    1    6    6    0  503 -0.96064076043E+02 -0.43322811615E+02 -0.41809061074E+02  0.11337182322E+03  0.00000000000E+00 0.  1.
<mgrwt>
<rscale>  0 0.17600492E+04</rscale>
<asrwt>0</asrwt>
<pdfrwt beam="1">  1        2 0.29516051E+00 0.17600492E+04</pdfrwt>
<pdfrwt beam="2">  1       -2 0.62101867E-01 0.17600492E+04</pdfrwt>
<totfact> 0.16905344E+01</totfact>
</mgrwt>
</event>
<event>
12    3  0.4773567E-008  0.1863417E+04  0.7818608E-02  0.8673283E-01
          1   -1    0    0  501    0  0.00000000000E+00  0.00000000000E+00  0.10207381177E+04  0.10207381177E+04  0.00000000000E+00 0. -1.
         -1   -1    0    0    0  501 -0.00000000000E+00 -0.00000000000E+00 -0.85044436862E+03  0.85044436862E+03  0.00000000000E+00 0.  1.
         23    2    1    2    0    0 -0.56633677480E+03  0.43363365371E+03  0.35760641228E+02  0.71952130809E+03  0.87502006933E+02 0.  0.
        254    2    1    2    0    0  0.56633677480E+03 -0.43363365371E+03  0.13453310783E+03  0.11516611782E+04  0.89411902126E+03 0.  0.
         23    2    4    4    0    0  0.65692503849E+03 -0.54756523375E+03  0.30264389018E+03  0.91135075595E+03  0.87113057067E+02 0.  0.
         23    2    4    4    0    0 -0.90588263688E+02  0.11393158004E+03 -0.16811078234E+03  0.24031042226E+03  0.91111061130E+02 0.  0.
          3    1    3    3  502    0 -0.42139394791E+02  0.21788728412E+02 -0.17965651238E+02  0.50727131828E+02  0.00000000000E+00 0. -1.
         -3    1    3    3    0  502 -0.52419738001E+03  0.41184492530E+03  0.53726292466E+02  0.66879417626E+03  0.00000000000E+00 0.  1.
         13    1    5    5    0    0  0.29128610203E+03 -0.28863322306E+03  0.17175528833E+03  0.44458588570E+03  0.00000000000E+00 0.  1.
        -13    1    5    5    0    0  0.36563893645E+03 -0.25893201069E+03  0.13088860184E+03  0.46676487025E+03  0.00000000000E+00 0. -1.
          4    1    6    6  503    0 -0.76883637505E+02  0.39178663252E+02 -0.12801742590E+03  0.15438433439E+03  0.00000000000E+00 0. -1.
         -4    1    6    6    0  503 -0.13704626183E+02  0.74752916785E+02 -0.40093356444E+02  0.85926087876E+02  0.00000000000E+00 0.  1.
<mgrwt>
<rscale>  0 0.18634173E+04</rscale>
<asrwt>0</asrwt>
<pdfrwt beam="1">  1        1 0.15703663E+00 0.18634173E+04</pdfrwt>
<pdfrwt beam="2">  1       -1 0.13083759E+00 0.18634173E+04</pdfrwt>
<totfact> 0.68276972E+00</totfact>
</mgrwt>
</event>
<event>
12    3  0.4773567E-008  0.1970170E+04  0.7818608E-02  0.8620695E-01
         -2   -1    0    0    0  501 -0.00000000000E+00  0.00000000000E+00  0.90726369094E+03  0.90726369094E+03  0.00000000000E+00 0.  1.
          2   -1    0    0  501    0  0.00000000000E+00 -0.00000000000E+00 -0.10695819309E+04  0.10695819309E+04  0.00000000000E+00 0. -1.
         23    2    1    2    0    0 -0.63165650247E+03  0.30826715924E+03 -0.40356117080E+03  0.81561863734E+03  0.91397835964E+02 0.  0.
        254    2    1    2    0    0  0.63165650247E+03 -0.30826715924E+03  0.24124293079E+03  0.11612269845E+04  0.89231798110E+03 0.  0.
         23    2    4    4    0    0  0.38287007926E+03  0.25577443351E+03 -0.52458617205E+02  0.47239551326E+03  0.91627266646E+02 0.  0.
         23    2    4    4    0    0  0.24878642320E+03 -0.56404159275E+03  0.29370154800E+03  0.68883147128E+03  0.90501899499E+02 0.  0.
          3    1    3    3  502    0 -0.13093227604E+03  0.34813668138E+02 -0.49961643283E+02  0.14440020151E+03  0.00000000000E+00 0. -1.
         -3    1    3    3    0  502 -0.50072422643E+03  0.27345349110E+03 -0.35359952752E+03  0.67121843582E+03  0.00000000000E+00 0.  1.
         13    1    5    5    0    0  0.21335532097E+03  0.17277121998E+03 -0.68550000350E+02  0.28296552791E+03  0.00000000000E+00 0. -1.
        -13    1    5    5    0    0  0.16951475829E+03  0.83003213532E+02  0.16091383144E+02  0.18942998534E+03  0.00000000000E+00 0.  1.
          2    1    6    6  503    0 -0.41272421642E+01  0.66283835329E+00  0.32643572278E+01  0.53037261124E+01  0.00000000000E+00 0. -1.
         -2    1    6    6    0  503  0.25291366537E+03 -0.56470443110E+03  0.29043719077E+03  0.68352774517E+03  0.00000000000E+00 0.  1.
<mgrwt>
<rscale>  0 0.19701704E+04</rscale>
<asrwt>0</asrwt>
<pdfrwt beam="1">  1        2 0.16455107E+00 0.19701704E+04</pdfrwt>
<pdfrwt beam="2">  1       -2 0.13957903E+00 0.19701704E+04</pdfrwt>
<totfact> 0.76713203E+00</totfact>
</mgrwt>
</event>
<event>
12    3  0.4773567E-008  0.2024352E+04  0.7818608E-02  0.8595319E-01
         -1   -1    0    0    0  501 -0.00000000000E+00  0.00000000000E+00  0.59781783785E+03  0.59781783785E+03  0.00000000000E+00 0.  1.
          1   -1    0    0  501    0  0.00000000000E+00 -0.00000000000E+00 -0.17137336003E+04  0.17137336003E+04  0.00000000000E+00 0. -1.
         23    2    1    2    0    0  0.16137211441E+03  0.38007177189E+03  0.35362272258E+03  0.55120195126E+03  0.90989285362E+02 0.  0.
        254    2    1    2    0    0 -0.16137211441E+03 -0.38007177189E+03 -0.14695384850E+04  0.17603494869E+04  0.87680753073E+03 0.  0.
         23    2    4    4    0    0 -0.43626163280E+03 -0.37939666398E+03 -0.13019120463E+04  0.14275110709E+04  0.92449123985E+02 0.  0.
         23    2    4    4    0    0  0.27488951840E+03 -0.67510790762E+00 -0.16762643871E+03  0.33283841592E+03  0.84368744586E+02 0.  0.
          4    1    3    3  502    0  0.65845522287E+02  0.20608170054E+03  0.13088274941E+03  0.25285488763E+03  0.00000000000E+00 0. -1.
         -4    1    3    3    0  502  0.95526592120E+02  0.17399007134E+03  0.22273997317E+03  0.29834706363E+03  0.00000000000E+00 0.  1.
         13    1    5    5    0    0 -0.36134391174E+02 -0.70883275812E+02 -0.15452410432E+03  0.17380400407E+03  0.00000000000E+00 0.  1.
        -13    1    5    5    0    0 -0.40012724163E+03 -0.30851338817E+03 -0.11473879420E+04  0.12537070669E+04  0.00000000000E+00 0. -1.
          1    1    6    6  503    0  0.24934153585E+03 -0.92978611065E+01 -0.17514034976E+03  0.30484716472E+03  0.00000000000E+00 0. -1.
         -1    1    6    6    0  503  0.25547982546E+02  0.86227531989E+01  0.75139110460E+01  0.27991251207E+02  0.00000000000E+00 0.  1.
<mgrwt>
<rscale>  0 0.20243523E+04</rscale>
<asrwt>0</asrwt>
<pdfrwt beam="1">  1        1 0.26365132E+00 0.20243523E+04</pdfrwt>
<pdfrwt beam="2">  1       -1 0.91971977E-01 0.20243523E+04</pdfrwt>
<totfact> 0.49702250E+00</totfact>
</mgrwt>
</event>
<event>
12    3  0.4773567E-008  0.1658728E+04  0.7818608E-02  0.8785260E-01
          1   -1    0    0  501    0  0.00000000000E+00  0.00000000000E+00  0.68622447024E+03  0.68622447024E+03  0.00000000000E+00 0. -1.
         -1   -1    0    0    0  501 -0.00000000000E+00 -0.00000000000E+00 -0.10023615310E+04  0.10023615310E+04  0.00000000000E+00 0.  1.
         23    2    1    2    0    0 -0.14454727498E+03  0.45571136457E+03  0.23179102888E+03  0.53915763418E+03  0.91635751361E+02 0.  0.
        254    2    1    2    0    0  0.14454727498E+03 -0.45571136457E+03 -0.54792808962E+03  0.11494283670E+04  0.89016493812E+03 0.  0.
         23    2    4    4    0    0 -0.77662164227E+02  0.64984965689E+02  0.17630966596E+03  0.22506913583E+03  0.96522329393E+02 0.  0.
         23    2    4    4    0    0  0.22220943921E+03 -0.52069633026E+03 -0.72423775558E+03  0.92435923121E+03  0.97046166839E+02 0.  0.
          1    1    3    3  502    0 -0.14047035497E+03  0.39889504717E+03  0.17190956145E+03  0.45651076285E+03  0.00000000000E+00 0. -1.
         -1    1    3    3    0  502 -0.40769200144E+01  0.56816317401E+02  0.59881467428E+02  0.82646871333E+02  0.00000000000E+00 0.  1.
         13    1    5    5    0    0 -0.90148933454E+02  0.79845987187E+02  0.14948623981E+03  0.19195923464E+03  0.00000000000E+00 0. -1.
        -13    1    5    5    0    0  0.12486769226E+02 -0.14861021498E+02  0.26823426153E+02  0.33109901182E+02  0.00000000000E+00 0.  1.
          3    1    6    6  503    0  0.14969481665E+03 -0.34341973049E+03 -0.40202793882E+03  0.54951989319E+03  0.00000000000E+00 0. -1.
         -3    1    6    6    0  503  0.72514622558E+02 -0.17727659977E+03 -0.32220981676E+03  0.37483933802E+03  0.00000000000E+00 0.  1.
<mgrwt>
<rscale>  0 0.16587284E+04</rscale>
<asrwt>0</asrwt>
<pdfrwt beam="1">  1        1 0.10557300E+00 0.16587284E+04</pdfrwt>
<pdfrwt beam="2">  1       -1 0.15420947E+00 0.16587284E+04</pdfrwt>
<totfact> 0.86774596E+00</totfact>
</mgrwt>
</event>
<event>
12    3  0.4773567E-008  0.1712870E+04  0.7818608E-02  0.8754058E-01
         -2   -1    0    0    0  501 -0.00000000000E+00  0.00000000000E+00  0.79919554936E+03  0.79919554936E+03  0.00000000000E+00 0.  1.
          2   -1    0    0  501    0  0.00000000000E+00 -0.00000000000E+00 -0.91777437715E+03  0.91777437715E+03  0.00000000000E+00 0. -1.
         23    2    1    2    0    0 -0.41647061169E+03 -0.28218792688E+03 -0.40241340477E+03  0.65067502734E+03  0.91452973653E+02 0.  0.
        254    2    1    2    0    0  0.41647061169E+03  0.28218792688E+03  0.28383457698E+03  0.10662948992E+04  0.89629512351E+03 0.  0.
         23    2    4    4    0    0  0.65468722268E+02  0.55872821937E+03  0.12915292406E+03  0.58460743673E+03  0.92854728344E+02 0.  0.
         23    2    4    4    0    0  0.35100188942E+03 -0.27654029249E+03  0.15468165292E+03  0.48168746244E+03  0.91758040400E+02 0.  0.
          4    1    3    3  502    0 -0.15864084785E+02 -0.26680197679E+02 -0.54341048005E+01  0.31512404371E+02  0.00000000000E+00 0.  1.
         -4    1    3    3    0  502 -0.40060652690E+03 -0.25550772920E+03 -0.39697929997E+03  0.61916262297E+03  0.00000000000E+00 0. -1.
         13    1    5    5    0    0  0.69864814556E+02  0.38431206475E+03  0.12486549074E+03  0.41008321863E+03  0.00000000000E+00 0.  1.
        -13    1    5    5    0    0 -0.43960922878E+01  0.17441615462E+03  0.42874333203E+01  0.17452421810E+03  0.00000000000E+00 0. -1.
          3    1    6    6  503    0  0.42555456157E+02 -0.65746224361E+02  0.52788222203E+02  0.94446435983E+02  0.00000000000E+00 0. -1.
         -3    1    6    6    0  503  0.30844643326E+03 -0.21079406812E+03  0.10189343072E+03  0.38724102646E+03  0.00000000000E+00 0.  1.
<mgrwt>
<rscale>  0 0.17128703E+04</rscale>
<asrwt>0</asrwt>
<pdfrwt beam="1">  1        2 0.14119606E+00 0.17128703E+04</pdfrwt>
<pdfrwt beam="2">  1       -2 0.12295316E+00 0.17128703E+04</pdfrwt>
<totfact> 0.13550050E+01</totfact>
</mgrwt>
</event>
<event>
12    3  0.4871530E-008  0.2005639E+04  0.7818608E-02  0.8603989E-01
          2   -1    0    0  501    0  0.00000000000E+00  0.00000000000E+00  0.22875302322E+04  0.22875302322E+04  0.00000000000E+00 0. -1.
         -2   -1    0    0    0  501 -0.00000000000E+00 -0.00000000000E+00 -0.43962141477E+03  0.43962141477E+03  0.00000000000E+00 0.  1.
         23    2    1    2    0    0 -0.50786094057E+03 -0.45027551486E+03  0.16958224024E+03  0.70536570272E+03  0.90065887687E+02 0.  0.
        254    2    1    2    0    0  0.50786094057E+03  0.45027551486E+03  0.16783265772E+04  0.20217859442E+04  0.90009306763E+03 0.  0.
         23    2    4    4    0    0  0.32358556250E+02  0.60586839197E+03  0.82362052602E+03  0.10271186072E+04  0.92186104627E+02 0.  0.
         23    2    4    4    0    0  0.47550238432E+03 -0.15559287710E+03  0.85470605113E+03  0.99466733698E+03  0.92352674698E+02 0.  0.
          3    1    3    3  502    0 -0.10943861105E+02 -0.28582359583E+02  0.20394997141E+02  0.36778734122E+02  0.00000000000E+00 0. -1.
         -3    1    3    3    0  502 -0.49691707947E+03 -0.42169315528E+03  0.14918724310E+03  0.66858696860E+03  0.00000000000E+00 0.  1.
         13    1    5    5    0    0 -0.23240973214E+02  0.54073046857E+02  0.70655571152E+02  0.91957854298E+02  0.00000000000E+00 0. -1.
        -13    1    5    5    0    0  0.55599529464E+02  0.55179534511E+03  0.75296495487E+03  0.93516075293E+03  0.00000000000E+00 0.  1.
          3    1    6    6  503    0  0.26705214973E+02 -0.29500986363E+02  0.42757302168E+02  0.58409447796E+02  0.00000000000E+00 0. -1.
         -3    1    6    6    0  503  0.44879716935E+03 -0.12609189074E+03  0.81194874896E+03  0.93625788919E+03  0.00000000000E+00 0.  1.
<mgrwt>
<rscale>  0 0.20056393E+04</rscale>
<asrwt>0</asrwt>
<pdfrwt beam="1">  1        2 0.35192772E+00 0.20056393E+04</pdfrwt>
<pdfrwt beam="2">  1       -2 0.67634065E-01 0.20056393E+04</pdfrwt>
<totfact> 0.85745862E+00</totfact>
</mgrwt>
</event>
<event>
12    3  0.4773567E-008  0.2755678E+04  0.7818608E-02  0.8317162E-01
         -2   -1    0    0    0  501 -0.00000000000E+00  0.00000000000E+00  0.18060509414E+04  0.18060509414E+04  0.00000000000E+00 0. -1.
          2   -1    0    0  501    0  0.00000000000E+00 -0.00000000000E+00 -0.10511553945E+04  0.10511553945E+04  0.00000000000E+00 0.  1.
         23    2    1    2    0    0  0.30994361265E+03  0.97402901917E+03 -0.36490245185E+03  0.10892205765E+04  0.91924380467E+02 0.  0.
        254    2    1    2    0    0 -0.30994361265E+03 -0.97402901917E+03  0.11197979987E+04  0.17679857594E+04  0.90941108102E+03 0.  0.
         23    2    4    4    0    0 -0.36139520790E+03 -0.72278350683E+03  0.24317844304E+03  0.85006069367E+03  0.10220045850E+03 0.  0.
         23    2    4    4    0    0  0.51451595253E+02 -0.25124551233E+03  0.87661955567E+03  0.91792506572E+03  0.91394785221E+02 0.  0.
          2    1    3    3  502    0  0.30847333179E+02  0.40298418685E+02 -0.80156580446E+01  0.51378704603E+02  0.00000000000E+00 0. -1.
         -2    1    3    3    0  502  0.27909627947E+03  0.93373060048E+03 -0.35688679381E+03  0.10378418719E+04  0.00000000000E+00 0.  1.
         13    1    5    5    0    0 -0.21214256894E+03 -0.31829883002E+03  0.13401027567E+03  0.40531144659E+03  0.00000000000E+00 0. -1.
        -13    1    5    5    0    0 -0.14925263896E+03 -0.40448467681E+03  0.10916816738E+03  0.44474924709E+03  0.00000000000E+00 0.  1.
          2    1    6    6  503    0  0.80460178765E+01 -0.90196867005E+01  0.65973464101E+01  0.13770189959E+02  0.00000000000E+00 0. -1.
         -2    1    6    6    0  503  0.43405577377E+02 -0.24222582563E+03  0.87002220926E+03  0.90415487576E+03  0.00000000000E+00 0.  1.
<mgrwt>
<rscale>  0 0.27556779E+04</rscale>
<asrwt>0</asrwt>
<pdfrwt beam="1">  1        2 0.16171622E+00 0.27556779E+04</pdfrwt>
<pdfrwt beam="2">  1       -2 0.27785399E+00 0.27556779E+04</pdfrwt>
<totfact> 0.88573734E-01</totfact>
</mgrwt>
</event>
<event>
12    3  0.4773567E-008  0.2563307E+04  0.7818608E-02  0.8380773E-01
         -2   -1    0    0    0  501 -0.00000000000E+00  0.00000000000E+00  0.18526620714E+04  0.18526620714E+04  0.00000000000E+00 0.  1.
          2   -1    0    0  501    0  0.00000000000E+00 -0.00000000000E+00 -0.88663553204E+03  0.88663553204E+03  0.00000000000E+00 0. -1.
         23    2    1    2    0    0  0.35882709591E+03  0.95254564798E+03 -0.75331973004E+02  0.10247863132E+04  0.91716875705E+02 0.  0.
        254    2    1    2    0    0 -0.35882709591E+03 -0.95254564798E+03  0.10413585123E+04  0.17145112902E+04  0.90499796512E+03 0.  0.
         23    2    4    4    0    0  0.41986514608E+02 -0.90575749984E+03  0.52140157976E+03  0.10497687331E+04  0.89416271717E+02 0.  0.
         23    2    4    4    0    0 -0.40081361051E+03 -0.46788148146E+02  0.51995693258E+03  0.66474255716E+03  0.93202866825E+02 0.  0.
          1    1    3    3  502    0  0.13217856818E+03  0.41615010885E+03 -0.71544814456E+02  0.44245988231E+03  0.00000000000E+00 0. -1.
         -1    1    3    3    0  502  0.22664852773E+03  0.53639553913E+03 -0.37871585480E+01  0.58232643087E+03  0.00000000000E+00 0.  1.
         13    1    5    5    0    0  0.27159403627E+02 -0.88574286030E+03  0.50513602277E+03  0.10200198279E+04  0.00000000000E+00 0.  1.
        -13    1    5    5    0    0  0.14827110981E+02 -0.20014639533E+02  0.16265556991E+02  0.29748905189E+02  0.00000000000E+00 0. -1.
          4    1    6    6  503    0 -0.24146601787E+03 -0.63802062356E+02  0.36143502192E+03  0.43933110067E+03  0.00000000000E+00 0. -1.
         -4    1    6    6    0  503 -0.15934759264E+03  0.17013914210E+02  0.15852191066E+03  0.22541145649E+03  0.00000000000E+00 0.  1.
<mgrwt>
<rscale>  0 0.25633073E+04</rscale>
<asrwt>0</asrwt>
<pdfrwt beam="1">  1        2 0.13640547E+00 0.25633073E+04</pdfrwt>
<pdfrwt beam="2">  1       -2 0.28502493E+00 0.25633073E+04</pdfrwt>
<totfact> 0.10425252E+00</totfact>
</mgrwt>
</event>
<event>
12    3  0.4773567E-008  0.1777540E+04  0.7818608E-02  0.8718335E-01
          2   -1    0    0  501    0  0.00000000000E+00  0.00000000000E+00  0.23039358312E+04  0.23039358312E+04  0.00000000000E+00 0. -1.
         -2   -1    0    0    0  501 -0.00000000000E+00 -0.00000000000E+00 -0.34285331762E+03  0.34285331762E+03  0.00000000000E+00 0.  1.
         23    2    1    2    0    0 -0.64676655433E+02 -0.29276857905E+03 -0.13614507620E+03  0.34161373613E+03  0.90928281094E+02 0.  0.
        254    2    1    2    0    0  0.64676655433E+02  0.29276857905E+03  0.20972275898E+04  0.23051754127E+04  0.90861081290E+03 0.  0.
         23    2    4    4    0    0 -0.41100980453E+03  0.15374763749E+03  0.11006425994E+04  0.11883884833E+04  0.91025601471E+02 0.  0.
         23    2    4    4    0    0  0.47568645996E+03  0.13902094156E+03  0.99658499034E+03  0.11167869294E+04  0.91798541814E+02 0.  0.
          1    1    3    3  502    0 -0.62535466464E+02 -0.17009826350E+03 -0.39629582266E+02  0.18551174519E+03  0.00000000000E+00 0. -1.
         -1    1    3    3    0  502 -0.21411889691E+01 -0.12267031555E+03 -0.96515493936E+02  0.15610199095E+03  0.00000000000E+00 0.  1.
         13    1    5    5    0    0 -0.20192683839E+03  0.11270480398E+03  0.65002929275E+03  0.68993833227E+03  0.00000000000E+00 0. -1.
        -13    1    5    5    0    0 -0.20908296614E+03  0.41042833509E+02  0.45061330669E+03  0.49845015104E+03  0.00000000000E+00 0.  1.
          3    1    6    6  503    0  0.43275455801E+03  0.13519146966E+03  0.84198287645E+03  0.95628887120E+03  0.00000000000E+00 0. -1.
         -3    1    6    6    0  503  0.42931901954E+02  0.38294718997E+01  0.15460211388E+03  0.16049805818E+03  0.00000000000E+00 0.  1.
<mgrwt>
<rscale>  0 0.17775399E+04</rscale>
<asrwt>0</asrwt>
<pdfrwt beam="1">  1        2 0.35445166E+00 0.17775399E+04</pdfrwt>
<pdfrwt beam="2">  1       -2 0.52746666E-01 0.17775399E+04</pdfrwt>
<totfact> 0.14472044E+01</totfact>
</mgrwt>
</event>
<event>
12    3  0.4773567E-008  0.1103313E+04  0.7818608E-02  0.9201969E-01
          3   -1    0    0  501    0  0.00000000000E+00  0.00000000000E+00  0.68501934680E+03  0.68501934680E+03  0.00000000000E+00 0. -1.
         -3   -1    0    0    0  501 -0.00000000000E+00 -0.00000000000E+00 -0.44425721401E+03  0.44425721401E+03  0.00000000000E+00 0.  1.
         23    2    1    2    0    0  0.53349243973E+02 -0.24289934806E+02 -0.11189737285E+03  0.15567621822E+03  0.90983075917E+02 0.  0.
        254    2    1    2    0    0 -0.53349243973E+02  0.24289934806E+02  0.35265950564E+03  0.97360034258E+03  0.90558972906E+03 0.  0.
         23    2    4    4    0    0 -0.87525669314E+02  0.39592638903E+03  0.41177655018E+03  0.58510023347E+03  0.91454401787E+02 0.  0.
         23    2    4    4    0    0  0.34176425341E+02 -0.37163645423E+03 -0.59117044541E+02  0.38850010911E+03  0.90309621110E+02 0.  0.
          1    1    3    3  502    0  0.40779881629E+02 -0.33153730639E+02 -0.11104534350E+02  0.53716657417E+02  0.00000000000E+00 0. -1.
         -1    1    3    3    0  502  0.12569362344E+02  0.88637958322E+01 -0.10079283850E+03  0.10195956081E+03  0.00000000000E+00 0.  1.
         13    1    5    5    0    0 -0.10337287521E+03  0.27663979473E+03  0.29470476157E+03  0.41721268419E+03  0.00000000000E+00 0. -1.
        -13    1    5    5    0    0  0.15847205892E+02  0.11928659430E+03  0.11707178861E+03  0.16788754928E+03  0.00000000000E+00 0.  1.
          4    1    6    6  503    0  0.50901399857E+02 -0.14617466841E+03 -0.48362277890E+02  0.16216317743E+03  0.00000000000E+00 0. -1.
         -4    1    6    6    0  503 -0.16724974515E+02 -0.22546178582E+03 -0.10754766650E+02  0.22633693168E+03  0.00000000000E+00 0.  1.
<mgrwt>
<rscale>  0 0.11033128E+04</rscale>
<asrwt>0</asrwt>
<pdfrwt beam="1">  1        3 0.10538759E+00 0.11033128E+04</pdfrwt>
<pdfrwt beam="2">  1       -3 0.68347264E-01 0.11033128E+04</pdfrwt>
<totfact> 0.41348564E+00</totfact>
</mgrwt>
</event>
<event>
12    3  0.4773567E-008  0.2813986E+04  0.7818608E-02  0.8298939E-01
          1   -1    0    0  501    0  0.00000000000E+00  0.00000000000E+00  0.15823388498E+04  0.15823388498E+04  0.00000000000E+00 0.  1.
         -1   -1    0    0    0  501 -0.00000000000E+00 -0.00000000000E+00 -0.12510783872E+04  0.12510783872E+04  0.00000000000E+00 0. -1.
         23    2    1    2    0    0  0.90142332008E+03 -0.58837163884E+03  0.81213064827E+03  0.13514354145E+04  0.89868249956E+02 0.  0.
        254    2    1    2    0    0 -0.90142332008E+03  0.58837163884E+03 -0.48087018561E+03  0.14819818225E+04  0.89793585484E+03 0.  0.
         23    2    4    4    0    0  0.14637182305E+03 -0.38281299356E+02 -0.43604318408E+02  0.18187762835E+03  0.91038270225E+02 0.  0.
         23    2    4    4    0    0 -0.10477951431E+04  0.62665293820E+03 -0.43726586720E+03  0.13001041941E+04  0.92200380080E+02 0.  0.
          2    1    3    3  502    0  0.18277486261E+03 -0.95442927363E+02  0.19309836879E+03  0.28249421732E+03  0.00000000000E+00 0. -1.
         -2    1    3    3    0  502  0.71864845746E+03 -0.49292871148E+03  0.61903227948E+03  0.10689411972E+04  0.00000000000E+00 0.  1.
         13    1    5    5    0    0  0.80806048010E+02 -0.53951995229E+02 -0.57705641458E+02  0.11300608939E+03  0.00000000000E+00 0. -1.
        -13    1    5    5    0    0  0.65565775042E+02  0.15670695872E+02  0.14101323050E+02  0.68871538953E+02  0.00000000000E+00 0.  1.
          2    1    6    6  503    0 -0.99364004328E+03  0.59819037556E+03 -0.43557432484E+03  0.12389016319E+04  0.00000000000E+00 0. -1.
         -2    1    6    6    0  503 -0.54155099848E+02  0.28462562640E+02 -0.16915423651E+01  0.61202562260E+02  0.00000000000E+00 0.  1.
<mgrwt>
<rscale>  0 0.28139865E+04</rscale>
<asrwt>0</asrwt>
<pdfrwt beam="1">  1        1 0.24343675E+00 0.28139865E+04</pdfrwt>
<pdfrwt beam="2">  1       -1 0.19247360E+00 0.28139865E+04</pdfrwt>
<totfact> 0.84249159E-01</totfact>
</mgrwt>
</event>
<event>
12    3  0.4773567E-008  0.3232492E+04  0.7818608E-02  0.8180288E-01
          2   -1    0    0  501    0  0.00000000000E+00  0.00000000000E+00  0.10215897128E+04  0.10215897128E+04  0.00000000000E+00 0.  1.
         -2   -1    0    0    0  501 -0.00000000000E+00 -0.00000000000E+00 -0.25570460223E+04  0.25570460223E+04  0.00000000000E+00 0. -1.
         23    2    1    2    0    0  0.12449682564E+03  0.13811316563E+04 -0.13231508406E+04  0.19188926225E+04  0.91633172099E+02 0.  0.
        254    2    1    2    0    0 -0.12449682564E+03 -0.13811316563E+04 -0.21230546887E+03  0.16597431126E+04  0.88693262214E+03 0.  0.
         23    2    4    4    0    0  0.21267525661E+03 -0.53334389772E+03 -0.42250808866E+03  0.71921086271E+03  0.95208728842E+02 0.  0.
         23    2    4    4    0    0 -0.33717208226E+03 -0.84778775856E+03  0.21020261979E+03  0.94053224991E+03  0.89368199834E+02 0.  0.
          4    1    3    3  502    0  0.33160206851E+02  0.35534125690E+03 -0.39724389779E+03  0.53401284863E+03  0.00000000000E+00 0. -1.
         -4    1    3    3    0  502  0.91336618789E+02  0.10257903994E+04 -0.92590694281E+03  0.13848797739E+04  0.00000000000E+00 0.  1.
         13    1    5    5    0    0  0.57888877446E+01 -0.11570575827E+03 -0.78824137889E+02  0.14012343998E+03  0.00000000000E+00 0.  1.
        -13    1    5    5    0    0  0.20688636887E+03 -0.41763813946E+03 -0.34368395077E+03  0.57908742274E+03  0.00000000000E+00 0. -1.
          1    1    6    6  503    0 -0.21746984854E+03 -0.64639886272E+03  0.14335576640E+03  0.69690422621E+03  0.00000000000E+00 0. -1.
         -1    1    6    6    0  503 -0.11970223372E+03 -0.20138889583E+03  0.66846853395E+02  0.24362802370E+03  0.00000000000E+00 0.  1.
<mgrwt>
<rscale>  0 0.32324925E+04</rscale>
<asrwt>0</asrwt>
<pdfrwt beam="1">  1        2 0.15716765E+00 0.32324925E+04</pdfrwt>
<pdfrwt beam="2">  1       -2 0.39339169E+00 0.32324925E+04</pdfrwt>
<totfact> 0.16783565E-01</totfact>
</mgrwt>
</event>
<event>
12    3  0.4773567E-008  0.3164634E+04  0.7818608E-02  0.8198220E-01
         -1   -1    0    0    0  501 -0.00000000000E+00  0.00000000000E+00  0.72866961672E+03  0.72866961672E+03  0.00000000000E+00 0.  1.
          1   -1    0    0  501    0  0.00000000000E+00 -0.00000000000E+00 -0.34360246020E+04  0.34360246020E+04  0.00000000000E+00 0. -1.
         23    2    1    2    0    0 -0.65511129705E+03 -0.12814420539E+04 -0.14715643619E+04  0.20604103850E+04  0.92329487893E+02 0.  0.
        254    2    1    2    0    0  0.65511129705E+03  0.12814420539E+04 -0.12357906233E+04  0.21042838337E+04  0.91080592824E+03 0.  0.
         23    2    4    4    0    0  0.70298018991E+02  0.10641456459E+04 -0.82028962558E+03  0.13485092439E+04  0.90853419234E+02 0.  0.
         23    2    4    4    0    0  0.58481327806E+03  0.21729640801E+03 -0.41550099777E+03  0.75577458983E+03  0.96591160847E+02 0.  0.
          2    1    3    3  502    0 -0.44482886695E+00 -0.25169270514E+02 -0.20033455922E+02  0.32171872919E+02  0.00000000000E+00 0.  1.
         -2    1    3    3    0  502 -0.65466646818E+03 -0.12562727834E+04 -0.14515309060E+04  0.20282385121E+04  0.00000000000E+00 0. -1.
         13    1    5    5    0    0  0.75480873885E-01  0.64384024661E+03 -0.47650374567E+03  0.80099069189E+03  0.00000000000E+00 0. -1.
        -13    1    5    5    0    0  0.70222538117E+02  0.42030539929E+03 -0.34378587991E+03  0.54751855197E+03  0.00000000000E+00 0.  1.
          1    1    6    6  503    0  0.53544894875E+03  0.16901781180E+03 -0.35791561633E+03  0.66586499070E+03  0.00000000000E+00 0. -1.
         -1    1    6    6    0  503  0.49364329306E+02  0.48278596211E+02 -0.57585381438E+02  0.89909599128E+02  0.00000000000E+00 0.  1.
<mgrwt>
<rscale>  0 0.31646338E+04</rscale>
<asrwt>0</asrwt>
<pdfrwt beam="1">  1        1 0.52861917E+00 0.31646338E+04</pdfrwt>
<pdfrwt beam="2">  1       -1 0.11210302E+00 0.31646338E+04</pdfrwt>
<totfact> 0.17154560E-01</totfact>
</mgrwt>
</event>
<event>
12    3  0.4773567E-008  0.1294914E+04  0.7818608E-02  0.9033608E-01
          2   -1    0    0  501    0  0.00000000000E+00  0.00000000000E+00  0.36965927209E+04  0.36965927209E+04  0.00000000000E+00 0. -1.
         -2   -1    0    0    0  501 -0.00000000000E+00 -0.00000000000E+00 -0.11340193110E+03  0.11340193110E+03  0.00000000000E+00 0.  1.
         23    2    1    2    0    0 -0.10129957888E+03 -0.26522177044E+03  0.14363731942E+04  0.14668743200E+04  0.89152259286E+02 0.  0.
        254    2    1    2    0    0  0.10129957888E+03  0.26522177044E+03  0.21468175956E+04  0.23431203320E+04  0.89486474367E+03 0.  0.
         23    2    4    4    0    0  0.14631737685E+03 -0.26884297545E+03  0.12878946631E+04  0.13268832037E+04  0.90890334167E+02 0.  0.
         23    2    4    4    0    0 -0.45017797976E+02  0.53406474589E+03  0.85892293245E+03  0.10162371283E+04  0.87963299581E+02 0.  0.
          2    1    3    3  502    0 -0.86535950442E+02 -0.21934779529E+03  0.13203559868E+04  0.13412463822E+04  0.00000000000E+00 0. -1.
         -2    1    3    3    0  502 -0.14763628434E+02 -0.45873975145E+02  0.11601720744E+03  0.12562793775E+03  0.00000000000E+00 0.  1.
         13    1    5    5    0    0  0.12341686744E+03 -0.24083032424E+03  0.97346714318E+03  0.10103807436E+04  0.00000000000E+00 0.  1.
        -13    1    5    5    0    0  0.22900509413E+02 -0.28012651211E+02  0.31442751993E+03  0.31650246010E+03  0.00000000000E+00 0. -1.
          1    1    6    6  503    0 -0.15371820982E+01  0.13868465002E+03  0.15734033831E+03  0.20974216825E+03  0.00000000000E+00 0. -1.
         -1    1    6    6    0  503 -0.43480615878E+02  0.39538009586E+03  0.70158259414E+03  0.80649496003E+03  0.00000000000E+00 0.  1.
<mgrwt>
<rscale>  0 0.12949143E+04</rscale>
<asrwt>0</asrwt>
<pdfrwt beam="1">  1        2 0.56870648E+00 0.12949143E+04</pdfrwt>
<pdfrwt beam="2">  1       -2 0.17446454E-01 0.12949143E+04</pdfrwt>
<totfact> 0.16018200E+01</totfact>
</mgrwt>
</event>
<event>
12    3  0.4773567E-008  0.1441507E+04  0.7818608E-02  0.8924310E-01
          1   -1    0    0  501    0  0.00000000000E+00  0.00000000000E+00  0.15736763529E+04  0.15736763529E+04  0.00000000000E+00 0. -1.
         -1   -1    0    0    0  501 -0.00000000000E+00 -0.00000000000E+00 -0.33010945383E+03  0.33010945383E+03  0.00000000000E+00 0.  1.
         23    2    1    2    0    0  0.13094185270E+03 -0.10303145503E+03 -0.14518403348E+03  0.23845937327E+03  0.89572426604E+02 0.  0.
        254    2    1    2    0    0 -0.13094185270E+03  0.10303145503E+03  0.13887509326E+04  0.16653264335E+04  0.90383722418E+03 0.  0.
         23    2    4    4    0    0 -0.45482530744E+03  0.10752444459E+03  0.11730729909E+04  0.12654615595E+04  0.82856201977E+02 0.  0.
         23    2    4    4    0    0  0.32388345474E+03 -0.44929895532E+01  0.21567794169E+03  0.39986487397E+03  0.91947070048E+02 0.  0.
          4    1    3    3  502    0  0.18586632620E+02  0.30153924382E+01  0.83938832069E+01  0.20615838062E+02  0.00000000000E+00 0. -1.
         -4    1    3    3    0  502  0.11235522008E+03 -0.10604684747E+03 -0.15357791669E+03  0.21784353521E+03  0.00000000000E+00 0.  1.
         13    1    5    5    0    0 -0.31888689495E+01 -0.73872071133E+01  0.29489995257E+02  0.30567949463E+02  0.00000000000E+00 0. -1.
        -13    1    5    5    0    0 -0.45163643849E+03  0.11491165170E+03  0.11435829956E+04  0.12348936100E+04  0.00000000000E+00 0.  1.
          4    1    6    6  503    0 -0.36780146588E+01 -0.59380002201E+01 -0.10924823328E+01  0.70697352207E+01  0.00000000000E+00 0. -1.
         -4    1    6    6    0  503  0.32756146940E+03  0.14450106669E+01  0.21677042402E+03  0.39279513874E+03  0.00000000000E+00 0.  1.
<mgrwt>
<rscale>  0 0.14415068E+04</rscale>
<asrwt>0</asrwt>
<pdfrwt beam="1">  1        1 0.24210405E+00 0.14415068E+04</pdfrwt>
<pdfrwt beam="2">  1       -1 0.50786070E-01 0.14415068E+04</pdfrwt>
<totfact> 0.22028595E+01</totfact>
</mgrwt>
</event>
<event>
12    3  0.4773567E-008  0.1722414E+04  0.7818608E-02  0.8748683E-01
          1   -1    0    0  501    0  0.00000000000E+00  0.00000000000E+00  0.21285274774E+04  0.21285274774E+04  0.00000000000E+00 0. -1.
         -1   -1    0    0    0  501 -0.00000000000E+00 -0.00000000000E+00 -0.34844621240E+03  0.34844621240E+03  0.00000000000E+00 0.  1.
         23    2    1    2    0    0  0.35901280896E+03  0.38066710345E+03  0.11600136342E+04  0.12759583972E+04  0.92954608314E+02 0.  0.
        254    2    1    2    0    0 -0.35901280896E+03 -0.38066710345E+03  0.62006763072E+03  0.12010152925E+04  0.88552595984E+03 0.  0.
         23    2    4    4    0    0  0.20182856035E+03 -0.19778978546E+03  0.51671200129E+03  0.59491474816E+03  0.84123113906E+02 0.  0.
         23    2    4    4    0    0 -0.56084136931E+03 -0.18287731798E+03  0.10335562944E+03  0.60610054436E+03  0.93211205199E+02 0.  0.
          1    1    3    3  502    0  0.73708388453E+02  0.10239284020E+03  0.19951685989E+03  0.23605973319E+03  0.00000000000E+00 0. -1.
         -1    1    3    3    0  502  0.28530442051E+03  0.27827426324E+03  0.96049677435E+03  0.10398986640E+04  0.00000000000E+00 0.  1.
         13    1    5    5    0    0  0.44997821847E+02 -0.32708722429E+02  0.46628217249E+02  0.72586879928E+02  0.00000000000E+00 0.  1.
        -13    1    5    5    0    0  0.15683073851E+03 -0.16508106303E+03  0.47008378404E+03  0.52232786823E+03  0.00000000000E+00 0. -1.
          1    1    6    6  503    0 -0.52732189414E+03 -0.14983490054E+03  0.10824166571E+03  0.55878004229E+03  0.00000000000E+00 0. -1.
         -1    1    6    6    0  503 -0.33519475171E+02 -0.33042417445E+02 -0.48860362735E+01  0.47320502077E+02  0.00000000000E+00 0.  1.
<mgrwt>
<rscale>  0 0.17224138E+04</rscale>
<asrwt>0</asrwt>
<pdfrwt beam="1">  1        1 0.32746576E+00 0.17224138E+04</pdfrwt>
<pdfrwt beam="2">  1       -1 0.53607111E-01 0.17224138E+04</pdfrwt>
<totfact> 0.81317866E+00</totfact>
</mgrwt>
</event>
<event>
12    3  0.4773567E-008  0.2618617E+04  0.7818608E-02  0.8361905E-01
         -2   -1    0    0    0  501 -0.00000000000E+00  0.00000000000E+00  0.84774413415E+03  0.84774413415E+03  0.00000000000E+00 0.  1.
          2   -1    0    0  501    0  0.00000000000E+00 -0.00000000000E+00 -0.20221766930E+04  0.20221766930E+04  0.00000000000E+00 0. -1.
         23    2    1    2    0    0  0.76919696350E+03  0.72720839882E+03 -0.10174428792E+04  0.14710156294E+04  0.90559072662E+02 0.  0.
        254    2    1    2    0    0 -0.76919696350E+03 -0.72720839882E+03 -0.15698967964E+03  0.13989051977E+04  0.90099609804E+03 0.  0.
         23    2    4    4    0    0 -0.10560426813E+03 -0.10570330236E+03  0.32331690564E+03  0.36668277454E+03  0.87160691233E+02 0.  0.
         23    2    4    4    0    0 -0.66359269537E+03 -0.62150509646E+03 -0.48030658528E+03  0.10322224232E+04  0.90359641151E+02 0.  0.
          3    1    3    3  502    0  0.58712779790E+03  0.54221069793E+03 -0.81865860858E+03  0.11440775365E+04  0.00000000000E+00 0. -1.
         -3    1    3    3    0  502  0.18206916560E+03  0.18499770089E+03 -0.19878427061E+03  0.32693809298E+03  0.00000000000E+00 0.  1.
         13    1    5    5    0    0 -0.82003150946E+02 -0.20706935928E+02  0.14963869257E+03  0.17188668440E+03  0.00000000000E+00 0.  1.
        -13    1    5    5    0    0 -0.23601117185E+02 -0.84996366431E+02  0.17367821307E+03  0.19479609014E+03  0.00000000000E+00 0. -1.
          4    1    6    6  503    0 -0.66249995030E+03 -0.62425441072E+03 -0.48039730759E+03  0.10292625159E+04  0.00000000000E+00 0. -1.
         -4    1    6    6    0  503 -0.10927450720E+01  0.27493142527E+01  0.90722309620E-01  0.29599072942E+01  0.00000000000E+00 0.  1.
<mgrwt>
<rscale>  0 0.26186168E+04</rscale>
<asrwt>0</asrwt>
<pdfrwt beam="1">  1        2 0.31110411E+00 0.26186168E+04</pdfrwt>
<pdfrwt beam="2">  1       -2 0.13042217E+00 0.26186168E+04</pdfrwt>
<totfact> 0.24705689E+00</totfact>
</mgrwt>
</event>
<event>
12    3  0.4773567E-008  0.1846715E+04  0.7818608E-02  0.8681844E-01
         -2   -1    0    0    0  501 -0.00000000000E+00  0.00000000000E+00  0.10361915339E+04  0.10361915339E+04  0.00000000000E+00 0.  1.
          2   -1    0    0  501    0  0.00000000000E+00 -0.00000000000E+00 -0.82280996342E+03  0.82280996342E+03  0.00000000000E+00 0. -1.
         23    2    1    2    0    0 -0.39837018396E+03  0.15171508488E+03  0.64041128376E+03  0.77497956405E+03  0.93543796604E+02 0.  0.
        254    2    1    2    0    0  0.39837018396E+03 -0.15171508488E+03 -0.42702971333E+03  0.10840219332E+04  0.90057365340E+03 0.  0.
         23    2    4    4    0    0  0.40218671522E+03  0.74318851397E+02 -0.63578428088E+03  0.76152805755E+03  0.91792619788E+02 0.  0.
         23    2    4    4    0    0 -0.38165312659E+01 -0.22603393628E+03  0.20875456755E+03  0.32249387567E+03  0.96529395082E+02 0.  0.
          3    1    3    3  502    0 -0.15241550112E+03  0.33162821720E+02  0.30426749180E+03  0.34191952897E+03  0.00000000000E+00 0. -1.
         -3    1    3    3    0  502 -0.24595468283E+03  0.11855226316E+03  0.33614379196E+03  0.43306003508E+03  0.00000000000E+00 0.  1.
         13    1    5    5    0    0  0.34017761850E+03  0.95955038064E+02 -0.53216634431E+03  0.63884990371E+03  0.00000000000E+00 0. -1.
        -13    1    5    5    0    0  0.62009096724E+02 -0.21636186667E+02 -0.10361793657E+03  0.12267815384E+03  0.00000000000E+00 0.  1.
          3    1    6    6  503    0 -0.43292662369E+02 -0.17146509127E+03  0.13404027552E+03  0.22190387018E+03  0.00000000000E+00 0. -1.
         -3    1    6    6    0  503  0.39476131103E+02 -0.54568845012E+02  0.74714292024E+02  0.10059000550E+03  0.00000000000E+00 0.  1.
<mgrwt>
<rscale>  0 0.18467146E+04</rscale>
<asrwt>0</asrwt>
<pdfrwt beam="1">  1        2 0.12658615E+00 0.18467146E+04</pdfrwt>
<pdfrwt beam="2">  1       -2 0.15941408E+00 0.18467146E+04</pdfrwt>
<totfact> 0.79346377E+00</totfact>
</mgrwt>
</event>
<event>
12    3  0.4773567E-008  0.2143961E+04  0.7818608E-02  0.8542122E-01
          2   -1    0    0  501    0  0.00000000000E+00  0.00000000000E+00  0.25597475095E+04  0.25597475095E+04  0.00000000000E+00 0. -1.
         -2   -1    0    0    0  501 -0.00000000000E+00 -0.00000000000E+00 -0.44892795348E+03  0.44892795348E+03  0.00000000000E+00 0.  1.
         23    2    1    2    0    0 -0.84174105497E+03 -0.69230334988E+02  0.51608542802E+03  0.99413573198E+03  0.92956127675E+02 0.  0.
        254    2    1    2    0    0  0.84174105497E+03  0.69230334988E+02  0.15947341280E+04  0.20145397310E+04  0.89547336413E+03 0.  0.
         23    2    4    4    0    0  0.61121871160E+03 -0.19702451129E+03  0.15067244961E+04  0.16403462803E+04  0.90056874622E+02 0.  0.
         23    2    4    4    0    0  0.23052234337E+03  0.26625484628E+03  0.88009631917E+02  0.37419345073E+03  0.90790138771E+02 0.  0.
          4    1    3    3  502    0 -0.78048530184E+03 -0.39686597848E+02  0.48025644158E+03  0.91726690888E+03  0.00000000000E+00 0.  1.
         -4    1    3    3    0  502 -0.61255753128E+02 -0.29543737140E+02  0.35828986442E+02  0.76868823101E+02  0.00000000000E+00 0. -1.
         13    1    5    5    0    0  0.11327259591E+02 -0.18900753324E+02  0.39176573926E+02  0.44948295081E+02  0.00000000000E+00 0. -1.
        -13    1    5    5    0    0  0.59989145201E+03 -0.17812375796E+03  0.14675479221E+04  0.15953979852E+04  0.00000000000E+00 0.  1.
          4    1    6    6  503    0  0.55558279983E+02  0.24598471296E+02  0.38056769233E+02  0.71694664720E+02  0.00000000000E+00 0. -1.
         -4    1    6    6    0  503  0.17496406339E+03  0.24165637498E+03  0.49952862684E+02  0.30249878601E+03  0.00000000000E+00 0.  1.
<mgrwt>
<rscale>  0 0.21439610E+04</rscale>
<asrwt>0</asrwt>
<pdfrwt beam="1">  1        2 0.39380730E+00 0.21439610E+04</pdfrwt>
<pdfrwt beam="2">  1       -2 0.69065841E-01 0.21439610E+04</pdfrwt>
<totfact> 0.56496675E+00</totfact>
</mgrwt>
</event>
<event>
12    3  0.4773567E-008  0.1552125E+04  0.7818608E-02  0.8850512E-01
          2   -1    0    0  501    0  0.00000000000E+00  0.00000000000E+00  0.11918743898E+04  0.11918743898E+04  0.00000000000E+00 0. -1.
         -2   -1    0    0    0  501 -0.00000000000E+00 -0.00000000000E+00 -0.50531588861E+03  0.50531588861E+03  0.00000000000E+00 0.  1.
         23    2    1    2    0    0 -0.53972586565E+03  0.12080316915E+03  0.36040582950E+03  0.66701108829E+03  0.95467346438E+02 0.  0.
        254    2    1    2    0    0  0.53972586565E+03 -0.12080316915E+03  0.32615267170E+03  0.10301791901E+04  0.80560299329E+03 0.  0.
         23    2    4    4    0    0  0.27910128626E+03 -0.41568508891E+03  0.36102029899E+03  0.62404173410E+03  0.91655924467E+02 0.  0.
         23    2    4    4    0    0  0.26062457939E+03  0.29488191976E+03 -0.34867627286E+02  0.40613745602E+03  0.94081686707E+02 0.  0.
          3    1    3    3  502    0 -0.51457466060E+03  0.13070888918E+03  0.35696271498E+03  0.63976110770E+03  0.00000000000E+00 0. -1.
         -3    1    3    3    0  502 -0.25151205049E+02 -0.99057200233E+01  0.34431145255E+01  0.27249980592E+02  0.00000000000E+00 0.  1.
         13    1    5    5    0    0  0.45131972655E+02 -0.56234333107E+02  0.16637727206E+02  0.74000061772E+02  0.00000000000E+00 0. -1.
        -13    1    5    5    0    0  0.23396931361E+03 -0.35945075580E+03  0.34438257178E+03  0.55004167233E+03  0.00000000000E+00 0.  1.
          1    1    6    6  503    0  0.61579010429E+01  0.17120085208E+02  0.18177358655E+02  0.25718348128E+02  0.00000000000E+00 0. -1.
         -1    1    6    6    0  503  0.25446667834E+03  0.27776183455E+03 -0.53044985941E+02  0.38041910790E+03  0.00000000000E+00 0.  1.
<mgrwt>
<rscale>  0 0.15521251E+04</rscale>
<asrwt>0</asrwt>
<pdfrwt beam="1">  1        2 0.18336529E+00 0.15521251E+04</pdfrwt>
<pdfrwt beam="2">  1       -2 0.77740906E-01 0.15521251E+04</pdfrwt>
<totfact> 0.27177391E+01</totfact>
</mgrwt>
</event>
<event>
12    3  0.4773567E-008  0.1478687E+04  0.7818608E-02  0.8898751E-01
         -3   -1    0    0    0  501 -0.00000000000E+00  0.00000000000E+00  0.18433327497E+04  0.18433327497E+04  0.00000000000E+00 0.  1.
          3   -1    0    0  501    0  0.00000000000E+00 -0.00000000000E+00 -0.29654367724E+03  0.29654367724E+03  0.00000000000E+00 0. -1.
         23    2    1    2    0    0 -0.20256335357E+03  0.15604730546E+03  0.10398125415E+04  0.10746104890E+04  0.90525729399E+02 0.  0.
        254    2    1    2    0    0  0.20256335357E+03 -0.15604730546E+03  0.50697653092E+03  0.10652659380E+04  0.90132327272E+03 0.  0.
         23    2    4    4    0    0  0.39597462115E+03  0.70378119883E+02 -0.61458577783E+02  0.41751526694E+03  0.93770256419E+02 0.  0.
         23    2    4    4    0    0 -0.19341126758E+03 -0.22642542534E+03  0.56843510870E+03  0.64775067104E+03  0.88238695330E+02 0.  0.
          1    1    3    3  502    0 -0.24850972970E+02 -0.11161733938E+02  0.10456539987E+03  0.10805590226E+03  0.00000000000E+00 0. -1.
         -1    1    3    3    0  502 -0.17771238060E+03  0.16720903940E+03  0.93524714166E+03  0.96655458670E+03  0.00000000000E+00 0.  1.
         13    1    5    5    0    0  0.33569179564E+03  0.92366158837E+02 -0.60211789502E+02  0.35333546178E+03  0.00000000000E+00 0.  1.
        -13    1    5    5    0    0  0.60282825514E+02 -0.21988038955E+02 -0.12467882818E+01  0.64179805157E+02  0.00000000000E+00 0. -1.
          3    1    6    6  503    0 -0.10984790005E+03 -0.66256621882E+02  0.26935022084E+03  0.29833880498E+03  0.00000000000E+00 0. -1.
         -3    1    6    6    0  503 -0.83563367531E+02 -0.16016880346E+03  0.29908488786E+03  0.34941186606E+03  0.00000000000E+00 0.  1.
<mgrwt>
<rscale>  0 0.14786868E+04</rscale>
<asrwt>0</asrwt>
<pdfrwt beam="1">  1        3 0.45622105E-01 0.14786868E+04</pdfrwt>
<pdfrwt beam="2">  1       -3 0.28358965E+00 0.14786868E+04</pdfrwt>
<totfact> 0.57164197E-01</totfact>
</mgrwt>
</event>
<event>
12    3  0.4773567E-008  0.2031832E+04  0.7818608E-02  0.8591881E-01
         -2   -1    0    0    0  501 -0.00000000000E+00  0.00000000000E+00  0.10834651416E+04  0.10834651416E+04  0.00000000000E+00 0.  1.
          2   -1    0    0  501    0  0.00000000000E+00 -0.00000000000E+00 -0.95257791066E+03  0.95257791066E+03  0.00000000000E+00 0. -1.
         23    2    1    2    0    0 -0.52967834794E+03 -0.18185433234E+02  0.66455658730E+03  0.85422084714E+03  0.84663662236E+02 0.  0.
        254    2    1    2    0    0  0.52967834794E+03  0.18185433234E+02 -0.53366935634E+03  0.11818222051E+04  0.91159798178E+03 0.  0.
         23    2    4    4    0    0  0.65584463584E+03  0.24613948270E+03 -0.17276581286E+03  0.72724024329E+03  0.91178473688E+02 0.  0.
         23    2    4    4    0    0 -0.12616628790E+03 -0.22795404946E+03 -0.36090354348E+03  0.45458196185E+03  0.92262730659E+02 0.  0.
          2    1    3    3  502    0 -0.33219075050E+03 -0.41156243240E+02  0.37115063302E+03  0.49979728237E+03  0.00000000000E+00 0.  1.
         -2    1    3    3    0  502 -0.19748759744E+03  0.22970810006E+02  0.29340595427E+03  0.35442356476E+03  0.00000000000E+00 0. -1.
         13    1    5    5    0    0  0.47384397337E+03  0.22044220632E+03 -0.12879594604E+03  0.53824833780E+03  0.00000000000E+00 0.  1.
        -13    1    5    5    0    0  0.18200066247E+03  0.25697276374E+02 -0.43969866819E+02  0.18899190549E+03  0.00000000000E+00 0. -1.
          4    1    6    6  503    0 -0.16299972228E+02  0.68727958112E+00 -0.41445512637E+01  0.16832669219E+02  0.00000000000E+00 0. -1.
         -4    1    6    6    0  503 -0.10986631567E+03 -0.22864132904E+03 -0.35675899222E+03  0.43774929263E+03  0.00000000000E+00 0.  1.
<mgrwt>
<rscale>  0 0.20318316E+04</rscale>
<asrwt>0</asrwt>
<pdfrwt beam="1">  1        2 0.14655045E+00 0.20318316E+04</pdfrwt>
<pdfrwt beam="2">  1       -2 0.16668695E+00 0.20318316E+04</pdfrwt>
<totfact> 0.56399692E+00</totfact>
</mgrwt>
</event>
<event>
12    3  0.4773567E-008  0.1405165E+04  0.7818608E-02  0.8950089E-01
          1   -1    0    0  501    0  0.00000000000E+00  0.00000000000E+00  0.64248523100E+03  0.64248523100E+03  0.00000000000E+00 0. -1.
         -1   -1    0    0    0  501 -0.00000000000E+00 -0.00000000000E+00 -0.76830091091E+03  0.76830091091E+03  0.00000000000E+00 0.  1.
         23    2    1    2    0    0 -0.20645814092E+03  0.25893230729E+02 -0.38011666701E+03  0.44265942063E+03  0.90350754186E+02 0.  0.
        254    2    1    2    0    0  0.20645814092E+03 -0.25893230729E+02  0.25430098709E+03  0.96812672128E+03  0.91066181048E+03 0.  0.
         23    2    4    4    0    0  0.34048714432E+03  0.18288473522E+03 -0.19825452207E+03  0.44416380129E+03  0.92727045864E+02 0.  0.
         23    2    4    4    0    0 -0.13402900341E+03 -0.20877796594E+03  0.45255550916E+03  0.52396291999E+03  0.90435832660E+02 0.  0.
          2    1    3    3  502    0 -0.16125554312E+03  0.83858154147E+01 -0.20499911632E+03  0.26095652853E+03  0.00000000000E+00 0. -1.
         -2    1    3    3    0  502 -0.45202597796E+02  0.17507415314E+02 -0.17511755069E+03  0.18170289210E+03  0.00000000000E+00 0.  1.
         13    1    5    5    0    0  0.28232328188E+03  0.14935169990E+03 -0.20028246578E+03  0.37699526768E+03  0.00000000000E+00 0. -1.
        -13    1    5    5    0    0  0.58163862442E+02  0.33533035315E+02  0.20279437153E+01  0.67168533610E+02  0.00000000000E+00 0.  1.
          1    1    6    6  503    0 -0.11962475901E+03 -0.21590146812E+03  0.43511099312E+03  0.50024504319E+03  0.00000000000E+00 0. -1.
         -1    1    6    6    0  503 -0.14404244392E+02  0.71235021711E+01  0.17444516043E+02  0.23717876795E+02  0.00000000000E+00 0.  1.
<mgrwt>
<rscale>  0 0.14051647E+04</rscale>
<asrwt>0</asrwt>
<pdfrwt beam="1">  1        1 0.98843882E-01 0.14051647E+04</pdfrwt>
<pdfrwt beam="2">  1       -1 0.11820014E+00 0.14051647E+04</pdfrwt>
<totfact> 0.19407939E+01</totfact>
</mgrwt>
</event>
<event>
12    3  0.4773567E-008  0.1082837E+04  0.7818608E-02  0.9222083E-01
          1   -1    0    0  501    0  0.00000000000E+00  0.00000000000E+00  0.64719720852E+03  0.64719720852E+03  0.00000000000E+00 0. -1.
         -1   -1    0    0    0  501 -0.00000000000E+00 -0.00000000000E+00 -0.45292851993E+03  0.45292851993E+03  0.00000000000E+00 0.  1.
         23    2    1    2    0    0  0.42527543730E+02 -0.95132700240E+01  0.18964436442E+03  0.21071772820E+03  0.80857168749E+02 0.  0.
        254    2    1    2    0    0 -0.42527543730E+02  0.95132700240E+01  0.46243241757E+01  0.88940800025E+03  0.88832770544E+03 0.  0.
         23    2    4    4    0    0 -0.15607673633E+03  0.35021580890E+03  0.22960008742E+03  0.45537328572E+03  0.87393185013E+02 0.  0.
         23    2    4    4    0    0  0.11354919260E+03 -0.34070253887E+03 -0.22497576324E+03  0.43403471453E+03  0.93810448434E+02 0.  0.
          3    1    3    3  502    0  0.23394324426E+02 -0.27536057849E+02  0.17858050721E+03  0.18219913955E+03  0.00000000000E+00 0. -1.
         -3    1    3    3    0  502  0.19133219304E+02  0.18022787825E+02  0.11063857205E+02  0.28518588643E+02  0.00000000000E+00 0.  1.
         13    1    5    5    0    0 -0.14333320293E+02  0.49493012054E+02  0.69121880925E+02  0.86213901057E+02  0.00000000000E+00 0. -1.
        -13    1    5    5    0    0 -0.14174341603E+03  0.30072279684E+03  0.16047820649E+03  0.36915938467E+03  0.00000000000E+00 0.  1.
          3    1    6    6  503    0  0.73621026655E+02 -0.28890710226E+03 -0.21568875394E+03  0.36797962970E+03  0.00000000000E+00 0.  1.
         -3    1    6    6    0  503  0.39928165941E+02 -0.51795436613E+02 -0.92870093053E+01  0.66055084824E+02  0.00000000000E+00 0. -1.
<mgrwt>
<rscale>  0 0.10828372E+04</rscale>
<asrwt>0</asrwt>
<pdfrwt beam="1">  1        1 0.99568802E-01 0.10828372E+04</pdfrwt>
<pdfrwt beam="2">  1       -1 0.69681311E-01 0.10828372E+04</pdfrwt>
<totfact> 0.63710274E+01</totfact>
</mgrwt>
</event>
<event>
12    3  0.4773567E-008  0.2387813E+04  0.7818608E-02  0.8444080E-01
          2   -1    0    0  501    0  0.00000000000E+00  0.00000000000E+00  0.29472952203E+04  0.29472952203E+04  0.00000000000E+00 0. -1.
         -2   -1    0    0    0  501 -0.00000000000E+00 -0.00000000000E+00 -0.48363399204E+03  0.48363399204E+03  0.00000000000E+00 0.  1.
         23    2    1    2    0    0  0.75818700826E+03 -0.64977168133E+03  0.13602587867E+04  0.16895936614E+04  0.85860330137E+02 0.  0.
        254    2    1    2    0    0 -0.75818700826E+03  0.64977168133E+03  0.11034024415E+04  0.17413355510E+04  0.90426864138E+03 0.  0.
         23    2    4    4    0    0  0.73380129836E+02  0.47833640319E+03  0.42881608481E+03  0.65305369097E+03  0.91681680991E+02 0.  0.
         23    2    4    4    0    0 -0.83156713809E+03  0.17143527814E+03  0.67458635673E+03  0.10882818600E+04  0.91633478620E+02 0.  0.
          2    1    3    3  502    0  0.56033252311E+03 -0.52203866763E+03  0.10097789955E+04  0.12673399413E+04  0.00000000000E+00 0. -1.
         -2    1    3    3    0  502  0.19785448515E+03 -0.12773301371E+03  0.35047979122E+03  0.42225372010E+03  0.00000000000E+00 0.  1.
         13    1    5    5    0    0 -0.95393865386E+01  0.16836557602E+03  0.11412849044E+03  0.20362534080E+03  0.00000000000E+00 0. -1.
        -13    1    5    5    0    0  0.82919516374E+02  0.30997082717E+03  0.31468759437E+03  0.44942835017E+03  0.00000000000E+00 0.  1.
          1    1    6    6  503    0 -0.15159290199E+03  0.25891802944E+01  0.14753779651E+03  0.21155262511E+03  0.00000000000E+00 0. -1.
         -1    1    6    6    0  503 -0.67997423610E+03  0.16884609784E+03  0.52704856022E+03  0.87672923491E+03  0.00000000000E+00 0.  1.
<mgrwt>
<rscale>  0 0.23878125E+04</rscale>
<asrwt>0</asrwt>
<pdfrwt beam="1">  1        2 0.45343003E+00 0.23878125E+04</pdfrwt>
<pdfrwt beam="2">  1       -2 0.74405231E-01 0.23878125E+04</pdfrwt>
<totfact> 0.27487604E+00</totfact>
</mgrwt>
</event>
<event>
12    3  0.4773567E-008  0.1386398E+04  0.7818608E-02  0.8963724E-01
          2   -1    0    0  501    0  0.00000000000E+00  0.00000000000E+00  0.11190564408E+04  0.11190564408E+04  0.00000000000E+00 0. -1.
         -2   -1    0    0    0  501 -0.00000000000E+00 -0.00000000000E+00 -0.42940189319E+03  0.42940189319E+03  0.00000000000E+00 0.  1.
         23    2    1    2    0    0  0.31661800424E+03 -0.22614471191E+03  0.13737977336E+03  0.42255555179E+03  0.91058228000E+02 0.  0.
        254    2    1    2    0    0 -0.31661800424E+03  0.22614471191E+03  0.55227477421E+03  0.11259027821E+04  0.90070042594E+03 0.  0.
         23    2    4    4    0    0 -0.56450861095E+03  0.36755713809E+03  0.35052732724E+03  0.76483236262E+03  0.91273841686E+02 0.  0.
         23    2    4    4    0    0  0.24789060671E+03 -0.14141242618E+03  0.20174744697E+03  0.36107041953E+03  0.90678488776E+02 0.  0.
          1    1    3    3  502    0  0.38429490233E+02 -0.59220020793E+01 -0.69832279852E+01  0.39505206003E+02  0.00000000000E+00 0. -1.
         -1    1    3    3    0  502  0.27818851401E+03 -0.22022270983E+03  0.14436300135E+03  0.38305034579E+03  0.00000000000E+00 0.  1.
         13    1    5    5    0    0 -0.18520028249E+03  0.72209286633E+02  0.92878940483E+02  0.21940789251E+03  0.00000000000E+00 0. -1.
        -13    1    5    5    0    0 -0.37930832846E+03  0.29534785146E+03  0.25764838676E+03  0.54542447011E+03  0.00000000000E+00 0.  1.
          3    1    6    6  503    0  0.12271249644E+03 -0.28398667014E+02  0.54705289937E+02  0.13732264860E+03  0.00000000000E+00 0. -1.
         -3    1    6    6    0  503  0.12517811027E+03 -0.11301375916E+03  0.14704215703E+03  0.22374777093E+03  0.00000000000E+00 0.  1.
<mgrwt>
<rscale>  0 0.13863981E+04</rscale>
<asrwt>0</asrwt>
<pdfrwt beam="1">  1        2 0.17216253E+00 0.13863981E+04</pdfrwt>
<pdfrwt beam="2">  1       -2 0.66061830E-01 0.13863981E+04</pdfrwt>
<totfact> 0.43558873E+01</totfact>
</mgrwt>
</event>
<event>
12    3  0.4773567E-008  0.1831447E+04  0.7818608E-02  0.8689753E-01
          1   -1    0    0  501    0  0.00000000000E+00  0.00000000000E+00  0.17765521213E+04  0.17765521213E+04  0.00000000000E+00 0. -1.
         -1   -1    0    0    0  501 -0.00000000000E+00 -0.00000000000E+00 -0.47200959028E+03  0.47200959028E+03  0.00000000000E+00 0.  1.
         23    2    1    2    0    0  0.20922396850E+03  0.70772948358E+02 -0.31132311725E+03  0.39231336993E+03  0.90577136647E+02 0.  0.
        254    2    1    2    0    0 -0.20922396850E+03 -0.70772948358E+02  0.16158656482E+04  0.18562483416E+04  0.88648329560E+03 0.  0.
         23    2    4    4    0    0  0.15939300227E+03  0.26482809084E+03  0.10407437606E+04  0.10894556305E+04  0.90697016272E+02 0.  0.
         23    2    4    4    0    0 -0.36861697077E+03 -0.33560103919E+03  0.57512188763E+03  0.76679271109E+03  0.93270292741E+02 0.  0.
          4    1    3    3  502    0  0.96878088049E+02  0.31083477535E+02 -0.70975683185E+02  0.12405278765E+03  0.00000000000E+00 0. -1.
         -4    1    3    3    0  502  0.11234588045E+03  0.39689470823E+02 -0.24034743406E+03  0.26826058228E+03  0.00000000000E+00 0.  1.
         13    1    5    5    0    0  0.11625180323E+03  0.24103487081E+03  0.79527598599E+03  0.83909247679E+03  0.00000000000E+00 0.  1.
        -13    1    5    5    0    0  0.43141199038E+02  0.23793220024E+02  0.24546777462E+03  0.25036315374E+03  0.00000000000E+00 0. -1.
          3    1    6    6  503    0 -0.10240935589E+03 -0.10390269602E+03  0.23535178562E+03  0.27690054064E+03  0.00000000000E+00 0. -1.
         -3    1    6    6    0  503 -0.26620761488E+03 -0.23169834317E+03  0.33977010202E+03  0.48989217045E+03  0.00000000000E+00 0.  1.
<mgrwt>
<rscale>  0 0.18314471E+04</rscale>
<asrwt>0</asrwt>
<pdfrwt beam="1">  1        1 0.27331571E+00 0.18314471E+04</pdfrwt>
<pdfrwt beam="2">  1       -1 0.72616861E-01 0.18314471E+04</pdfrwt>
<totfact> 0.76062554E+00</totfact>
</mgrwt>
</event>
<event>
12    3  0.4773567E-008  0.4094956E+04  0.7818608E-02  0.7985660E-01
         -2   -1    0    0    0  501 -0.00000000000E+00  0.00000000000E+00  0.25691328250E+04  0.25691328250E+04  0.00000000000E+00 0.  1.
          2   -1    0    0  501    0  0.00000000000E+00 -0.00000000000E+00 -0.16317435284E+04  0.16317435284E+04  0.00000000000E+00 0. -1.
         23    2    1    2    0    0  0.52739207756E+03 -0.47525275722E+03  0.22872830500E+04  0.23966511083E+04  0.90913129147E+02 0.  0.
        254    2    1    2    0    0 -0.52739207756E+03  0.47525275722E+03 -0.13498937535E+04  0.18042252452E+04  0.96385061227E+03 0.  0.
         23    2    4    4    0    0 -0.74860823318E+03  0.23613622538E+03 -0.11988590985E+04  0.14358568699E+04  0.90814145583E+02 0.  0.
         23    2    4    4    0    0  0.22121615562E+03  0.23911653185E+03 -0.15103465501E+03  0.36836837526E+03  0.82282984704E+02 0.  0.
          3    1    3    3  502    0  0.32001252525E+02 -0.32886539089E+02  0.23957873840E+03  0.24393354937E+03  0.00000000000E+00 0. -1.
         -3    1    3    3    0  502  0.49539082504E+03 -0.44236621813E+03  0.20477043116E+04  0.21527175589E+04  0.00000000000E+00 0.  1.
         13    1    5    5    0    0 -0.25390114826E+03  0.35561594808E+02 -0.39076272301E+03  0.46736059505E+03  0.00000000000E+00 0. -1.
        -13    1    5    5    0    0 -0.49470708492E+03  0.20057463057E+03 -0.80809637549E+03  0.96849627484E+03  0.00000000000E+00 0.  1.
          4    1    6    6  503    0  0.16553942275E+02  0.65603351895E+02 -0.29519411663E+02  0.73818889518E+02  0.00000000000E+00 0. -1.
         -4    1    6    6    0  503  0.20466221335E+03  0.17351317995E+03 -0.12151524334E+03  0.29454948575E+03  0.00000000000E+00 0.  1.
<mgrwt>
<rscale>  0 0.40949559E+04</rscale>
<asrwt>0</asrwt>
<pdfrwt beam="1">  1        2 0.25103747E+00 0.40949559E+04</pdfrwt>
<pdfrwt beam="2">  1       -2 0.39525120E+00 0.40949559E+04</pdfrwt>
<totfact> 0.66786479E-02</totfact>
</mgrwt>
</event>
<event>
12    3  0.4773567E-008  0.2161593E+04  0.7818608E-02  0.8534586E-01
          3   -1    0    0  501    0  0.00000000000E+00  0.00000000000E+00  0.35913909693E+03  0.35913909693E+03  0.00000000000E+00 0. -1.
         -3   -1    0    0    0  501 -0.00000000000E+00 -0.00000000000E+00 -0.32525601203E+04  0.32525601203E+04  0.00000000000E+00 0.  1.
         23    2    1    2    0    0 -0.49741881988E+03 -0.10474555565E+03 -0.23304776777E+04  0.23869056717E+04  0.88291365983E+02 0.  0.
        254    2    1    2    0    0  0.49741881988E+03  0.10474555565E+03 -0.56294334570E+03  0.12247935456E+04  0.96167401187E+03 0.  0.
         23    2    4    4    0    0  0.89348990638E+02 -0.15114069075E+03  0.22303442152E+03  0.29862477473E+03  0.92766655471E+02 0.  0.
         23    2    4    4    0    0  0.40806982924E+03  0.25588624640E+03 -0.78597776722E+03  0.92616877089E+03  0.89603487461E+02 0.  0.
          2    1    3    3  502    0 -0.28953847993E+03 -0.16738876483E+02 -0.13411692521E+04  0.13721689707E+04  0.00000000000E+00 0. -1.
         -2    1    3    3    0  502 -0.20788033995E+03 -0.88006679171E+02 -0.98930842564E+03  0.10147367010E+04  0.00000000000E+00 0.  1.
         13    1    5    5    0    0  0.38211515557E+02 -0.12353227129E+03  0.19531096492E+03  0.23423645102E+03  0.00000000000E+00 0. -1.
        -13    1    5    5    0    0  0.51137475082E+02 -0.27608419465E+02  0.27723456601E+02  0.64388323701E+02  0.00000000000E+00 0.  1.
          1    1    6    6  503    0  0.37744322516E+03  0.24267641932E+03 -0.76461023254E+03  0.88655740955E+03  0.00000000000E+00 0. -1.
         -1    1    6    6    0  503  0.30626604077E+02  0.13209827086E+02 -0.21367534679E+02  0.39611361339E+02  0.00000000000E+00 0.  1.
<mgrwt>
<rscale>  0 0.21615934E+04</rscale>
<asrwt>0</asrwt>
<pdfrwt beam="1">  1        3 0.55252171E-01 0.21615934E+04</pdfrwt>
<pdfrwt beam="2">  1       -3 0.50039385E+00 0.21615934E+04</pdfrwt>
<totfact> 0.23428113E-02</totfact>
</mgrwt>
</event>
<event>
12    3  0.4773567E-008  0.2048378E+04  0.7818608E-02  0.8584331E-01
         -2   -1    0    0    0  501 -0.00000000000E+00  0.00000000000E+00  0.44551706626E+03  0.44551706626E+03  0.00000000000E+00 0.  1.
          2   -1    0    0  501    0  0.00000000000E+00 -0.00000000000E+00 -0.23544836637E+04  0.23544836637E+04  0.00000000000E+00 0. -1.
         23    2    1    2    0    0 -0.73522956351E+02 -0.32024486096E+03  0.25305254566E+03  0.42389499491E+03  0.87686827727E+02 0.  0.
        254    2    1    2    0    0  0.73522956351E+02  0.32024486096E+03 -0.21620191431E+04  0.23761057350E+04  0.92929505161E+03 0.  0.
         23    2    4    4    0    0  0.23696490664E+03  0.59837022312E+03 -0.14412012636E+04  0.15809630006E+04  0.90463451885E+02 0.  0.
         23    2    4    4    0    0 -0.16344195029E+03 -0.27812536215E+03 -0.72081787942E+03  0.79514273439E+03  0.92771572070E+02 0.  0.
          4    1    3    3  502    0 -0.66580608202E+01 -0.18277332406E+03  0.17106323207E+03  0.25042573176E+03  0.00000000000E+00 0.  1.
         -4    1    3    3    0  502 -0.66864895531E+02 -0.13747153690E+03  0.81989313592E+02  0.17346926315E+03  0.00000000000E+00 0. -1.
         13    1    5    5    0    0  0.18437487817E+03  0.35281132406E+03 -0.84763912648E+03  0.93646250049E+03  0.00000000000E+00 0. -1.
        -13    1    5    5    0    0  0.52590028472E+02  0.24555889906E+03 -0.59356213716E+03  0.64450050013E+03  0.00000000000E+00 0.  1.
          4    1    6    6  503    0 -0.15514512428E+03 -0.18599302132E+03 -0.49381365107E+03  0.55001394124E+03  0.00000000000E+00 0. -1.
         -4    1    6    6    0  503 -0.82968260106E+01 -0.92132340834E+02 -0.22700422834E+03  0.24512879316E+03  0.00000000000E+00 0.  1.
<mgrwt>
<rscale>  0 0.20483776E+04</rscale>
<asrwt>0</asrwt>
<pdfrwt beam="1">  1        2 0.36222826E+00 0.20483776E+04</pdfrwt>
<pdfrwt beam="2">  1       -2 0.68541087E-01 0.20483776E+04</pdfrwt>
<totfact> 0.76042994E+00</totfact>
</mgrwt>
</event>
<event>
12    3  0.4773567E-008  0.1190139E+04  0.7818608E-02  0.9121532E-01
         -1   -1    0    0    0  501 -0.00000000000E+00  0.00000000000E+00  0.89992408575E+02  0.89992408575E+02  0.00000000000E+00 0.  1.
          1   -1    0    0  501    0  0.00000000000E+00 -0.00000000000E+00 -0.39348594684E+04  0.39348594684E+04  0.00000000000E+00 0. -1.
         23    2    1    2    0    0 -0.22532948617E+03 -0.36489982200E+02 -0.54273353148E+03  0.59602690560E+03  0.92647125528E+02 0.  0.
        254    2    1    2    0    0  0.22532948617E+03  0.36489982200E+02 -0.33021335283E+04  0.34288249714E+04  0.89479044986E+03 0.  0.
         23    2    4    4    0    0  0.27774309522E+03  0.31372241585E+03 -0.78732468390E+03  0.89655273753E+03  0.91453114545E+02 0.  0.
         23    2    4    4    0    0 -0.52413609057E+02 -0.27723243365E+03 -0.25148088444E+04  0.25322722338E+04  0.92380373863E+02 0.  0.
          2    1    3    3  502    0 -0.43696917646E+02  0.42805295773E+01 -0.38024235316E+02  0.58082579286E+02  0.00000000000E+00 0. -1.
         -2    1    3    3    0  502 -0.18163256852E+03 -0.40770511778E+02 -0.50470929616E+03  0.53794432631E+03  0.00000000000E+00 0.  1.
         13    1    5    5    0    0  0.18500230355E+03  0.19892803790E+03 -0.41456592335E+03  0.49564414794E+03  0.00000000000E+00 0. -1.
        -13    1    5    5    0    0  0.92740791671E+02  0.11479437795E+03 -0.37275876055E+03  0.40090858960E+03  0.00000000000E+00 0.  1.
          1    1    6    6  503    0 -0.21847078616E+02 -0.24486618491E+03 -0.18973032971E+04  0.19131640141E+04  0.00000000000E+00 0. -1.
         -1    1    6    6    0  503 -0.30566530441E+02 -0.32366248731E+02 -0.61750554729E+03  0.61910821976E+03  0.00000000000E+00 0.  1.
<mgrwt>
<rscale>  0 0.11901386E+04</rscale>
<asrwt>0</asrwt>
<pdfrwt beam="1">  1        1 0.60536291E+00 0.11901386E+04</pdfrwt>
<pdfrwt beam="2">  1       -1 0.13844988E-01 0.11901386E+04</pdfrwt>
<totfact> 0.41983772E+00</totfact>
</mgrwt>
</event>
<event>
12    3  0.4773567E-008  0.2643793E+04  0.7818608E-02  0.8353476E-01
          1   -1    0    0  501    0  0.00000000000E+00  0.00000000000E+00  0.18463150282E+04  0.18463150282E+04  0.00000000000E+00 0. -1.
         -1   -1    0    0    0  501 -0.00000000000E+00 -0.00000000000E+00 -0.94643112978E+03  0.94643112978E+03  0.00000000000E+00 0.  1.
         23    2    1    2    0    0 -0.17860865153E+02  0.10626796051E+04  0.88649060468E+03  0.13870828360E+04  0.92337686479E+02 0.  0.
        254    2    1    2    0    0  0.17860865153E+02 -0.10626796051E+04  0.13393293690E+02  0.14056633219E+04  0.91983859491E+03 0.  0.
         23    2    4    4    0    0 -0.16368551290E+03 -0.83939847788E+03  0.37099975600E+03  0.93680487969E+03  0.92627273817E+02 0.  0.
         23    2    4    4    0    0  0.18154637806E+03 -0.22328112718E+03 -0.35760646231E+03  0.46885844220E+03  0.95563108999E+02 0.  0.
          1    1    3    3  502    0 -0.22915922687E+02  0.81324317647E+03  0.62726885152E+03  0.10273051230E+04  0.00000000000E+00 0. -1.
         -1    1    3    3    0  502  0.50550575345E+01  0.24943642859E+03  0.25922175316E+03  0.35977771307E+03  0.00000000000E+00 0.  1.
         13    1    5    5    0    0 -0.77881988030E+02 -0.47863337953E+03  0.16279406892E+03  0.51152460834E+03  0.00000000000E+00 0. -1.
        -13    1    5    5    0    0 -0.85803524872E+02 -0.36076509835E+03  0.20820568708E+03  0.42528027135E+03  0.00000000000E+00 0.  1.
          1    1    6    6  503    0  0.16560766810E+03 -0.18097819256E+03 -0.34230814844E+03  0.42113403378E+03  0.00000000000E+00 0.  1.
         -1    1    6    6    0  503  0.15938709950E+02 -0.42302934619E+02 -0.15298313867E+02  0.47724408424E+02  0.00000000000E+00 0. -1.
<mgrwt>
<rscale>  0 0.26437927E+04</rscale>
<asrwt>0</asrwt>
<pdfrwt beam="1">  1        1 0.28404847E+00 0.26437927E+04</pdfrwt>
<pdfrwt beam="2">  1       -1 0.14560479E+00 0.26437927E+04</pdfrwt>
<totfact> 0.12562045E+00</totfact>
</mgrwt>
</event>
<event>
12    3  0.4773567E-008  0.2338068E+04  0.7818608E-02  0.8463061E-01
          1   -1    0    0  501    0  0.00000000000E+00  0.00000000000E+00  0.11991052853E+04  0.11991052853E+04  0.00000000000E+00 0. -1.
         -1   -1    0    0    0  501 -0.00000000000E+00 -0.00000000000E+00 -0.11397169271E+04  0.11397169271E+04  0.00000000000E+00 0.  1.
         23    2    1    2    0    0 -0.46562536733E+02  0.27905026131E+03 -0.92476035166E+03  0.97126436016E+03  0.90197733689E+02 0.  0.
        254    2    1    2    0    0  0.46562536733E+02 -0.27905026131E+03  0.98414870986E+03  0.13675578522E+04  0.90643735461E+03 0.  0.
         23    2    4    4    0    0 -0.21561425281E+03  0.25482334695E+03  0.39484287445E+03  0.52508444098E+03  0.91587829400E+02 0.  0.
         23    2    4    4    0    0  0.26217678954E+03 -0.53387360826E+03  0.58930583541E+03  0.84247341121E+03  0.93393695635E+02 0.  0.
          2    1    3    3  502    0 -0.10185534997E+02  0.23329892470E+01 -0.85944456918E+01  0.13529688051E+02  0.00000000000E+00 0. -1.
         -2    1    3    3    0  502 -0.36377001736E+02  0.27671727206E+03 -0.91616590596E+03  0.95773467211E+03  0.00000000000E+00 0.  1.
         13    1    5    5    0    0 -0.11661598820E+03  0.86551050044E+02  0.12249400447E+03  0.18998724720E+03  0.00000000000E+00 0.  1.
        -13    1    5    5    0    0 -0.98998264603E+02  0.16827229691E+03  0.27234886998E+03  0.33509719378E+03  0.00000000000E+00 0. -1.
          3    1    6    6  503    0  0.19824262895E+03 -0.46945577183E+03  0.47628113211E+03  0.69751887318E+03  0.00000000000E+00 0.  1.
         -3    1    6    6    0  503  0.63934160585E+02 -0.64417836427E+02  0.11302470330E+03  0.14495453803E+03  0.00000000000E+00 0. -1.
<mgrwt>
<rscale>  0 0.23380681E+04</rscale>
<asrwt>0</asrwt>
<pdfrwt beam="1">  1        1 0.18447774E+00 0.23380681E+04</pdfrwt>
<pdfrwt beam="2">  1       -1 0.17534106E+00 0.23380681E+04</pdfrwt>
<totfact> 0.21684898E+00</totfact>
</mgrwt>
</event>
<event>
12    3  0.4773567E-008  0.1253206E+04  0.7818608E-02  0.9067519E-01
         -2   -1    0    0    0  501 -0.00000000000E+00  0.00000000000E+00  0.27825045201E+03  0.27825045201E+03  0.00000000000E+00 0.  1.
          2   -1    0    0  501    0  0.00000000000E+00 -0.00000000000E+00 -0.14110707746E+04  0.14110707746E+04  0.00000000000E+00 0. -1.
         23    2    1    2    0    0 -0.24094593899E+03 -0.38739276371E+02 -0.45699415712E+03  0.52605061874E+03  0.91268377777E+02 0.  0.
        254    2    1    2    0    0  0.24094593899E+03  0.38739276371E+02 -0.67582616547E+03  0.11632706079E+04  0.91482338412E+03 0.  0.
         23    2    4    4    0    0 -0.14610687977E+03  0.38278897002E+03 -0.26805269182E+03  0.49804575135E+03  0.91228882277E+02 0.  0.
         23    2    4    4    0    0  0.38705281876E+03 -0.34404969365E+03 -0.40777347364E+03  0.66522485651E+03  0.89804385733E+02 0.  0.
          4    1    3    3  502    0 -0.16425253328E+03 -0.68497350775E+02 -0.32446785615E+03  0.37006779301E+03  0.00000000000E+00 0. -1.
         -4    1    3    3    0  502 -0.76693405707E+02  0.29758074404E+02 -0.13252630097E+03  0.15598282572E+03  0.00000000000E+00 0.  1.
         13    1    5    5    0    0 -0.78732525104E+02  0.31140921850E+03 -0.21433881411E+03  0.38615494184E+03  0.00000000000E+00 0. -1.
        -13    1    5    5    0    0 -0.67374354664E+02  0.71379751519E+02 -0.53713877714E+02  0.11189080951E+03  0.00000000000E+00 0.  1.
          4    1    6    6  503    0  0.37836038281E+03 -0.34548250206E+03 -0.38525073201E+03  0.64104045506E+03  0.00000000000E+00 0. -1.
         -4    1    6    6    0  503  0.86924359504E+01  0.14328084075E+01 -0.22522741636E+02  0.24184401450E+02  0.00000000000E+00 0.  1.
<mgrwt>
<rscale>  0 0.12532056E+04</rscale>
<asrwt>0</asrwt>
<pdfrwt beam="1">  1        2 0.21708781E+00 0.12532056E+04</pdfrwt>
<pdfrwt beam="2">  1       -2 0.42807762E-01 0.12532056E+04</pdfrwt>
<totfact> 0.72511943E+01</totfact>
</mgrwt>
</event>
<event>
12    3  0.4773567E-008  0.2137240E+04  0.7818608E-02  0.8545014E-01
         -1   -1    0    0    0  501 -0.00000000000E+00  0.00000000000E+00  0.93995045632E+03  0.93995045632E+03  0.00000000000E+00 0.  1.
          1   -1    0    0  501    0  0.00000000000E+00 -0.00000000000E+00 -0.12149030319E+04  0.12149030319E+04  0.00000000000E+00 0. -1.
         23    2    1    2    0    0 -0.62958092673E+03 -0.26801996677E+03 -0.66278919427E+03  0.95679934659E+03  0.89267170383E+02 0.  0.
        254    2    1    2    0    0  0.62958092673E+03  0.26801996677E+03  0.38783661871E+03  0.11980541416E+04  0.90371988885E+03 0.  0.
         23    2    4    4    0    0 -0.33587272172E+02 -0.25886412494E+03  0.44608182059E+02  0.27996696008E+03  0.90845301457E+02 0.  0.
         23    2    4    4    0    0  0.66316819891E+03  0.52688409171E+03  0.34322843666E+03  0.91808718153E+03  0.87632225931E+02 0.  0.
          4    1    3    3  502    0 -0.59185583696E+03 -0.27278232797E+03 -0.61912060374E+03  0.89889590731E+03  0.00000000000E+00 0. -1.
         -4    1    3    3    0  502 -0.37725089775E+02  0.47623611980E+01 -0.43668590528E+02  0.57903439288E+02  0.00000000000E+00 0.  1.
         13    1    5    5    0    0 -0.32499424507E+02 -0.21431206454E+02  0.76062343217E+01  0.39665652698E+02  0.00000000000E+00 0. -1.
        -13    1    5    5    0    0 -0.10878476647E+01 -0.23743291848E+03  0.37001947737E+02  0.24030130738E+03  0.00000000000E+00 0.  1.
          1    1    6    6  503    0  0.22571789251E+02  0.35340312073E+01  0.93941004629E+00  0.22866078322E+02  0.00000000000E+00 0. -1.
         -1    1    6    6    0  503  0.64059640965E+03  0.52335006050E+03  0.34228902661E+03  0.89522110321E+03  0.00000000000E+00 0.  1.
<mgrwt>
<rscale>  0 0.21372400E+04</rscale>
<asrwt>0</asrwt>
<pdfrwt beam="1">  1        1 0.18690816E+00 0.21372400E+04</pdfrwt>
<pdfrwt beam="2">  1       -1 0.14460776E+00 0.21372400E+04</pdfrwt>
<totfact> 0.36767215E+00</totfact>
</mgrwt>
</event>
<event>
12    3  0.4773567E-008  0.1903110E+04  0.7818608E-02  0.8653310E-01
          2   -1    0    0  501    0  0.00000000000E+00  0.00000000000E+00  0.12486349478E+04  0.12486349478E+04  0.00000000000E+00 0. -1.
         -2   -1    0    0    0  501 -0.00000000000E+00 -0.00000000000E+00 -0.72515724460E+03  0.72515724460E+03  0.00000000000E+00 0.  1.
         23    2    1    2    0    0 -0.15331034575E+03  0.59808373428E+03  0.61521539705E+03  0.87697641452E+03  0.96899079145E+02 0.  0.
        254    2    1    2    0    0  0.15331034575E+03 -0.59808373428E+03 -0.91737693876E+02  0.10968157779E+04  0.90187628351E+03 0.  0.
         23    2    4    4    0    0  0.25323697257E+03 -0.79817521477E+03 -0.10659096870E+02  0.84244921013E+03  0.91621054159E+02 0.  0.
         23    2    4    4    0    0 -0.99926626816E+02  0.20009148049E+03 -0.81078597006E+02  0.25436656772E+03  0.90037106641E+02 0.  0.
          2    1    3    3  502    0 -0.13835225378E+03  0.59069832701E+03  0.60763232569E+03  0.85865179373E+03  0.00000000000E+00 0. -1.
         -2    1    3    3    0  502 -0.14958091968E+02  0.73854072682E+01  0.75830713636E+01  0.18324620791E+02  0.00000000000E+00 0.  1.
         13    1    5    5    0    0  0.18298102834E+03 -0.60294511437E+03 -0.46815561716E+02  0.63183586832E+03  0.00000000000E+00 0. -1.
        -13    1    5    5    0    0  0.70255944228E+02 -0.19523010039E+03  0.36156464846E+02  0.21061334181E+03  0.00000000000E+00 0.  1.
          2    1    6    6  503    0 -0.10737499251E+03  0.13148841835E+03 -0.41284375213E+02  0.17470830780E+03  0.00000000000E+00 0. -1.
         -2    1    6    6    0  503  0.74483656959E+01  0.68603062136E+02 -0.39794221793E+02  0.79658259923E+02  0.00000000000E+00 0.  1.
<mgrwt>
<rscale>  0 0.19031097E+04</rscale>
<asrwt>0</asrwt>
<pdfrwt beam="1">  1        2 0.19209768E+00 0.19031097E+04</pdfrwt>
<pdfrwt beam="2">  1       -2 0.11156265E+00 0.19031097E+04</pdfrwt>
<totfact> 0.10536440E+01</totfact>
</mgrwt>
</event>
<event>
12    3  0.4773567E-008  0.2492273E+04  0.7818608E-02  0.8405743E-01
          2   -1    0    0  501    0  0.00000000000E+00  0.00000000000E+00  0.13876438329E+04  0.13876438329E+04  0.00000000000E+00 0. -1.
         -2   -1    0    0    0  501 -0.00000000000E+00 -0.00000000000E+00 -0.11190599646E+04  0.11190599646E+04  0.00000000000E+00 0.  1.
         23    2    1    2    0    0 -0.34399361023E+03  0.22704563947E+03 -0.88938393152E+03  0.98446456636E+03  0.91024054419E+02 0.  0.
        254    2    1    2    0    0  0.34399361023E+03 -0.22704563947E+03  0.11579677999E+04  0.15222392311E+04  0.89802089339E+03 0.  0.
         23    2    4    4    0    0  0.13001013348E+03  0.23400724111E+03  0.90436191163E+03  0.94743436399E+03  0.89996573098E+02 0.  0.
         23    2    4    4    0    0  0.21398347675E+03 -0.46105288058E+03  0.25360588827E+03  0.57480486715E+03  0.87897677613E+02 0.  0.
          2    1    3    3  502    0 -0.17037891323E+01  0.15046237170E+00  0.22376975263E+01  0.28165273924E+01  0.00000000000E+00 0. -1.
         -2    1    3    3    0  502 -0.34228982109E+03  0.22689517710E+03 -0.89162162905E+03  0.98164803896E+03  0.00000000000E+00 0.  1.
         13    1    5    5    0    0  0.14334678767E+02  0.82073024394E+01  0.14067394236E+02  0.21696414664E+02  0.00000000000E+00 0. -1.
        -13    1    5    5    0    0  0.11567545471E+03  0.22579993867E+03  0.89029451739E+03  0.92573794933E+03  0.00000000000E+00 0.  1.
          1    1    6    6  503    0  0.14175641453E+02 -0.56933368853E+02  0.60788345141E+02  0.84484200916E+02  0.00000000000E+00 0. -1.
         -1    1    6    6    0  503  0.19980783530E+03 -0.40411951172E+03  0.19281754312E+03  0.49032066624E+03  0.00000000000E+00 0.  1.
<mgrwt>
<rscale>  0 0.24922734E+04</rscale>
<asrwt>0</asrwt>
<pdfrwt beam="1">  1        2 0.21348367E+00 0.24922734E+04</pdfrwt>
<pdfrwt beam="2">  1       -2 0.17216307E+00 0.24922734E+04</pdfrwt>
<totfact> 0.27009512E+00</totfact>
</mgrwt>
</event>
<event>
12    3  0.4773567E-008  0.1266204E+04  0.7818608E-02  0.9056803E-01
          2   -1    0    0  501    0  0.00000000000E+00  0.00000000000E+00  0.13432854938E+04  0.13432854938E+04  0.00000000000E+00 0.  1.
         -2   -1    0    0    0  501 -0.00000000000E+00 -0.00000000000E+00 -0.29838648540E+03  0.29838648540E+03  0.00000000000E+00 0. -1.
         23    2    1    2    0    0  0.39114758165E+02  0.81094242793E+02 -0.11174024732E+03  0.16972731995E+03  0.90637959741E+02 0.  0.
        254    2    1    2    0    0 -0.39114758165E+02 -0.81094242793E+02  0.11566392557E+04  0.14719446593E+04  0.90592520194E+03 0.  0.
         23    2    4    4    0    0 -0.23602628818E+03 -0.72858088244E+02 -0.30195496921E+02  0.26495012007E+03  0.90940026154E+02 0.  0.
         23    2    4    4    0    0  0.19691153002E+03 -0.82361545490E+01  0.11868347527E+04  0.12069945392E+04  0.97041757187E+02 0.  0.
          3    1    3    3  502    0  0.36595519277E+02  0.76321401701E+01 -0.82583475615E+02  0.90650493872E+02  0.00000000000E+00 0. -1.
         -3    1    3    3    0  502  0.25192388879E+01  0.73462102623E+02 -0.29156771706E+02  0.79076826078E+02  0.00000000000E+00 0.  1.
         13    1    5    5    0    0 -0.22678566437E+03 -0.70399812950E+02 -0.50261531972E+02  0.24272225449E+03  0.00000000000E+00 0. -1.
        -13    1    5    5    0    0 -0.92406238126E+01 -0.24582752936E+01  0.20066035051E+02  0.22227865586E+02  0.00000000000E+00 0.  1.
          1    1    6    6  503    0  0.20282953432E+03 -0.22063469884E+02  0.11254653937E+04  0.11438089740E+04  0.00000000000E+00 0. -1.
         -1    1    6    6    0  503 -0.59180043036E+01  0.13827315335E+02  0.61369358998E+02  0.63185565188E+02  0.00000000000E+00 0.  1.
<mgrwt>
<rscale>  0 0.12662042E+04</rscale>
<asrwt>0</asrwt>
<pdfrwt beam="1">  1        2 0.20665930E+00 0.12662042E+04</pdfrwt>
<pdfrwt beam="2">  1       -2 0.45905614E-01 0.12662042E+04</pdfrwt>
<totfact> 0.68936830E+01</totfact>
</mgrwt>
</event>
<event>
12    3  0.4773567E-008  0.1769235E+04  0.7818608E-02  0.8722833E-01
          2   -1    0    0  501    0  0.00000000000E+00  0.00000000000E+00  0.43933138671E+04  0.43933138671E+04  0.00000000000E+00 0. -1.
         -2   -1    0    0    0  501 -0.00000000000E+00 -0.00000000000E+00 -0.17812259535E+03  0.17812259535E+03  0.00000000000E+00 0.  1.
         23    2    1    2    0    0  0.82021555955E+01 -0.13610137359E+03  0.31484999408E+04  0.31526778819E+04  0.87949363750E+02 0.  0.
        254    2    1    2    0    0 -0.82021555955E+01  0.13610137359E+03  0.10666913310E+04  0.14187585806E+04  0.92544835355E+03 0.  0.
         23    2    4    4    0    0 -0.56501862924E+02  0.21748510496E+03 -0.87969402747E+02  0.25648729077E+03  0.86918830582E+02 0.  0.
         23    2    4    4    0    0  0.48299707329E+02 -0.81383731372E+02  0.11546607337E+04  0.11622712898E+04  0.93150242235E+02 0.  0.
          3    1    3    3  502    0  0.21944117919E+02 -0.62259175939E+02  0.22741038039E+04  0.22750617267E+04  0.00000000000E+00 0. -1.
         -3    1    3    3    0  502 -0.13741962323E+02 -0.73842197652E+02  0.87439613687E+03  0.87761615519E+03  0.00000000000E+00 0.  1.
         13    1    5    5    0    0 -0.52943602594E+01  0.68354138555E+01 -0.31224149326E+02  0.32399083850E+02  0.00000000000E+00 0. -1.
        -13    1    5    5    0    0 -0.51207502665E+02  0.21064969111E+03 -0.56745253420E+02  0.22408820692E+03  0.00000000000E+00 0.  1.
          4    1    6    6  503    0 -0.26506321631E+02 -0.12472330573E+02  0.18708838313E+03  0.18936791497E+03  0.00000000000E+00 0. -1.
         -4    1    6    6    0  503  0.74806028960E+02 -0.68911400799E+02  0.96757235059E+03  0.97290337483E+03  0.00000000000E+00 0.  1.
<mgrwt>
<rscale>  0 0.17692354E+04</rscale>
<asrwt>0</asrwt>
<pdfrwt beam="1">  1        2 0.67589436E+00 0.17692354E+04</pdfrwt>
<pdfrwt beam="2">  1       -2 0.27403479E-01 0.17692354E+04</pdfrwt>
<totfact> 0.18267822E+00</totfact>
</mgrwt>
</event>
<event>
12    3  0.4773567E-008  0.1403659E+04  0.7818608E-02  0.8951174E-01
          2   -1    0    0  501    0  0.00000000000E+00  0.00000000000E+00  0.13408379993E+04  0.13408379993E+04  0.00000000000E+00 0. -1.
         -2   -1    0    0    0  501 -0.00000000000E+00 -0.00000000000E+00 -0.36735606122E+03  0.36735606122E+03  0.00000000000E+00 0.  1.
         23    2    1    2    0    0 -0.18510676261E+03 -0.35850096508E+03  0.21761247209E+03  0.46569047847E+03  0.82005964425E+02 0.  0.
        254    2    1    2    0    0  0.18510676261E+03  0.35850096508E+03  0.75586946595E+03  0.12425035820E+04  0.89982723132E+03 0.  0.
         23    2    4    4    0    0  0.41510342829E+03  0.35574962430E+03  0.81738503720E+03  0.98768791241E+03  0.92414619574E+02 0.  0.
         23    2    4    4    0    0 -0.22999666568E+03  0.27513407798E+01 -0.61515571254E+02  0.25481566960E+03  0.90778983623E+02 0.  0.
          3    1    3    3  502    0 -0.21354907961E+02 -0.94478345024E+01  0.26656962511E+02  0.35438500548E+02  0.00000000000E+00 0. -1.
         -3    1    3    3    0  502 -0.16375185465E+03 -0.34905313058E+03  0.19095550958E+03  0.43025197793E+03  0.00000000000E+00 0.  1.
         13    1    5    5    0    0  0.39423454263E+03  0.33925962401E+03  0.80485982619E+03  0.95828873879E+03  0.00000000000E+00 0.  1.
        -13    1    5    5    0    0  0.20868885660E+02  0.16490000294E+02  0.12525211010E+02  0.29399173615E+02  0.00000000000E+00 0. -1.
          2    1    6    6  503    0 -0.19079226168E+02 -0.41589049692E+00  0.20939927661E+02  0.28331438483E+02  0.00000000000E+00 0. -1.
         -2    1    6    6    0  503 -0.21091743951E+03  0.31672312768E+01 -0.82455498914E+02  0.22648423112E+03  0.00000000000E+00 0.  1.
<mgrwt>
<rscale>  0 0.14036595E+04</rscale>
<asrwt>0</asrwt>
<pdfrwt beam="1">  1        2 0.20628277E+00 0.14036595E+04</pdfrwt>
<pdfrwt beam="2">  1       -2 0.56516318E-01 0.14036595E+04</pdfrwt>
<totfact> 0.44730895E+01</totfact>
</mgrwt>
</event>
<event>
12    3  0.4773567E-008  0.2201513E+04  0.7818608E-02  0.8517799E-01
         -2   -1    0    0    0  501 -0.00000000000E+00  0.00000000000E+00  0.57557032990E+03  0.57557032990E+03  0.00000000000E+00 0.  1.
          2   -1    0    0  501    0  0.00000000000E+00 -0.00000000000E+00 -0.21051542907E+04  0.21051542907E+04  0.00000000000E+00 0. -1.
         23    2    1    2    0    0 -0.59864123905E+03 -0.51690654076E+03 -0.10283197097E+03  0.80272431728E+03  0.90709483120E+02 0.  0.
        254    2    1    2    0    0  0.59864123905E+03  0.51690654076E+03 -0.14267519898E+04  0.18780003033E+04  0.93043011223E+03 0.  0.
         23    2    4    4    0    0  0.73518633558E+03  0.39897085350E+03 -0.61717747961E+03  0.10434303123E+04  0.90344259809E+02 0.  0.
         23    2    4    4    0    0 -0.13654509653E+03  0.11793568726E+03 -0.80957451018E+03  0.83456999100E+03  0.92427228739E+02 0.  0.
          4    1    3    3  502    0 -0.57601236821E+03 -0.51497468825E+03 -0.10564434014E+03  0.77983966588E+03  0.00000000000E+00 0.  1.
         -4    1    3    3    0  502 -0.22628870836E+02 -0.19318525105E+01  0.28123691719E+01  0.22884651402E+02  0.00000000000E+00 0. -1.
         13    1    5    5    0    0  0.14035649959E+03  0.98728075079E+02 -0.16588710405E+03  0.23867490667E+03  0.00000000000E+00 0. -1.
        -13    1    5    5    0    0  0.59482983600E+03  0.30024277842E+03 -0.45129037557E+03  0.80475540562E+03  0.00000000000E+00 0.  1.
          3    1    6    6  503    0  0.12453905637E+02  0.78946778742E+01 -0.31938272709E+02  0.35177819261E+02  0.00000000000E+00 0. -1.
         -3    1    6    6    0  503 -0.14899900217E+03  0.11004100939E+03 -0.77763623748E+03  0.79939217173E+03  0.00000000000E+00 0.  1.
<mgrwt>
<rscale>  0 0.22015125E+04</rscale>
<asrwt>0</asrwt>
<pdfrwt beam="1">  1        2 0.32386989E+00 0.22015125E+04</pdfrwt>
<pdfrwt beam="2">  1       -2 0.88549282E-01 0.22015125E+04</pdfrwt>
<totfact> 0.58521677E+00</totfact>
</mgrwt>
</event>
<event>
12    3  0.4773567E-008  0.3012096E+04  0.7818608E-02  0.8240285E-01
         -2   -1    0    0    0  501 -0.00000000000E+00  0.00000000000E+00  0.15663149319E+04  0.15663149319E+04  0.00000000000E+00 0. -1.
          2   -1    0    0  501    0  0.00000000000E+00 -0.00000000000E+00 -0.14480998974E+04  0.14480998974E+04  0.00000000000E+00 0.  1.
         23    2    1    2    0    0  0.32943801485E+03 -0.11609248942E+04 -0.59666993703E+03  0.13486895592E+04  0.81685357677E+02 0.  0.
        254    2    1    2    0    0 -0.32943801485E+03  0.11609248942E+04  0.71488497147E+03  0.16657252701E+04  0.89850105032E+03 0.  0.
         23    2    4    4    0    0 -0.57078092755E+03  0.51822711052E+03  0.55789219191E+03  0.95558474188E+03  0.86880928755E+02 0.  0.
         23    2    4    4    0    0  0.24134291271E+03  0.64269778371E+03  0.15699277957E+03  0.71014052825E+03  0.91356413735E+02 0.  0.
          2    1    3    3  502    0  0.24222837176E+03 -0.96725404273E+03 -0.49149392578E+03  0.11116749733E+04  0.00000000000E+00 0.  1.
         -2    1    3    3    0  502  0.87209643082E+02 -0.19367085150E+03 -0.10517601124E+03  0.23701458586E+03  0.00000000000E+00 0. -1.
         13    1    5    5    0    0 -0.48265470781E+03  0.41425845371E+03  0.49237500330E+03  0.80436234205E+03  0.00000000000E+00 0.  1.
        -13    1    5    5    0    0 -0.88126219745E+02  0.10396865681E+03  0.65517188607E+02  0.15122239982E+03  0.00000000000E+00 0. -1.
          1    1    6    6  503    0  0.42713675678E+02  0.20418383045E+03  0.19635197822E+02  0.20952573994E+03  0.00000000000E+00 0. -1.
         -1    1    6    6    0  503  0.19862923703E+03  0.43851395326E+03  0.13735758175E+03  0.50061478830E+03  0.00000000000E+00 0.  1.
<mgrwt>
<rscale>  0 0.30120959E+04</rscale>
<asrwt>0</asrwt>
<pdfrwt beam="1">  1        2 0.22278460E+00 0.30120959E+04</pdfrwt>
<pdfrwt beam="2">  1       -2 0.24097153E+00 0.30120959E+04</pdfrwt>
<totfact> 0.84868700E-01</totfact>
</mgrwt>
</event>
<event>
12    3  0.4773567E-008  0.1367442E+04  0.7818608E-02  0.8977729E-01
          1   -1    0    0  501    0  0.00000000000E+00  0.00000000000E+00  0.27142040717E+04  0.27142040717E+04  0.00000000000E+00 0. -1.
         -1   -1    0    0    0  501 -0.00000000000E+00 -0.00000000000E+00 -0.17223249364E+03  0.17223249364E+03  0.00000000000E+00 0.  1.
         23    2    1    2    0    0 -0.31449997758E+03  0.19321678017E+03  0.93149296322E+03  0.10061252905E+04  0.91465839029E+02 0.  0.
        254    2    1    2    0    0  0.31449997758E+03 -0.19321678017E+03  0.16104786149E+04  0.18803112748E+04  0.89760022350E+03 0.  0.
         23    2    4    4    0    0 -0.11009397087E+03  0.20051544607E+03  0.11122623028E+03  0.27041240781E+03  0.91784908675E+02 0.  0.
         23    2    4    4    0    0  0.42459394845E+03 -0.39373222623E+03  0.14992523846E+04  0.16098988670E+04  0.93335750144E+02 0.  0.
          1    1    3    3  502    0 -0.10467556739E+03  0.66725707892E+02  0.43664159422E+03  0.45394402332E+03  0.00000000000E+00 0. -1.
         -1    1    3    3    0  502 -0.20982441018E+03  0.12649107227E+03  0.49485136900E+03  0.55218126723E+03  0.00000000000E+00 0.  1.
         13    1    5    5    0    0 -0.46970629227E+02  0.98072403268E+02  0.33266730843E+01  0.10879109820E+03  0.00000000000E+00 0. -1.
        -13    1    5    5    0    0 -0.63123341645E+02  0.10244304280E+03  0.10789955719E+03  0.16162130961E+03  0.00000000000E+00 0.  1.
          1    1    6    6  503    0  0.74126074422E+02 -0.84192935261E+02  0.39757210340E+03  0.41309406031E+03  0.00000000000E+00 0. -1.
         -1    1    6    6    0  503  0.35046787403E+03 -0.30953929097E+03  0.11016802812E+04  0.11968048067E+04  0.00000000000E+00 0.  1.
<mgrwt>
<rscale>  0 0.13674416E+04</rscale>
<asrwt>0</asrwt>
<pdfrwt beam="1">  1        1 0.41756983E+00 0.13674416E+04</pdfrwt>
<pdfrwt beam="2">  1       -1 0.26497309E-01 0.13674416E+04</pdfrwt>
<totfact> 0.11944556E+01</totfact>
</mgrwt>
</event>
<event>
12    3  0.4773567E-008  0.2352863E+04  0.7818608E-02  0.8457365E-01
          1   -1    0    0  501    0  0.00000000000E+00  0.00000000000E+00  0.32009873613E+04  0.32009873613E+04  0.00000000000E+00 0. -1.
         -1   -1    0    0    0  501 -0.00000000000E+00 -0.00000000000E+00 -0.43236373393E+03  0.43236373393E+03  0.00000000000E+00 0.  1.
         23    2    1    2    0    0 -0.38691368365E+03 -0.44285068426E+03  0.24630586809E+04  0.25340291747E+04  0.93951398501E+02 0.  0.
        254    2    1    2    0    0  0.38691368365E+03  0.44285068426E+03  0.30556494637E+03  0.10993219205E+04  0.87710878532E+03 0.  0.
         23    2    4    4    0    0 -0.91670437207E+02 -0.13618853978E+03 -0.12542309105E+03  0.22842058216E+03  0.97438304380E+02 0.  0.
         23    2    4    4    0    0  0.47858412086E+03  0.57903922404E+03  0.43098803742E+03  0.87090133833E+03  0.91592952739E+02 0.  0.
          3    1    3    3  502    0 -0.25436439871E+03 -0.30706501800E+03  0.14768274218E+04  0.15297089286E+04  0.00000000000E+00 0. -1.
         -3    1    3    3    0  502 -0.13254928494E+03 -0.13578566625E+03  0.98623125915E+03  0.10043202461E+04  0.00000000000E+00 0.  1.
         13    1    5    5    0    0 -0.10308004440E+03 -0.11482719419E+03 -0.73062029260E+02  0.17073031423E+03  0.00000000000E+00 0.  1.
        -13    1    5    5    0    0  0.11409607192E+02 -0.21361345594E+02 -0.52361061789E+02  0.57690267927E+02  0.00000000000E+00 0. -1.
          4    1    6    6  503    0  0.68077947571E+02  0.39555621486E+02  0.39807133992E+02  0.88226198226E+02  0.00000000000E+00 0. -1.
         -4    1    6    6    0  503  0.41050617329E+03  0.53948360255E+03  0.39118090343E+03  0.78267514011E+03  0.00000000000E+00 0.  1.
<mgrwt>
<rscale>  0 0.23528628E+04</rscale>
<asrwt>0</asrwt>
<pdfrwt beam="1">  1        1 0.49245958E+00 0.23528628E+04</pdfrwt>
<pdfrwt beam="2">  1       -1 0.66517500E-01 0.23528628E+04</pdfrwt>
<totfact> 0.87513086E-01</totfact>
</mgrwt>
</event>
<event>
12    3  0.4773567E-008  0.1273785E+04  0.7818608E-02  0.9050616E-01
         -2   -1    0    0    0  501 -0.00000000000E+00  0.00000000000E+00  0.25188401711E+03  0.25188401711E+03  0.00000000000E+00 0.  1.
          2   -1    0    0  501    0  0.00000000000E+00 -0.00000000000E+00 -0.16103929012E+04  0.16103929012E+04  0.00000000000E+00 0. -1.
         23    2    1    2    0    0  0.23404351225E+03  0.33170960600E+02 -0.64931272639E+03  0.69686759245E+03  0.90226085492E+02 0.  0.
        254    2    1    2    0    0 -0.23404351225E+03 -0.33170960600E+02 -0.70919615766E+03  0.11654093258E+04  0.89405985728E+03 0.  0.
         23    2    4    4    0    0  0.93124252897E+01 -0.15325434484E+03 -0.83457605084E+03  0.85287152546E+03  0.85434412393E+02 0.  0.
         23    2    4    4    0    0 -0.24335593754E+03  0.12008338425E+03  0.12537989318E+03  0.31253780036E+03  0.91201028121E+02 0.  0.
          1    1    3    3  502    0  0.14393063307E+03  0.24238872640E+02 -0.51188905660E+03  0.53229123264E+03  0.00000000000E+00 0. -1.
         -1    1    3    3    0  502  0.90112879176E+02  0.89320879592E+01 -0.13742366980E+03  0.16457635981E+03  0.00000000000E+00 0.  1.
         13    1    5    5    0    0 -0.93869427837E+01 -0.15006093433E+03 -0.79359945080E+03  0.80771683591E+03  0.00000000000E+00 0. -1.
        -13    1    5    5    0    0  0.18699368073E+02 -0.31934105191E+01 -0.40976600043E+02  0.45154689548E+02  0.00000000000E+00 0.  1.
          2    1    6    6  503    0 -0.24393028455E+03  0.12706944327E+03  0.12992249725E+03  0.30418494773E+03  0.00000000000E+00 0. -1.
         -2    1    6    6    0  503  0.57434701030E+00 -0.69860590244E+01 -0.45426040757E+01  0.83528526247E+01  0.00000000000E+00 0.  1.
<mgrwt>
<rscale>  0 0.12737853E+04</rscale>
<asrwt>0</asrwt>
<pdfrwt beam="1">  1        2 0.24775275E+00 0.12737853E+04</pdfrwt>
<pdfrwt beam="2">  1       -2 0.38751389E-01 0.12737853E+04</pdfrwt>
<totfact> 0.67966099E+01</totfact>
</mgrwt>
</event>
<event>
12    3  0.4773567E-008  0.3096895E+04  0.7818608E-02  0.8216591E-01
          2   -1    0    0  501    0  0.00000000000E+00  0.00000000000E+00  0.12224319359E+04  0.12224319359E+04  0.00000000000E+00 0. -1.
         -2   -1    0    0    0  501 -0.00000000000E+00 -0.00000000000E+00 -0.19614095661E+04  0.19614095661E+04  0.00000000000E+00 0.  1.
         23    2    1    2    0    0  0.60903484625E+03 -0.11208195435E+04  0.27820117901E+03  0.13089388741E+04  0.93622577244E+02 0.  0.
        254    2    1    2    0    0 -0.60903484625E+03  0.11208195435E+04 -0.10171788092E+04  0.18749026280E+04  0.92382208317E+03 0.  0.
         23    2    4    4    0    0  0.18990976730E+03  0.17772328433E+03 -0.62449710856E+01  0.27548782225E+03  0.90571822524E+02 0.  0.
         23    2    4    4    0    0 -0.79894461355E+03  0.94309625917E+03 -0.10109338381E+04  0.15994148057E+04  0.91637579984E+02 0.  0.
          1    1    3    3  502    0  0.52870130403E+03 -0.99074611212E+03  0.27432350448E+03  0.11560087857E+04  0.00000000000E+00 0. -1.
         -1    1    3    3    0  502  0.80333542225E+02 -0.13007343138E+03  0.38776745321E+01  0.15293008833E+03  0.00000000000E+00 0.  1.
         13    1    5    5    0    0  0.26470793760E+02  0.53712959451E+02 -0.33354017735E+02  0.68543967163E+02  0.00000000000E+00 0.  1.
        -13    1    5    5    0    0  0.16343897354E+03  0.12401032488E+03  0.27109046650E+02  0.20694385508E+03  0.00000000000E+00 0. -1.
          3    1    6    6  503    0 -0.35043557533E+03  0.36692524570E+03 -0.37158852085E+03  0.62890162762E+03  0.00000000000E+00 0. -1.
         -3    1    6    6    0  503 -0.44850903822E+03  0.57617101347E+03 -0.63934531727E+03  0.97051317809E+03  0.00000000000E+00 0.  1.
<mgrwt>
<rscale>  0 0.30968950E+04</rscale>
<asrwt>0</asrwt>
<pdfrwt beam="1">  1        2 0.18806645E+00 0.30968950E+04</pdfrwt>
<pdfrwt beam="2">  1       -2 0.30175532E+00 0.30968950E+04</pdfrwt>
<totfact> 0.48356225E-01</totfact>
</mgrwt>
</event>
<event>
12    3  0.4773567E-008  0.1595399E+04  0.7818608E-02  0.8823380E-01
          1   -1    0    0  501    0  0.00000000000E+00  0.00000000000E+00  0.10260013445E+04  0.10260013445E+04  0.00000000000E+00 0. -1.
         -1   -1    0    0    0  501 -0.00000000000E+00 -0.00000000000E+00 -0.62019854428E+03  0.62019854428E+03  0.00000000000E+00 0.  1.
         23    2    1    2    0    0  0.26360189076E+02 -0.40368336061E+03 -0.22262381268E+03  0.47016644769E+03  0.88543838598E+02 0.  0.
        254    2    1    2    0    0 -0.26360189076E+02  0.40368336061E+03  0.62842661292E+03  0.11760334411E+04  0.90800855258E+03 0.  0.
         23    2    4    4    0    0  0.37967602669E+03  0.41043654850E+03  0.44299065230E+03  0.72058852647E+03  0.10195617132E+03 0.  0.
         23    2    4    4    0    0 -0.40603621577E+03 -0.67531878814E+01  0.18543596062E+03  0.45544491463E+03  0.90180711425E+02 0.  0.
          1    1    3    3  502    0  0.36952943312E+02 -0.17341016112E+03 -0.56717764062E+02  0.18615452925E+03  0.00000000000E+00 0. -1.
         -1    1    3    3    0  502 -0.10592754236E+02 -0.23027319949E+03 -0.16590604862E+03  0.28401191844E+03  0.00000000000E+00 0.  1.
         13    1    5    5    0    0  0.23790624800E+03  0.32494912522E+03  0.31857469984E+03  0.51349893495E+03  0.00000000000E+00 0.  1.
        -13    1    5    5    0    0  0.14176977870E+03  0.85487423277E+02  0.12441595246E+03  0.20708959152E+03  0.00000000000E+00 0. -1.
          3    1    6    6  503    0 -0.16984354737E+03  0.17042079555E+02  0.12173483239E+03  0.20965837087E+03  0.00000000000E+00 0. -1.
         -3    1    6    6    0  503 -0.23619266839E+03 -0.23795267437E+02  0.63701128224E+02  0.24578654376E+03  0.00000000000E+00 0.  1.
<mgrwt>
<rscale>  0 0.15953991E+04</rscale>
<asrwt>0</asrwt>
<pdfrwt beam="1">  1        1 0.15784636E+00 0.15953991E+04</pdfrwt>
<pdfrwt beam="2">  1       -1 0.95415161E-01 0.15953991E+04</pdfrwt>
<totfact> 0.14701651E+01</totfact>
</mgrwt>
</event>
<event>
12    3  0.4773567E-008  0.1463015E+04  0.7818608E-02  0.8909427E-01
         -2   -1    0    0    0  501 -0.00000000000E+00  0.00000000000E+00  0.40001239121E+03  0.40001239121E+03  0.00000000000E+00 0.  1.
          2   -1    0    0  501    0  0.00000000000E+00 -0.00000000000E+00 -0.13377158477E+04  0.13377158477E+04  0.00000000000E+00 0. -1.
         23    2    1    2    0    0  0.21724477080E+03 -0.13876870539E+03 -0.83382942532E+03  0.87769014281E+03  0.92824739305E+02 0.  0.
        254    2    1    2    0    0 -0.21724477080E+03  0.13876870539E+03 -0.10387403113E+03  0.86003809605E+03  0.81389413825E+03 0.  0.
         23    2    4    4    0    0 -0.19845607703E+03 -0.11963658123E+03 -0.39055735296E+03  0.46321851986E+03  0.91316072575E+02 0.  0.
         23    2    4    4    0    0 -0.18788693765E+02  0.25840528662E+03  0.28668332183E+03  0.39681957619E+03  0.90289212376E+02 0.  0.
          2    1    3    3  502    0  0.33058757583E+02 -0.34889797244E+02 -0.29434042844E+03  0.29823894316E+03  0.00000000000E+00 0.  1.
         -2    1    3    3    0  502  0.18418601322E+03 -0.10387890814E+03 -0.53948899688E+03  0.57945119965E+03  0.00000000000E+00 0. -1.
         13    1    5    5    0    0 -0.13367551471E+03 -0.29669008880E+02 -0.23892402137E+03  0.27537988544E+03  0.00000000000E+00 0. -1.
        -13    1    5    5    0    0 -0.64780562326E+02 -0.89967572350E+02 -0.15163333159E+03  0.18783863442E+03  0.00000000000E+00 0.  1.
          4    1    6    6  503    0  0.54161026841E+01  0.10895809981E+03  0.18392641584E+03  0.21384603837E+03  0.00000000000E+00 0. -1.
         -4    1    6    6    0  503 -0.24204796449E+02  0.14944718680E+03  0.10275690598E+03  0.18297353782E+03  0.00000000000E+00 0.  1.
<mgrwt>
<rscale>  0 0.14630146E+04</rscale>
<asrwt>0</asrwt>
<pdfrwt beam="1">  1        2 0.20580244E+00 0.14630146E+04</pdfrwt>
<pdfrwt beam="2">  1       -2 0.61540368E-01 0.14630146E+04</pdfrwt>
<totfact> 0.37369977E+01</totfact>
</mgrwt>
</event>
<event>
12    3  0.4773567E-008  0.1665751E+04  0.7818608E-02  0.8781142E-01
         -2   -1    0    0    0  501 -0.00000000000E+00  0.00000000000E+00  0.59758587074E+03  0.59758587074E+03  0.00000000000E+00 0. -1.
          2   -1    0    0  501    0  0.00000000000E+00 -0.00000000000E+00 -0.11608072298E+04  0.11608072298E+04  0.00000000000E+00 0.  1.
         23    2    1    2    0    0 -0.58961057178E+03  0.16413217960E+03 -0.31838170664E+03  0.69587253846E+03  0.91058662034E+02 0.  0.
        254    2    1    2    0    0  0.58961057178E+03 -0.16413217960E+03 -0.24483965247E+03  0.10625205621E+04  0.83332076103E+03 0.  0.
         23    2    4    4    0    0  0.21987368759E+03  0.33093550215E+03 -0.12710102863E+03  0.42693897325E+03  0.90881628110E+02 0.  0.
         23    2    4    4    0    0  0.36973688419E+03 -0.49506768175E+03 -0.11773862383E+03  0.63558158886E+03  0.91127380721E+02 0.  0.
          3    1    3    3  502    0 -0.47996467512E+02  0.66646101887E+01 -0.57576549555E+00  0.48460390305E+02  0.00000000000E+00 0. -1.
         -3    1    3    3    0  502 -0.54161410427E+03  0.15746756941E+03 -0.31780594114E+03  0.64741214816E+03  0.00000000000E+00 0.  1.
         13    1    5    5    0    0  0.12834808015E+02  0.15466068246E+02 -0.32017544052E+02  0.37802839720E+02  0.00000000000E+00 0.  1.
        -13    1    5    5    0    0  0.20703887958E+03  0.31546943390E+03 -0.95083484581E+02  0.38913613353E+03  0.00000000000E+00 0. -1.
          3    1    6    6  503    0  0.34054292251E+03 -0.41269574976E+03 -0.82631059833E+02  0.54140110454E+03  0.00000000000E+00 0. -1.
         -3    1    6    6    0  503  0.29193961675E+02 -0.82371931986E+02 -0.35107564001E+02  0.94180484324E+02  0.00000000000E+00 0.  1.
<mgrwt>
<rscale>  0 0.16657515E+04</rscale>
<asrwt>0</asrwt>
<pdfrwt beam="1">  1        2 0.17858573E+00 0.16657515E+04</pdfrwt>
<pdfrwt beam="2">  1       -2 0.91936289E-01 0.16657515E+04</pdfrwt>
<totfact> 0.19197778E+01</totfact>
</mgrwt>
</event>
<event>
12    3  0.4773567E-008  0.1982180E+04  0.7818608E-02  0.8614998E-01
         -2   -1    0    0    0  501 -0.00000000000E+00  0.00000000000E+00  0.55741755674E+03  0.55741755674E+03  0.00000000000E+00 0.  1.
          2   -1    0    0  501    0  0.00000000000E+00 -0.00000000000E+00 -0.17621599607E+04  0.17621599607E+04  0.00000000000E+00 0. -1.
         23    2    1    2    0    0 -0.56428406628E+03 -0.53377034456E+03 -0.54771968023E+03  0.95476702842E+03  0.90862215808E+02 0.  0.
        254    2    1    2    0    0  0.56428406628E+03  0.53377034456E+03 -0.65702272368E+03  0.13648104890E+04  0.90978103034E+03 0.  0.
         23    2    4    4    0    0  0.41333154812E+03  0.74271570999E+03 -0.28122086349E+03  0.89988019176E+03  0.90717092773E+02 0.  0.
         23    2    4    4    0    0  0.15095251816E+03 -0.20894536543E+03 -0.37580186019E+03  0.46493029721E+03  0.92132050157E+02 0.  0.
          3    1    3    3  502    0 -0.55513451391E+03 -0.52882165845E+03 -0.52340517955E+03  0.92832088038E+03  0.00000000000E+00 0. -1.
         -3    1    3    3    0  502 -0.91495523699E+01 -0.49486861157E+01 -0.24314500679E+02  0.26446148040E+02  0.00000000000E+00 0.  1.
         13    1    5    5    0    0  0.15196727779E+03  0.30740294104E+03 -0.70196949993E+02  0.35002604684E+03  0.00000000000E+00 0.  1.
        -13    1    5    5    0    0  0.26136427032E+03  0.43531276895E+03 -0.21102391350E+03  0.54985414492E+03  0.00000000000E+00 0. -1.
          1    1    6    6  503    0  0.66225743575E+02 -0.14689331025E+03 -0.17215025414E+03  0.23579483394E+03  0.00000000000E+00 0. -1.
         -1    1    6    6    0  503  0.84726774586E+02 -0.62052055174E+02 -0.20365160605E+03  0.22913546327E+03  0.00000000000E+00 0.  1.
<mgrwt>
<rscale>  0 0.19821795E+04</rscale>
<asrwt>0</asrwt>
<pdfrwt beam="1">  1        2 0.27110153E+00 0.19821795E+04</pdfrwt>
<pdfrwt beam="2">  1       -2 0.85756548E-01 0.19821795E+04</pdfrwt>
<totfact> 0.99491971E+00</totfact>
</mgrwt>
</event>
<event>
12    3  0.4773567E-008  0.1261529E+04  0.7818608E-02  0.9060642E-01
         -1   -1    0    0    0  501 -0.00000000000E+00  0.00000000000E+00  0.30981869502E+03  0.30981869502E+03  0.00000000000E+00 0.  1.
          1   -1    0    0  501    0  0.00000000000E+00 -0.00000000000E+00 -0.12841819752E+04  0.12841819752E+04  0.00000000000E+00 0. -1.
         23    2    1    2    0    0  0.90675861409E+02  0.28713486243E+03 -0.25078042773E+03  0.40230068437E+03  0.91030086500E+02 0.  0.
        254    2    1    2    0    0 -0.90675861409E+02 -0.28713486243E+03 -0.72358285242E+03  0.11916999858E+04  0.89772388339E+03 0.  0.
         23    2    4    4    0    0  0.24330531984E+03 -0.13387041786E+03  0.80159096082E+02  0.30325508012E+03  0.91757263985E+02 0.  0.
         23    2    4    4    0    0 -0.33398118124E+03 -0.15326444457E+03 -0.80374194851E+03  0.88844490570E+03  0.91103300056E+02 0.  0.
          1    1    3    3  502    0  0.57736827854E+02  0.18594215675E+03 -0.21493117808E+03  0.29000592797E+03  0.00000000000E+00 0. -1.
         -1    1    3    3    0  502  0.32939033555E+02  0.10119270569E+03 -0.35849249651E+02  0.11229475641E+03  0.00000000000E+00 0.  1.
         13    1    5    5    0    0  0.19770066253E+03 -0.10091800485E+03  0.10018904314E+03  0.24353201028E+03  0.00000000000E+00 0.  1.
        -13    1    5    5    0    0  0.45604657309E+02 -0.32952413016E+02 -0.20029947058E+02  0.59723069839E+02  0.00000000000E+00 0. -1.
          4    1    6    6  503    0 -0.20640079100E+02  0.88003069483E+01 -0.83317355855E+02  0.86285804477E+02  0.00000000000E+00 0. -1.
         -4    1    6    6    0  503 -0.31334110214E+03 -0.16206475152E+03 -0.72042459265E+03  0.80215910122E+03  0.00000000000E+00 0.  1.
<mgrwt>
<rscale>  0 0.12615286E+04</rscale>
<asrwt>0</asrwt>
<pdfrwt beam="1">  1        1 0.19756646E+00 0.12615286E+04</pdfrwt>
<pdfrwt beam="2">  1       -1 0.47664414E-01 0.12615286E+04</pdfrwt>
<totfact> 0.40201092E+01</totfact>
</mgrwt>
</event>
<event>
12    3  0.4773567E-008  0.2322602E+04  0.7818608E-02  0.8469062E-01
         -2   -1    0    0    0  501 -0.00000000000E+00  0.00000000000E+00  0.13192082964E+04  0.13192082964E+04  0.00000000000E+00 0.  1.
          2   -1    0    0  501    0  0.00000000000E+00 -0.00000000000E+00 -0.10222951913E+04  0.10222951913E+04  0.00000000000E+00 0. -1.
         23    2    1    2    0    0 -0.82978161089E+03  0.20989612918E+03  0.61551722562E+03  0.10583632056E+04  0.93152096090E+02 0.  0.
        254    2    1    2    0    0  0.82978161089E+03 -0.20989612918E+03 -0.31860412050E+03  0.12831402822E+04  0.90130266356E+03 0.  0.
         23    2    4    4    0    0  0.80803777800E+03 -0.19071805413E+03 -0.57205429704E+03  0.10123478499E+04  0.91124220239E+02 0.  0.
         23    2    4    4    0    0  0.21743832891E+02 -0.19178075055E+02  0.25345017654E+03  0.27079243232E+03  0.90834776258E+02 0.  0.
          1    1    3    3  502    0 -0.16819742679E+02  0.13302834752E+02  0.29638381287E+01  0.21648406239E+02  0.00000000000E+00 0. -1.
         -1    1    3    3    0  502 -0.81296186822E+03  0.19659329443E+03  0.61255338750E+03  0.10367147993E+04  0.00000000000E+00 0.  1.
         13    1    5    5    0    0  0.25493359094E+03 -0.31897939164E+02 -0.13869635278E+03  0.29196796500E+03  0.00000000000E+00 0.  1.
        -13    1    5    5    0    0  0.55310418707E+03 -0.15882011497E+03 -0.43335794426E+03  0.72037988487E+03  0.00000000000E+00 0. -1.
          3    1    6    6  503    0 -0.17161575180E+02 -0.14703017633E+02  0.10879994431E+02  0.25081321118E+02  0.00000000000E+00 0. -1.
         -3    1    6    6    0  503  0.38905408071E+02 -0.44750574218E+01  0.24257018211E+03  0.24571111120E+03  0.00000000000E+00 0.  1.
<mgrwt>
<rscale>  0 0.23226022E+04</rscale>
<asrwt>0</asrwt>
<pdfrwt beam="1">  1        2 0.15727618E+00 0.23226022E+04</pdfrwt>
<pdfrwt beam="2">  1       -2 0.20295512E+00 0.23226022E+04</pdfrwt>
<totfact> 0.28051199E+00</totfact>
</mgrwt>
</event>
<event>
12    3  0.4773567E-008  0.1254420E+04  0.7818608E-02  0.9066512E-01
         -3   -1    0    0    0  501 -0.00000000000E+00  0.00000000000E+00  0.48159009953E+03  0.48159009953E+03  0.00000000000E+00 0.  1.
          3   -1    0    0  501    0  0.00000000000E+00 -0.00000000000E+00 -0.81686208932E+03  0.81686208932E+03  0.00000000000E+00 0. -1.
         23    2    1    2    0    0 -0.23129066732E+03 -0.54057492925E+02 -0.26706820393E+03  0.36890132710E+03  0.91351947198E+02 0.  0.
        254    2    1    2    0    0  0.23129066732E+03  0.54057492925E+02 -0.68203785869E+02  0.92955086175E+03  0.89610014108E+03 0.  0.
         23    2    4    4    0    0  0.23453433840E+02  0.45208635314E+03  0.16897868310E+02  0.46234233438E+03  0.92427062878E+02 0.  0.
         23    2    4    4    0    0  0.20783723348E+03 -0.39802886022E+03 -0.85101654179E+02  0.46720852737E+03  0.97047551857E+02 0.  0.
          4    1    3    3  502    0 -0.12472092850E+03  0.34484940901E+01 -0.18299556763E+03  0.22148268531E+03  0.00000000000E+00 0. -1.
         -4    1    3    3    0  502 -0.10656973882E+03 -0.57505987015E+02 -0.84072636294E+02  0.14741864179E+03  0.00000000000E+00 0.  1.
         13    1    5    5    0    0  0.21099201895E+02  0.41692228906E+03  0.41273392224E+02  0.41949119697E+03  0.00000000000E+00 0. -1.
        -13    1    5    5    0    0  0.23542319455E+01  0.35164064084E+02 -0.24375523914E+02  0.42851137407E+02  0.00000000000E+00 0.  1.
          2    1    6    6  503    0  0.19974229448E+03 -0.35717537736E+03 -0.10281497187E+03  0.42195041514E+03  0.00000000000E+00 0. -1.
         -2    1    6    6    0  503  0.80949389910E+01 -0.40853482857E+02  0.17713317695E+02  0.45258112230E+02  0.00000000000E+00 0.  1.
<mgrwt>
<rscale>  0 0.12544205E+04</rscale>
<asrwt>0</asrwt>
<pdfrwt beam="1">  1        3 0.12567109E+00 0.12544205E+04</pdfrwt>
<pdfrwt beam="2">  1       -3 0.74090785E-01 0.12544205E+04</pdfrwt>
<totfact> 0.22466491E+00</totfact>
</mgrwt>
</event>
<event>
12    3  0.4773567E-008  0.1861882E+04  0.7818608E-02  0.8674066E-01
          1   -1    0    0  501    0  0.00000000000E+00  0.00000000000E+00  0.17061831226E+04  0.17061831226E+04  0.00000000000E+00 0. -1.
         -1   -1    0    0    0  501 -0.00000000000E+00 -0.00000000000E+00 -0.50794752251E+03  0.50794752251E+03  0.00000000000E+00 0.  1.
         23    2    1    2    0    0  0.40524835234E+02  0.64136807625E+03  0.81983646353E+03  0.10457595402E+04  0.92119039687E+02 0.  0.
        254    2    1    2    0    0 -0.40524835234E+02 -0.64136807625E+03  0.37839913659E+03  0.11683711049E+04  0.89939416319E+03 0.  0.
         23    2    4    4    0    0  0.61226548212E+02 -0.84210836257E+03  0.36861561258E+03  0.92576815570E+03  0.90961660853E+02 0.  0.
         23    2    4    4    0    0 -0.10175138345E+03  0.20074028633E+03  0.97835240105E+01  0.24260294924E+03  0.90058131509E+02 0.  0.
          3    1    3    3  502    0  0.54077121753E+02  0.49279976498E+03  0.67794887981E+03  0.83987536402E+03  0.00000000000E+00 0. -1.
         -3    1    3    3    0  502 -0.13552286520E+02  0.14856831127E+03  0.14188758372E+03  0.20588417617E+03  0.00000000000E+00 0.  1.
         13    1    5    5    0    0  0.57527876534E+01 -0.20900300473E+03  0.50632744247E+02  0.21512560364E+03  0.00000000000E+00 0. -1.
        -13    1    5    5    0    0  0.55473760559E+02 -0.63310535784E+03  0.31798286833E+03  0.71064255205E+03  0.00000000000E+00 0.  1.
          4    1    6    6  503    0 -0.64736032543E+02  0.50116735863E+02  0.27789211013E+02  0.86456239634E+02  0.00000000000E+00 0. -1.
         -4    1    6    6    0  503 -0.37015350903E+02  0.15062355046E+03 -0.18005687003E+02  0.15614670961E+03  0.00000000000E+00 0.  1.
<mgrwt>
<rscale>  0 0.18618824E+04</rscale>
<asrwt>0</asrwt>
<pdfrwt beam="1">  1        1 0.26248971E+00 0.18618824E+04</pdfrwt>
<pdfrwt beam="2">  1       -1 0.78145773E-01 0.18618824E+04</pdfrwt>
<totfact> 0.72634983E+00</totfact>
</mgrwt>
</event>
<event>
12    3  0.4773567E-008  0.1348157E+04  0.7818608E-02  0.8992224E-01
         -3   -1    0    0    0  501 -0.00000000000E+00  0.00000000000E+00  0.77757932119E+03  0.77757932119E+03  0.00000000000E+00 0.  1.
          3   -1    0    0  501    0  0.00000000000E+00 -0.00000000000E+00 -0.58435455363E+03  0.58435455363E+03  0.00000000000E+00 0. -1.
         23    2    1    2    0    0  0.21542832222E+03 -0.12682560917E+03  0.32290707926E+03  0.41878471925E+03  0.92830825093E+02 0.  0.
        254    2    1    2    0    0 -0.21542832222E+03  0.12682560917E+03 -0.12968231170E+03  0.94314915556E+03  0.90012150875E+03 0.  0.
         23    2    4    4    0    0 -0.12493586693E+03 -0.37825362256E+03 -0.10275262962E+03  0.42125890500E+03  0.90643192368E+02 0.  0.
         23    2    4    4    0    0 -0.90492455289E+02  0.50507923173E+03 -0.26929682083E+02  0.52189025056E+03  0.91380036489E+02 0.  0.
          1    1    3    3  502    0  0.12412593460E+03 -0.65418675056E+02  0.10698841841E+03  0.17644651416E+03  0.00000000000E+00 0. -1.
         -1    1    3    3    0  502  0.91302387620E+02 -0.61406934109E+02  0.21591866085E+03  0.24233820509E+03  0.00000000000E+00 0.  1.
         13    1    5    5    0    0 -0.13805586492E+03 -0.35734612299E+03 -0.10254745131E+03  0.39657490242E+03  0.00000000000E+00 0.  1.
        -13    1    5    5    0    0  0.13119997988E+02 -0.20907499571E+02 -0.20517830569E+00  0.24684002586E+02  0.00000000000E+00 0. -1.
          2    1    6    6  503    0 -0.48792024961E+02  0.31172049793E+03 -0.60481679267E+02  0.32126058591E+03  0.00000000000E+00 0.  1.
         -2    1    6    6    0  503 -0.41700430328E+02  0.19335873380E+03  0.33551997185E+02  0.20062966466E+03  0.00000000000E+00 0. -1.
<mgrwt>
<rscale>  0 0.13481573E+04</rscale>
<asrwt>0</asrwt>
<pdfrwt beam="1">  1        3 0.89900701E-01 0.13481573E+04</pdfrwt>
<pdfrwt beam="2">  1       -3 0.11962759E+00 0.13481573E+04</pdfrwt>
<totfact> 0.16313530E+00</totfact>
</mgrwt>
</event>
<event>
12    3  0.4773567E-008  0.1853672E+04  0.7818608E-02  0.8678267E-01
         -2   -1    0    0    0  501 -0.00000000000E+00  0.00000000000E+00  0.20080446162E+03  0.20080446162E+03  0.00000000000E+00 0.  1.
          2   -1    0    0  501    0  0.00000000000E+00 -0.00000000000E+00 -0.42779180094E+04  0.42779180094E+04  0.00000000000E+00 0. -1.
         23    2    1    2    0    0  0.29356468755E+03  0.63640480862E+03 -0.15371590674E+04  0.16918523629E+04  0.91187242209E+02 0.  0.
        254    2    1    2    0    0 -0.29356468755E+03 -0.63640480862E+03 -0.25399544804E+04  0.27868701081E+04  0.90779123752E+03 0.  0.
         23    2    4    4    0    0 -0.10060724118E+03 -0.23245432494E+03 -0.22025816560E+04  0.22189469666E+04  0.90569637533E+02 0.  0.
         23    2    4    4    0    0 -0.19295744637E+03 -0.40395048368E+03 -0.33737282441E+03  0.56792314152E+03  0.91146599742E+02 0.  0.
          2    1    3    3  502    0  0.14598167874E+03  0.37530129430E+03 -0.97011819519E+03  0.10503766109E+04  0.00000000000E+00 0. -1.
         -2    1    3    3    0  502  0.14758300881E+03  0.26110351432E+03 -0.56704087225E+03  0.64147575206E+03  0.00000000000E+00 0.  1.
         13    1    5    5    0    0 -0.10440177830E+03 -0.20506638616E+03 -0.21044774072E+04  0.21170208104E+04  0.00000000000E+00 0. -1.
        -13    1    5    5    0    0  0.37945371209E+01 -0.27387938775E+02 -0.98104248744E+02  0.10192615623E+03  0.00000000000E+00 0.  1.
          3    1    6    6  503    0 -0.16698673857E+03 -0.37876578098E+03 -0.27879221381E+03  0.49907232560E+03  0.00000000000E+00 0. -1.
         -3    1    6    6    0  503 -0.25970707798E+02 -0.25184702701E+02 -0.58580610608E+02  0.68850815920E+02  0.00000000000E+00 0.  1.
<mgrwt>
<rscale>  0 0.18536721E+04</rscale>
<asrwt>0</asrwt>
<pdfrwt beam="1">  1        2 0.65814126E+00 0.18536721E+04</pdfrwt>
<pdfrwt beam="2">  1       -2 0.30892993E-01 0.18536721E+04</pdfrwt>
<totfact> 0.18431341E+00</totfact>
</mgrwt>
</event>
<event>
12    3  0.4773567E-008  0.1257547E+04  0.7818608E-02  0.9063925E-01
         -2   -1    0    0    0  501 -0.00000000000E+00  0.00000000000E+00  0.23092310695E+03  0.23092310695E+03  0.00000000000E+00 0.  1.
          2   -1    0    0  501    0  0.00000000000E+00 -0.00000000000E+00 -0.17120678940E+04  0.17120678940E+04  0.00000000000E+00 0. -1.
         23    2    1    2    0    0 -0.13056007186E+03  0.10723503426E+03  0.32155329677E+02  0.19314293338E+03  0.87891652341E+02 0.  0.
        254    2    1    2    0    0  0.13056007186E+03 -0.10723503426E+03 -0.15133001168E+04  0.17498480676E+04  0.86217500041E+03 0.  0.
         23    2    4    4    0    0 -0.23908474848E+03  0.18912793552E+03 -0.27494529713E+03  0.42081073058E+03  0.92497900534E+02 0.  0.
         23    2    4    4    0    0  0.36964482035E+03 -0.29636296978E+03 -0.12383548196E+04  0.13290373370E+04  0.91374399123E+02 0.  0.
          4    1    3    3  502    0 -0.22424699591E+02  0.52198647094E+02 -0.21141860079E+02  0.60618018425E+02  0.00000000000E+00 0. -1.
         -4    1    3    3    0  502 -0.10813537227E+03  0.55036387169E+02  0.53297189755E+02  0.13252491496E+03  0.00000000000E+00 0.  1.
         13    1    5    5    0    0 -0.10123111779E+03  0.33672759852E+02 -0.62458948164E+02  0.12362327520E+03  0.00000000000E+00 0. -1.
        -13    1    5    5    0    0 -0.13785363069E+03  0.15545517567E+03 -0.21248634897E+03  0.29718745538E+03  0.00000000000E+00 0.  1.
          3    1    6    6  503    0  0.65713813660E+02 -0.13388254318E+02 -0.16000104662E+03  0.17348742197E+03  0.00000000000E+00 0. -1.
         -3    1    6    6    0  503  0.30393100669E+03 -0.28297471547E+03 -0.10783537730E+04  0.11555499151E+04  0.00000000000E+00 0.  1.
<mgrwt>
<rscale>  0 0.12575469E+04</rscale>
<asrwt>0</asrwt>
<pdfrwt beam="1">  1        2 0.26339506E+00 0.12575469E+04</pdfrwt>
<pdfrwt beam="2">  1       -2 0.35526632E-01 0.12575469E+04</pdfrwt>
<totfact> 0.70654888E+01</totfact>
</mgrwt>
</event>
<event>
12    3  0.4773567E-008  0.1769356E+04  0.7818608E-02  0.8722768E-01
          2   -1    0    0  501    0  0.00000000000E+00  0.00000000000E+00  0.16970810095E+04  0.16970810095E+04  0.00000000000E+00 0. -1.
         -2   -1    0    0    0  501 -0.00000000000E+00 -0.00000000000E+00 -0.46117718223E+03  0.46117718223E+03  0.00000000000E+00 0.  1.
         23    2    1    2    0    0 -0.49951059713E+03  0.23644871528E+02  0.96205411090E+03  0.10880726545E+04  0.91016881289E+02 0.  0.
        254    2    1    2    0    0  0.49951059713E+03 -0.23644871528E+02  0.27384971638E+03  0.10701855372E+04  0.90566743359E+03 0.  0.
         23    2    4    4    0    0  0.64499207392E+03 -0.76097115213E+02 -0.93133119694E+02  0.66209646942E+03  0.88839239441E+02 0.  0.
         23    2    4    4    0    0 -0.14548147679E+03  0.52452243685E+02  0.36698283607E+03  0.40808906778E+03  0.89130170600E+02 0.  0.
          3    1    3    3  502    0 -0.44210052011E+03  0.44504981890E+02  0.80377156635E+03  0.91841292139E+03  0.00000000000E+00 0. -1.
         -3    1    3    3    0  502 -0.57410077024E+02 -0.20860110362E+02  0.15828254454E+03  0.16965973316E+03  0.00000000000E+00 0.  1.
         13    1    5    5    0    0  0.41646795303E+03 -0.81465721302E+02 -0.88343610982E+02  0.43345912523E+03  0.00000000000E+00 0.  1.
        -13    1    5    5    0    0  0.22852412090E+03  0.53686060887E+01 -0.47895087120E+01  0.22863734419E+03  0.00000000000E+00 0. -1.
          2    1    6    6  503    0 -0.42410950080E+02  0.35114938121E+02  0.50203797026E+02  0.74512876751E+02  0.00000000000E+00 0. -1.
         -2    1    6    6    0  503 -0.10307052671E+03  0.17337305564E+02  0.31677903904E+03  0.33357619102E+03  0.00000000000E+00 0.  1.
<mgrwt>
<rscale>  0 0.17693559E+04</rscale>
<asrwt>0</asrwt>
<pdfrwt beam="1">  1        2 0.26108938E+00 0.17693559E+04</pdfrwt>
<pdfrwt beam="2">  1       -2 0.70950336E-01 0.17693559E+04</pdfrwt>
<totfact> 0.16811659E+01</totfact>
</mgrwt>
</event>
<event>
12    3  0.4773567E-008  0.2052606E+04  0.7818608E-02  0.8582413E-01
         -1   -1    0    0    0  501 -0.00000000000E+00  0.00000000000E+00  0.18142039058E+04  0.18142039058E+04  0.00000000000E+00 0.  1.
          1   -1    0    0  501    0  0.00000000000E+00 -0.00000000000E+00 -0.58058429209E+03  0.58058429209E+03  0.00000000000E+00 0. -1.
         23    2    1    2    0    0  0.13980014031E+02 -0.59402533927E+03  0.11661436248E+04  0.13118988778E+04  0.90145256807E+02 0.  0.
        254    2    1    2    0    0 -0.13980014031E+02  0.59402533927E+03  0.67475988889E+02  0.10828893201E+04  0.90279273704E+03 0.  0.
         23    2    4    4    0    0 -0.34274312501E+03  0.63933445407E+03 -0.69141958615E+01  0.73096399805E+03  0.89661398810E+02 0.  0.
         23    2    4    4    0    0  0.32876311098E+03 -0.45309114796E+02  0.74390184751E+02  0.35192532207E+03  0.90440221715E+02 0.  0.
          3    1    3    3  502    0  0.26247740267E+02 -0.31943170704E+03  0.53775527888E+03  0.62602420025E+03  0.00000000000E+00 0. -1.
         -3    1    3    3    0  502 -0.12267726236E+02 -0.27459363224E+03  0.62838834594E+03  0.68587467754E+03  0.00000000000E+00 0.  1.
         13    1    5    5    0    0 -0.90199644908E+02  0.25250814752E+03  0.14248968183E+02  0.26851326522E+03  0.00000000000E+00 0. -1.
        -13    1    5    5    0    0 -0.25254348010E+03  0.38682630656E+03 -0.21163164044E+02  0.46245073283E+03  0.00000000000E+00 0.  1.
          2    1    6    6  503    0  0.16257349455E+03 -0.53028661131E+01  0.79208028954E+02  0.18092035090E+03  0.00000000000E+00 0.  1.
         -2    1    6    6    0  503  0.16618961642E+03 -0.40006248683E+02 -0.48178442036E+01  0.17100497117E+03  0.00000000000E+00 0. -1.
<mgrwt>
<rscale>  0 0.20526064E+04</rscale>
<asrwt>0</asrwt>
<pdfrwt beam="1">  1        1 0.89320661E-01 0.20526064E+04</pdfrwt>
<pdfrwt beam="2">  1       -1 0.27910829E+00 0.20526064E+04</pdfrwt>
<totfact> 0.14961583E+00</totfact>
</mgrwt>
</event>
<event>
12    3  0.4773567E-008  0.1403534E+04  0.7818608E-02  0.8951265E-01
         -2   -1    0    0    0  501 -0.00000000000E+00  0.00000000000E+00  0.11642447005E+04  0.11642447005E+04  0.00000000000E+00 0.  1.
          2   -1    0    0  501    0  0.00000000000E+00 -0.00000000000E+00 -0.42300092800E+03  0.42300092800E+03  0.00000000000E+00 0. -1.
         23    2    1    2    0    0  0.33327989107E+03  0.17392104739E+03  0.77229262219E+02  0.39767164555E+03  0.10418427049E+03 0.  0.
        254    2    1    2    0    0 -0.33327989107E+03 -0.17392104739E+03  0.66401451025E+03  0.11895739829E+04  0.91260450061E+03 0.  0.
         23    2    4    4    0    0  0.52571723917E+02  0.42407675879E+02 -0.19159230828E+03  0.22198160072E+03  0.89476373067E+02 0.  0.
         23    2    4    4    0    0 -0.38585161498E+03 -0.21632872327E+03  0.85560681854E+03  0.96759238221E+03  0.92154245047E+02 0.  0.
          2    1    3    3  502    0  0.31370089057E+03  0.14260716340E+03  0.93890796944E+02  0.35715617529E+03  0.00000000000E+00 0.  1.
         -2    1    3    3    0  502  0.19579000498E+02  0.31313883988E+02 -0.16661534726E+02  0.40515470259E+02  0.00000000000E+00 0. -1.
         13    1    5    5    0    0 -0.17699205273E+02  0.36823653871E+02 -0.83080448936E+02  0.92582959269E+02  0.00000000000E+00 0. -1.
        -13    1    5    5    0    0  0.70270929190E+02  0.55840220077E+01 -0.10851185935E+03  0.12939864145E+03  0.00000000000E+00 0.  1.
          4    1    6    6  503    0  0.18681669686E+01  0.41107089471E+01  0.18957633792E+02  0.19487941268E+02  0.00000000000E+00 0. -1.
         -4    1    6    6    0  503 -0.38771978195E+03 -0.22043943221E+03  0.83664918474E+03  0.94810444094E+03  0.00000000000E+00 0.  1.
<mgrwt>
<rscale>  0 0.14035335E+04</rscale>
<asrwt>0</asrwt>
<pdfrwt beam="1">  1        2 0.65077066E-01 0.14035335E+04</pdfrwt>
<pdfrwt beam="2">  1       -2 0.17911457E+00 0.14035335E+04</pdfrwt>
<totfact> 0.13340633E+01</totfact>
</mgrwt>
</event>
<event>
12    3  0.4773567E-008  0.2360501E+04  0.7818608E-02  0.8454441E-01
         -2   -1    0    0    0  501 -0.00000000000E+00  0.00000000000E+00  0.76597663556E+03  0.76597663556E+03  0.00000000000E+00 0. -1.
          2   -1    0    0  501    0  0.00000000000E+00 -0.00000000000E+00 -0.18185826607E+04  0.18185826607E+04  0.00000000000E+00 0.  1.
         23    2    1    2    0    0 -0.53615085971E+03  0.32785284228E+03 -0.13031305409E+04  0.14496492522E+04  0.91588849059E+02 0.  0.
        254    2    1    2    0    0  0.53615085971E+03 -0.32785284228E+03  0.25052451572E+03  0.11349100441E+04  0.91121514727E+03 0.  0.
         23    2    4    4    0    0  0.32501045046E+03 -0.63445838317E+03  0.20808368225E+03  0.74936301928E+03  0.10038367879E+03 0.  0.
         23    2    4    4    0    0  0.21114040925E+03  0.30660554089E+03  0.42440833466E+02  0.38554702479E+03  0.90873834851E+02 0.  0.
          2    1    3    3  502    0 -0.76445616010E+02  0.46804486881E+02 -0.26944962684E+03  0.28396776860E+03  0.00000000000E+00 0. -1.
         -2    1    3    3    0  502 -0.45970524370E+03  0.28104835540E+03 -0.10336809140E+04  0.11656814836E+04  0.00000000000E+00 0.  1.
         13    1    5    5    0    0  0.10665753860E+03 -0.14640704682E+03  0.18515083723E+02  0.18208147139E+03  0.00000000000E+00 0. -1.
        -13    1    5    5    0    0  0.21835291186E+03 -0.48805133635E+03  0.18956859853E+03  0.56728154789E+03  0.00000000000E+00 0.  1.
          1    1    6    6  503    0  0.18605646141E+03  0.20832349697E+03  0.11697196063E+02  0.27955770535E+03  0.00000000000E+00 0. -1.
         -1    1    6    6    0  503  0.25083947835E+02  0.98282043920E+02  0.30743637403E+02  0.10598931945E+03  0.00000000000E+00 0.  1.
<mgrwt>
<rscale>  0 0.23605015E+04</rscale>
<asrwt>0</asrwt>
<pdfrwt beam="1">  1        2 0.27978194E+00 0.23605015E+04</pdfrwt>
<pdfrwt beam="2">  1       -2 0.11784256E+00 0.23605015E+04</pdfrwt>
<totfact> 0.42223424E+00</totfact>
</mgrwt>
</event>
<event>
12    3  0.4773567E-008  0.3109758E+04  0.7818608E-02  0.8213065E-01
         -2   -1    0    0    0  501 -0.00000000000E+00  0.00000000000E+00  0.16198354889E+04  0.16198354889E+04  0.00000000000E+00 0. -1.
          2   -1    0    0  501    0  0.00000000000E+00 -0.00000000000E+00 -0.14925277136E+04  0.14925277136E+04  0.00000000000E+00 0.  1.
         23    2    1    2    0    0 -0.50289041695E+03  0.27215135299E+03  0.13623609554E+04  0.14798431884E+04  0.83326820041E+02 0.  0.
        254    2    1    2    0    0  0.50289041695E+03 -0.27215135299E+03 -0.12350531801E+04  0.16325200142E+04  0.90155427378E+03 0.  0.
         23    2    4    4    0    0  0.38942154037E+03 -0.58782669386E+01 -0.42623677341E+02  0.40223730337E+03  0.91073488073E+02 0.  0.
         23    2    4    4    0    0  0.11346887658E+03 -0.26627308605E+03 -0.11924295028E+04  0.12302827108E+04  0.89055528175E+02 0.  0.
          2    1    3    3  502    0 -0.23103130007E+03  0.10575606640E+03  0.70236173153E+03  0.74690816645E+03  0.00000000000E+00 0. -1.
         -2    1    3    3    0  502 -0.27185911689E+03  0.16639528660E+03  0.65999922390E+03  0.73293502194E+03  0.00000000000E+00 0.  1.
         13    1    5    5    0    0  0.16481934158E+03  0.35636937304E+02 -0.42207944516E+02  0.17383013905E+03  0.00000000000E+00 0.  1.
        -13    1    5    5    0    0  0.22460219879E+03 -0.41515204243E+02 -0.41573282467E+00  0.22840716433E+03  0.00000000000E+00 0. -1.
          4    1    6    6  503    0 -0.47680995700E+01 -0.49359461368E+02 -0.12154573753E+03  0.13127245526E+03  0.00000000000E+00 0.  1.
         -4    1    6    6    0  503  0.11823697615E+03 -0.21691362468E+03 -0.10708837653E+04  0.10990102555E+04  0.00000000000E+00 0. -1.
<mgrwt>
<rscale>  0 0.31097584E+04</rscale>
<asrwt>0</asrwt>
<pdfrwt beam="1">  1        2 0.22961965E+00 0.31097584E+04</pdfrwt>
<pdfrwt beam="2">  1       -2 0.24920546E+00 0.31097584E+04</pdfrwt>
<totfact> 0.70671073E-01</totfact>
</mgrwt>
</event>
<event>
12    3  0.4773567E-008  0.2500208E+04  0.7818608E-02  0.8402911E-01
         -2   -1    0    0    0  501 -0.00000000000E+00  0.00000000000E+00  0.97164669937E+03  0.97164669937E+03  0.00000000000E+00 0. -1.
          2   -1    0    0  501    0  0.00000000000E+00 -0.00000000000E+00 -0.16083626813E+04  0.16083626813E+04  0.00000000000E+00 0.  1.
         23    2    1    2    0    0 -0.79619999427E+03  0.60905922489E+03 -0.73654762977E+03  0.12473606090E+04  0.92295761325E+02 0.  0.
        254    2    1    2    0    0  0.79619999427E+03 -0.60905922489E+03  0.99831647808E+02  0.13326487717E+04  0.87240977793E+03 0.  0.
         23    2    4    4    0    0  0.94111749939E+03 -0.65565064155E+03  0.77439729476E+02  0.11540409284E+04  0.10116146097E+03 0.  0.
         23    2    4    4    0    0 -0.14491750512E+03  0.46591416667E+02  0.22391918332E+02  0.17860784339E+03  0.90705679629E+02 0.  0.
          2    1    3    3  502    0 -0.19233173527E+03  0.12970187568E+03 -0.12667369476E+03  0.26431098708E+03  0.00000000000E+00 0. -1.
         -2    1    3    3    0  502 -0.60386825900E+03  0.47935734920E+03 -0.60987393501E+03  0.98304962187E+03  0.00000000000E+00 0.  1.
         13    1    5    5    0    0  0.83040674765E+03 -0.61539138497E+03  0.65973395427E+02  0.10356806516E+04  0.00000000000E+00 0.  1.
        -13    1    5    5    0    0  0.11071075174E+03 -0.40259256583E+02  0.11466334048E+02  0.11836027673E+03  0.00000000000E+00 0. -1.
          1    1    6    6  503    0  0.11893063315E+02  0.34336313887E+01 -0.55808436941E+01  0.13578681669E+02  0.00000000000E+00 0. -1.
         -1    1    6    6    0  503 -0.15681056844E+03  0.43157785278E+02  0.27972762026E+02  0.16502916172E+03  0.00000000000E+00 0.  1.
<mgrwt>
<rscale>  0 0.25002082E+04</rscale>
<asrwt>0</asrwt>
<pdfrwt beam="1">  1        2 0.24744041E+00 0.25002082E+04</pdfrwt>
<pdfrwt beam="2">  1       -2 0.14948411E+00 0.25002082E+04</pdfrwt>
<totfact> 0.29756094E+00</totfact>
</mgrwt>
</event>
<event>
12    3  0.4773567E-008  0.2198297E+04  0.7818608E-02  0.8519137E-01
          1   -1    0    0  501    0  0.00000000000E+00  0.00000000000E+00  0.20141657314E+04  0.20141657314E+04  0.00000000000E+00 0. -1.
         -1   -1    0    0    0  501 -0.00000000000E+00 -0.00000000000E+00 -0.59981516508E+03  0.59981516508E+03  0.00000000000E+00 0.  1.
         23    2    1    2    0    0  0.11937382949E+03 -0.72647880460E+03  0.12524268562E+04  0.14555924534E+04  0.90303907154E+02 0.  0.
        254    2    1    2    0    0 -0.11937382949E+03  0.72647880460E+03  0.16192371013E+03  0.11583884431E+04  0.87955837351E+03 0.  0.
         23    2    4    4    0    0 -0.17774482969E+03  0.32034129230E+03 -0.33706503563E+03  0.50588764564E+03  0.89987242023E+02 0.  0.
         23    2    4    4    0    0  0.58371000206E+02  0.40613751231E+03  0.49898874576E+03  0.65250079742E+03  0.91720606581E+02 0.  0.
          2    1    3    3  502    0  0.11322901622E+02 -0.25494209255E+03  0.49393995404E+03  0.55596794589E+03  0.00000000000E+00 0. -1.
         -2    1    3    3    0  502  0.10805092787E+03 -0.47153671205E+03  0.75848690214E+03  0.89962450753E+03  0.00000000000E+00 0.  1.
         13    1    5    5    0    0 -0.55188728964E+02  0.34426000776E+02 -0.73700604761E+02  0.98299158065E+02  0.00000000000E+00 0. -1.
        -13    1    5    5    0    0 -0.12255610073E+03  0.28591529152E+03 -0.26336443087E+03  0.40758848757E+03  0.00000000000E+00 0.  1.
          2    1    6    6  503    0 -0.50214517415E+01  0.32454454786E+01  0.31702090635E+02  0.32260974017E+02  0.00000000000E+00 0. -1.
         -2    1    6    6    0  503  0.63392451947E+02  0.40289206683E+03  0.46728665513E+03  0.62023982341E+03  0.00000000000E+00 0.  1.
<mgrwt>
<rscale>  0 0.21982968E+04</rscale>
<asrwt>0</asrwt>
<pdfrwt beam="1">  1        1 0.30987165E+00 0.21982968E+04</pdfrwt>
<pdfrwt beam="2">  1       -1 0.92279257E-01 0.21982968E+04</pdfrwt>
<totfact> 0.30366373E+00</totfact>
</mgrwt>
</event>
<event>
12    3  0.4773567E-008  0.2007983E+04  0.7818608E-02  0.8602897E-01
         -2   -1    0    0    0  501 -0.00000000000E+00  0.00000000000E+00  0.17612158811E+04  0.17612158811E+04  0.00000000000E+00 0.  1.
          2   -1    0    0  501    0  0.00000000000E+00 -0.00000000000E+00 -0.57233141304E+03  0.57233141304E+03  0.00000000000E+00 0. -1.
         23    2    1    2    0    0 -0.45624370276E+03  0.62076570743E+03  0.63382895313E+03  0.10016891603E+04  0.90186763385E+02 0.  0.
        254    2    1    2    0    0  0.45624370276E+03 -0.62076570743E+03  0.55505551489E+03  0.13318581338E+04  0.93394383343E+03 0.  0.
         23    2    4    4    0    0 -0.26492844568E+03 -0.16489854338E+03  0.32205984972E+02  0.32658321704E+03  0.90778638717E+02 0.  0.
         23    2    4    4    0    0  0.72117214844E+03 -0.45586716406E+03  0.52284952992E+03  0.10052749167E+04  0.96446297404E+02 0.  0.
          1    1    3    3  502    0 -0.21320200817E+02  0.24573889880E+02  0.66468457606E+01  0.33205535461E+02  0.00000000000E+00 0. -1.
         -1    1    3    3    0  502 -0.43492350194E+03  0.59619181755E+03  0.62718210737E+03  0.96848362488E+03  0.00000000000E+00 0.  1.
         13    1    5    5    0    0 -0.11004494661E+03 -0.24177255923E+02  0.32699481588E+02  0.11731873710E+03  0.00000000000E+00 0.  1.
        -13    1    5    5    0    0 -0.15488349907E+03 -0.14072128745E+03 -0.49349661582E+00  0.20926447994E+03  0.00000000000E+00 0. -1.
          3    1    6    6  503    0  0.24447852161E+03 -0.18747410190E+03  0.14562898326E+03  0.34076984488E+03  0.00000000000E+00 0.  1.
         -3    1    6    6    0  503  0.47669362683E+03 -0.26839306216E+03  0.37722054666E+03  0.66450507183E+03  0.00000000000E+00 0. -1.
<mgrwt>
<rscale>  0 0.20079832E+04</rscale>
<asrwt>0</asrwt>
<pdfrwt beam="1">  1        2 0.88050987E-01 0.20079832E+04</pdfrwt>
<pdfrwt beam="2">  1       -2 0.27095629E+00 0.20079832E+04</pdfrwt>
<totfact> 0.23314777E+00</totfact>
</mgrwt>
</event>
<event>
12    3  0.4773567E-008  0.1342915E+04  0.7818608E-02  0.8996209E-01
         -3   -1    0    0    0  501 -0.00000000000E+00  0.00000000000E+00  0.25732000672E+03  0.25732000672E+03  0.00000000000E+00 0.  1.
          3   -1    0    0  501    0  0.00000000000E+00 -0.00000000000E+00 -0.17521185657E+04  0.17521185657E+04  0.00000000000E+00 0. -1.
         23    2    1    2    0    0  0.11437659754E+03  0.58664678402E+02  0.70703156875E+02  0.17386302725E+03  0.93305226509E+02 0.  0.
        254    2    1    2    0    0 -0.11437659754E+03 -0.58664678402E+02 -0.15655017158E+04  0.18355755451E+04  0.94974649729E+03 0.  0.
         23    2    4    4    0    0 -0.18641183850E+02 -0.21338334318E+03  0.21879540639E+02  0.23506311880E+03  0.94318665383E+02 0.  0.
         23    2    4    4    0    0 -0.95735413692E+02  0.15471866478E+03 -0.15873812565E+04  0.16005124263E+04  0.93582257056E+02 0.  0.
          3    1    3    3  502    0  0.38710034922E+02 -0.24917194676E+02  0.22620117239E+02  0.51293304612E+02  0.00000000000E+00 0. -1.
         -3    1    3    3    0  502  0.75666562620E+02  0.83581873077E+02  0.48083039635E+02  0.12256972263E+03  0.00000000000E+00 0.  1.
         13    1    5    5    0    0  0.37814430829E+01 -0.20951442249E+03  0.28225150150E+02  0.21144089397E+03  0.00000000000E+00 0.  1.
        -13    1    5    5    0    0 -0.22422626933E+02 -0.38689206932E+01 -0.63456095112E+01  0.23622224831E+02  0.00000000000E+00 0. -1.
          3    1    6    6  503    0  0.18716616566E+02  0.21531367747E+02 -0.26178975448E+03  0.26333968004E+03  0.00000000000E+00 0. -1.
         -3    1    6    6    0  503 -0.11445203026E+03  0.13318729703E+03 -0.13255915020E+04  0.13371727463E+04  0.00000000000E+00 0.  1.
<mgrwt>
<rscale>  0 0.13429150E+04</rscale>
<asrwt>0</asrwt>
<pdfrwt beam="1">  1        3 0.26955671E+00 0.13429150E+04</pdfrwt>
<pdfrwt beam="2">  1       -3 0.39587693E-01 0.13429150E+04</pdfrwt>
<totfact> 0.93331232E-01</totfact>
</mgrwt>
</event>
<event>
12    3  0.4773567E-008  0.2723919E+04  0.7818608E-02  0.8327286E-01
         -1   -1    0    0    0  501 -0.00000000000E+00  0.00000000000E+00  0.17711932793E+04  0.17711932793E+04  0.00000000000E+00 0.  1.
          1   -1    0    0  501    0  0.00000000000E+00 -0.00000000000E+00 -0.10472787893E+04  0.10472787893E+04  0.00000000000E+00 0. -1.
         23    2    1    2    0    0  0.94491495902E+02  0.65753100896E+03 -0.72504037403E+03  0.98752663582E+03  0.90827539516E+02 0.  0.
        254    2    1    2    0    0 -0.94491495902E+02 -0.65753100896E+03  0.14489548640E+04  0.18309454328E+04  0.90089694708E+03 0.  0.
         23    2    4    4    0    0 -0.17156748435E+03 -0.69716536388E+03  0.51393657237E+03  0.88754674661E+03  0.90185812193E+02 0.  0.
         23    2    4    4    0    0  0.77075988449E+02  0.39634354916E+02  0.93501829166E+03  0.94339868616E+03  0.90720919479E+02 0.  0.
          3    1    3    3  502    0  0.80249833285E+02  0.30913987636E+03 -0.38842252517E+03  0.50287131252E+03  0.00000000000E+00 0. -1.
         -3    1    3    3    0  502  0.14241662617E+02  0.34839113260E+03 -0.33661784886E+03  0.48465532330E+03  0.00000000000E+00 0.  1.
         13    1    5    5    0    0 -0.96786926212E+02 -0.24897818004E+03  0.22326632116E+03  0.34814608053E+03  0.00000000000E+00 0. -1.
        -13    1    5    5    0    0 -0.74780558139E+02 -0.44818718384E+03  0.29067025120E+03  0.53940066608E+03  0.00000000000E+00 0.  1.
          1    1    6    6  503    0 -0.69445574847E+00 -0.17994228725E+02  0.34698867287E+03  0.34745562829E+03  0.00000000000E+00 0. -1.
         -1    1    6    6    0  503  0.77770444197E+02  0.57628583642E+02  0.58802961879E+03  0.59594305787E+03  0.00000000000E+00 0.  1.
<mgrwt>
<rscale>  0 0.27239186E+04</rscale>
<asrwt>0</asrwt>
<pdfrwt beam="1">  1        1 0.16111981E+00 0.27239186E+04</pdfrwt>
<pdfrwt beam="2">  1       -1 0.27249127E+00 0.27239186E+04</pdfrwt>
<totfact> 0.60318696E-01</totfact>
</mgrwt>
</event>
<event>
12    3  0.4773567E-008  0.2036240E+04  0.7818608E-02  0.8589862E-01
         -2   -1    0    0    0  501 -0.00000000000E+00  0.00000000000E+00  0.71686711961E+03  0.71686711961E+03  0.00000000000E+00 0.  1.
          2   -1    0    0  501    0  0.00000000000E+00 -0.00000000000E+00 -0.14459692905E+04  0.14459692905E+04  0.00000000000E+00 0. -1.
         23    2    1    2    0    0  0.35807328475E+03  0.23240176884E+03  0.44292150157E+03  0.62187127622E+03  0.91199606419E+02 0.  0.
        254    2    1    2    0    0 -0.35807328475E+03 -0.23240176884E+03 -0.11720236725E+04  0.15409651339E+04  0.90482428993E+03 0.  0.
         23    2    4    4    0    0  0.27867719347E+03 -0.15706652093E+03 -0.25832078645E+03  0.42111625918E+03  0.90985739957E+02 0.  0.
         23    2    4    4    0    0 -0.63675047822E+03 -0.75335247912E+02 -0.91370288602E+03  0.11198488747E+04  0.89899761958E+02 0.  0.
          1    1    3    3  502    0  0.46871406032E+02  0.73024490781E+02  0.82768273067E+02  0.11991702124E+03  0.00000000000E+00 0. -1.
         -1    1    3    3    0  502  0.31120187872E+03  0.15937727806E+03  0.36015322851E+03  0.50195425497E+03  0.00000000000E+00 0.  1.
         13    1    5    5    0    0  0.35046024948E+02 -0.28742990309E+02 -0.83324638894E+02  0.94854513880E+02  0.00000000000E+00 0. -1.
        -13    1    5    5    0    0  0.24363116852E+03 -0.12832353062E+03 -0.17499614755E+03  0.32626174530E+03  0.00000000000E+00 0.  1.
          3    1    6    6  503    0 -0.52315128006E+03 -0.96171284606E+02 -0.75606316114E+03  0.92442829978E+03  0.00000000000E+00 0.  1.
         -3    1    6    6    0  503 -0.11359919816E+03  0.20836036694E+02 -0.15763972489E+03  0.19542057494E+03  0.00000000000E+00 0. -1.
<mgrwt>
<rscale>  0 0.20362395E+04</rscale>
<asrwt>0</asrwt>
<pdfrwt beam="1">  1        2 0.22245681E+00 0.20362395E+04</pdfrwt>
<pdfrwt beam="2">  1       -2 0.11028725E+00 0.20362395E+04</pdfrwt>
<totfact> 0.82395926E+00</totfact>
</mgrwt>
</event>
<event>
12    3  0.4773567E-008  0.1247436E+04  0.7818608E-02  0.9072320E-01
          2   -1    0    0  501    0  0.00000000000E+00  0.00000000000E+00  0.12523272047E+04  0.12523272047E+04  0.00000000000E+00 0.  1.
         -2   -1    0    0    0  501 -0.00000000000E+00 -0.00000000000E+00 -0.31064114716E+03  0.31064114716E+03  0.00000000000E+00 0. -1.
         23    2    1    2    0    0 -0.24867498613E+03  0.23220843876E+02  0.63675552501E+02  0.27326515283E+03  0.90778915233E+02 0.  0.
        254    2    1    2    0    0  0.24867498613E+03 -0.23220843876E+02  0.87801050509E+03  0.12897031991E+04  0.91107268554E+03 0.  0.
         23    2    4    4    0    0  0.43320436494E+03  0.29692037350E+03  0.34565397000E+03  0.63524173067E+03  0.90706446322E+02 0.  0.
         23    2    4    4    0    0 -0.18452937882E+03 -0.32014121738E+03  0.53235653509E+03  0.65446146840E+03  0.91514165329E+02 0.  0.
          2    1    3    3  502    0 -0.23150492223E+03  0.37884874646E+02  0.35654001244E+02  0.23727831875E+03  0.00000000000E+00 0. -1.
         -2    1    3    3    0  502 -0.17170063900E+02 -0.14664030770E+02  0.28021551257E+02  0.35986834087E+02  0.00000000000E+00 0.  1.
         13    1    5    5    0    0  0.28974938206E+03  0.17966514379E+03  0.27088436189E+03  0.43544529600E+03  0.00000000000E+00 0. -1.
        -13    1    5    5    0    0  0.14345498289E+03  0.11725522971E+03  0.74769608113E+02  0.19979643467E+03  0.00000000000E+00 0.  1.
          2    1    6    6  503    0 -0.17886346356E+03 -0.24766582573E+03  0.39838216135E+03  0.50203470629E+03  0.00000000000E+00 0. -1.
         -2    1    6    6    0  503 -0.56659152551E+01 -0.72475391651E+02  0.13397437373E+03  0.15242676211E+03  0.00000000000E+00 0.  1.
<mgrwt>
<rscale>  0 0.12474363E+04</rscale>
<asrwt>0</asrwt>
<pdfrwt beam="1">  1        2 0.19266572E+00 0.12474363E+04</pdfrwt>
<pdfrwt beam="2">  1       -2 0.47790946E-01 0.12474363E+04</pdfrwt>
<totfact> 0.71928081E+01</totfact>
</mgrwt>
</event>
<event>
12    3  0.4773567E-008  0.1327333E+04  0.7818608E-02  0.9008166E-01
          1   -1    0    0  501    0  0.00000000000E+00  0.00000000000E+00  0.26772862563E+04  0.26772862563E+04  0.00000000000E+00 0. -1.
         -1   -1    0    0    0  501 -0.00000000000E+00 -0.00000000000E+00 -0.16451476139E+03  0.16451476139E+03  0.00000000000E+00 0.  1.
         23    2    1    2    0    0 -0.63941304357E+02 -0.29124079587E+03  0.28002327554E+03  0.41921324561E+03  0.91744312452E+02 0.  0.
        254    2    1    2    0    0  0.63941304357E+02  0.29124079587E+03  0.22327482194E+04  0.24225877721E+04  0.89154764917E+03 0.  0.
         23    2    4    4    0    0  0.39334562789E+03  0.39303712510E+03  0.16013089579E+04  0.16976137282E+04  0.92211858460E+02 0.  0.
         23    2    4    4    0    0 -0.32940432354E+03 -0.10179632923E+03  0.63143926143E+03  0.72497404384E+03  0.89454582647E+02 0.  0.
          4    1    3    3  502    0 -0.76065996983E+01 -0.39407667928E+02  0.90614718276E+02  0.99105256262E+02  0.00000000000E+00 0. -1.
         -4    1    3    3    0  502 -0.56334704659E+02 -0.25183312794E+03  0.18940855726E+03  0.32010798934E+03  0.00000000000E+00 0.  1.
         13    1    5    5    0    0  0.12412843337E+03  0.18593999669E+03  0.66822490551E+03  0.70463187175E+03  0.00000000000E+00 0. -1.
        -13    1    5    5    0    0  0.26921719452E+03  0.20709712841E+03  0.93308405241E+03  0.99298185647E+03  0.00000000000E+00 0.  1.
          4    1    6    6  503    0 -0.50972072350E+02  0.40893532029E+01  0.49224340516E+02  0.70978240810E+02  0.00000000000E+00 0.  1.
         -4    1    6    6    0  503 -0.27843225119E+03 -0.10588568243E+03  0.58221492091E+03  0.65399580303E+03  0.00000000000E+00 0. -1.
<mgrwt>
<rscale>  0 0.13273328E+04</rscale>
<asrwt>0</asrwt>
<pdfrwt beam="1">  1        1 0.41189016E+00 0.13273328E+04</pdfrwt>
<pdfrwt beam="2">  1       -1 0.25309965E-01 0.13273328E+04</pdfrwt>
<totfact> 0.13772973E+01</totfact>
</mgrwt>
</event>
<event>
12    3  0.4773567E-008  0.1986534E+04  0.7818608E-02  0.8612942E-01
          2   -1    0    0  501    0  0.00000000000E+00  0.00000000000E+00  0.10569591725E+04  0.10569591725E+04  0.00000000000E+00 0. -1.
         -2   -1    0    0    0  501 -0.00000000000E+00 -0.00000000000E+00 -0.93341292673E+03  0.93341292673E+03  0.00000000000E+00 0.  1.
         23    2    1    2    0    0 -0.31059151284E+03 -0.29369377364E+02  0.77555743795E+03  0.84074818893E+03  0.89657846659E+02 0.  0.
        254    2    1    2    0    0  0.31059151284E+03  0.29369377364E+02 -0.65201119213E+03  0.11496239103E+04  0.89397253448E+03 0.  0.
         23    2    4    4    0    0 -0.23680099541E+03  0.23987216840E+03 -0.25595074524E+03  0.43556228298E+03  0.10290942506E+03 0.  0.
         23    2    4    4    0    0  0.54739250825E+03 -0.21050279104E+03 -0.39606044689E+03  0.71406162737E+03  0.95237319160E+02 0.  0.
          1    1    3    3  502    0 -0.24606968552E+03 -0.12510762269E+02  0.68729966900E+03  0.73012851219E+03  0.00000000000E+00 0. -1.
         -1    1    3    3    0  502 -0.64521827322E+02 -0.16858615095E+02  0.88257768946E+02  0.11061967675E+03  0.00000000000E+00 0.  1.
         13    1    5    5    0    0 -0.24425614732E+03  0.22643790943E+03 -0.25618306276E+03  0.42019632790E+03  0.00000000000E+00 0. -1.
        -13    1    5    5    0    0  0.74551519099E+01  0.13434258974E+02  0.23231752819E+00  0.15365955083E+02  0.00000000000E+00 0.  1.
          3    1    6    6  503    0  0.35945055091E+03 -0.14104852394E+03 -0.20488162460E+03  0.43712225379E+03  0.00000000000E+00 0. -1.
         -3    1    6    6    0  503  0.18794195734E+03 -0.69454267100E+02 -0.19117882229E+03  0.27693937358E+03  0.00000000000E+00 0.  1.
<mgrwt>
<rscale>  0 0.19865340E+04</rscale>
<asrwt>0</asrwt>
<pdfrwt beam="1">  1        2 0.16260910E+00 0.19865340E+04</pdfrwt>
<pdfrwt beam="2">  1       -2 0.14360199E+00 0.19865340E+04</pdfrwt>
<totfact> 0.72442012E+00</totfact>
</mgrwt>
</event>
<event>
12    3  0.4773567E-008  0.1479911E+04  0.7818608E-02  0.8897923E-01
         -1   -1    0    0    0  501 -0.00000000000E+00  0.00000000000E+00  0.40451942055E+03  0.40451942055E+03  0.00000000000E+00 0.  1.
          1   -1    0    0  501    0  0.00000000000E+00 -0.00000000000E+00 -0.13535425302E+04  0.13535425302E+04  0.00000000000E+00 0. -1.
         23    2    1    2    0    0 -0.47436355651E+02  0.31930377435E+03 -0.67285428672E+03  0.75187871866E+03  0.91562045955E+02 0.  0.
        254    2    1    2    0    0  0.47436355651E+02 -0.31930377435E+03 -0.27616882288E+03  0.10061832320E+04  0.91210217058E+03 0.  0.
         23    2    4    4    0    0  0.43457508026E+03 -0.32568129659E+03 -0.25937084253E+03  0.60841851088E+03  0.89308695495E+02 0.  0.
         23    2    4    4    0    0 -0.38713872461E+03  0.63775222439E+01 -0.16797980343E+02  0.39776472117E+03  0.89540696798E+02 0.  0.
          1    1    3    3  502    0 -0.12919159386E+02  0.19120066384E+03 -0.48852918100E+03  0.52477172106E+03  0.00000000000E+00 0. -1.
         -1    1    3    3    0  502 -0.34517196265E+02  0.12810311051E+03 -0.18432510572E+03  0.22710699759E+03  0.00000000000E+00 0.  1.
         13    1    5    5    0    0 -0.43079696059E+01 -0.50150233920E+01 -0.13949146207E+01  0.67568371703E+01  0.00000000000E+00 0.  1.
        -13    1    5    5    0    0  0.43888304986E+03 -0.32066627320E+03 -0.25797592791E+03  0.60166167371E+03  0.00000000000E+00 0. -1.
          4    1    6    6  503    0 -0.10518275422E+03 -0.34600592559E+02 -0.21558162227E+02  0.11280676907E+03  0.00000000000E+00 0. -1.
         -4    1    6    6    0  503 -0.28195597039E+03  0.40978114803E+02  0.47601818838E+01  0.28495795210E+03  0.00000000000E+00 0.  1.
<mgrwt>
<rscale>  0 0.14799111E+04</rscale>
<asrwt>0</asrwt>
<pdfrwt beam="1">  1        1 0.20823731E+00 0.14799111E+04</pdfrwt>
<pdfrwt beam="2">  1       -1 0.62233757E-01 0.14799111E+04</pdfrwt>
<totfact> 0.21022713E+01</totfact>
</mgrwt>
</event>
<event>
12    3  0.4773567E-008  0.1730421E+04  0.7818608E-02  0.8744202E-01
         -1   -1    0    0    0  501 -0.00000000000E+00  0.00000000000E+00  0.48724786722E+03  0.48724786722E+03  0.00000000000E+00 0.  1.
          1   -1    0    0  501    0  0.00000000000E+00 -0.00000000000E+00 -0.15363616064E+04  0.15363616064E+04  0.00000000000E+00 0. -1.
         23    2    1    2    0    0 -0.36672426841E+03  0.11203926869E+03 -0.96732636147E+03  0.10445364581E+04  0.91085870873E+02 0.  0.
        254    2    1    2    0    0  0.36672426841E+03 -0.11203926869E+03 -0.81787377682E+02  0.97907301553E+03  0.89713728482E+03 0.  0.
         23    2    4    4    0    0  0.60539765891E+03 -0.27489408751E+03 -0.28152147998E+02  0.67168721939E+03  0.91093866323E+02 0.  0.
         23    2    4    4    0    0 -0.23867339050E+03  0.16285481882E+03 -0.53635229684E+02  0.30738579614E+03  0.90125526116E+02 0.  0.
          3    1    3    3  502    0 -0.36988724011E+03  0.10292985336E+03 -0.95094082739E+03  0.10255240525E+04  0.00000000000E+00 0. -1.
         -3    1    3    3    0  502  0.31629716957E+01  0.91094153306E+01 -0.16385534088E+02  0.19012405554E+02  0.00000000000E+00 0.  1.
         13    1    5    5    0    0  0.32680390801E+03 -0.11234495689E+03  0.17010497856E+02  0.34599355581E+03  0.00000000000E+00 0. -1.
        -13    1    5    5    0    0  0.27859375091E+03 -0.16254913062E+03 -0.45162645854E+02  0.32569366357E+03  0.00000000000E+00 0.  1.
          2    1    6    6  503    0 -0.47059491304E+02  0.10898903502E+02 -0.39543444325E+02  0.62426483229E+02  0.00000000000E+00 0. -1.
         -2    1    6    6    0  503 -0.19161389920E+03  0.15195591532E+03 -0.14091785359E+02  0.24495931291E+03  0.00000000000E+00 0.  1.
<mgrwt>
<rscale>  0 0.17304207E+04</rscale>
<asrwt>0</asrwt>
<pdfrwt beam="1">  1        1 0.23636332E+00 0.17304207E+04</pdfrwt>
<pdfrwt beam="2">  1       -1 0.74961211E-01 0.17304207E+04</pdfrwt>
<totfact> 0.10486948E+01</totfact>
</mgrwt>
</event>
<event>
12    3  0.4773567E-008  0.1339474E+04  0.7818608E-02  0.8998834E-01
         -1   -1    0    0    0  501 -0.00000000000E+00  0.00000000000E+00  0.49438090531E+03  0.49438090531E+03  0.00000000000E+00 0.  1.
          1   -1    0    0  501    0  0.00000000000E+00 -0.00000000000E+00 -0.90729204648E+03  0.90729204648E+03  0.00000000000E+00 0. -1.
         23    2    1    2    0    0  0.78704424322E+02 -0.21547310587E+03 -0.42573908909E+03  0.49168858432E+03  0.88774130259E+02 0.  0.
        254    2    1    2    0    0 -0.78704424322E+02  0.21547310587E+03  0.12827947925E+02  0.90998436747E+03  0.88050209939E+03 0.  0.
         23    2    4    4    0    0  0.35414271963E+03  0.51075858143E+00  0.15760109027E+03  0.39814034583E+03  0.90886217795E+02 0.  0.
         23    2    4    4    0    0 -0.43284714395E+03  0.21496234729E+03 -0.14477314234E+03  0.51184402164E+03  0.86368854114E+02 0.  0.
          3    1    3    3  502    0  0.62952772372E+02 -0.65168285914E+02 -0.20544393548E+03  0.22453767537E+03  0.00000000000E+00 0. -1.
         -3    1    3    3    0  502  0.15751651950E+02 -0.15030481996E+03 -0.22029515362E+03  0.26715090894E+03  0.00000000000E+00 0.  1.
         13    1    5    5    0    0  0.22134173348E+02  0.21540300453E+02  0.26037188825E+02  0.40396056433E+02  0.00000000000E+00 0.  1.
        -13    1    5    5    0    0  0.33200854628E+03 -0.21029541871E+02  0.13156390144E+03  0.35774428940E+03  0.00000000000E+00 0. -1.
          2    1    6    6  503    0 -0.26988764959E+03  0.16278345227E+03 -0.59817859906E+02  0.32080519338E+03  0.00000000000E+00 0. -1.
         -2    1    6    6    0  503 -0.16295949437E+03  0.52178895018E+02 -0.84955282438E+02  0.19103882826E+03  0.00000000000E+00 0.  1.
<mgrwt>
<rscale>  0 0.13394743E+04</rscale>
<asrwt>0</asrwt>
<pdfrwt beam="1">  1        1 0.13958339E+00 0.13394743E+04</pdfrwt>
<pdfrwt beam="2">  1       -1 0.76058601E-01 0.13394743E+04</pdfrwt>
<totfact> 0.30532298E+01</totfact>
</mgrwt>
</event>
<event>
12    3  0.4773567E-008  0.1587780E+04  0.7818608E-02  0.8828090E-01
          2   -1    0    0  501    0  0.00000000000E+00  0.00000000000E+00  0.27163741282E+04  0.27163741282E+04  0.00000000000E+00 0. -1.
         -2   -1    0    0    0  501 -0.00000000000E+00 -0.00000000000E+00 -0.23202311298E+03  0.23202311298E+03  0.00000000000E+00 0.  1.
         23    2    1    2    0    0 -0.28233464150E+03 -0.37245440931E+03  0.37481382625E+03  0.60573557599E+03  0.89415025982E+02 0.  0.
        254    2    1    2    0    0  0.28233464150E+03  0.37245440931E+03  0.21095371889E+04  0.23426616652E+04  0.90525211352E+03 0.  0.
         23    2    4    4    0    0 -0.11314676351E+03  0.50749960588E+03  0.15572297807E+04  0.16442403442E+04  0.90574166283E+02 0.  0.
         23    2    4    4    0    0  0.39548140501E+03 -0.13504519657E+03  0.55230740826E+03  0.69842132095E+03  0.90034002003E+02 0.  0.
          1    1    3    3  502    0 -0.59341100796E+02 -0.33373432015E+02  0.35731352240E+02  0.76888762125E+02  0.00000000000E+00 0. -1.
         -1    1    3    3    0  502 -0.22299354070E+03 -0.33908097730E+03  0.33908247401E+03  0.52884681387E+03  0.00000000000E+00 0.  1.
         13    1    5    5    0    0 -0.52588411947E+02  0.10148020643E+03  0.27187088243E+03  0.29491956544E+03  0.00000000000E+00 0. -1.
        -13    1    5    5    0    0 -0.60558351561E+02  0.40601939945E+03  0.12853588983E+04  0.13493207788E+04  0.00000000000E+00 0.  1.
          4    1    6    6  503    0  0.44641653867E+02  0.11726286711E+01  0.26921723791E+02  0.52144333631E+02  0.00000000000E+00 0. -1.
         -4    1    6    6    0  503  0.35083975114E+03 -0.13621782524E+03  0.52538568447E+03  0.64627698732E+03  0.00000000000E+00 0.  1.
<mgrwt>
<rscale>  0 0.15877803E+04</rscale>
<asrwt>0</asrwt>
<pdfrwt beam="1">  1        2 0.41790369E+00 0.15877803E+04</pdfrwt>
<pdfrwt beam="2">  1       -2 0.35695865E-01 0.15877803E+04</pdfrwt>
<totfact> 0.18451330E+01</totfact>
</mgrwt>
</event>
<event>
12    3  0.4773567E-008  0.1791261E+04  0.7818608E-02  0.8710960E-01
          1   -1    0    0  501    0  0.00000000000E+00  0.00000000000E+00  0.12787963332E+04  0.12787963332E+04  0.00000000000E+00 0. -1.
         -1   -1    0    0    0  501 -0.00000000000E+00 -0.00000000000E+00 -0.62727290923E+03  0.62727290923E+03  0.00000000000E+00 0.  1.
         23    2    1    2    0    0  0.22869319983E+03  0.27744637586E+03 -0.34565060917E+03  0.50709247751E+03  0.91604399467E+02 0.  0.
        254    2    1    2    0    0 -0.22869319983E+03 -0.27744637586E+03  0.99717403318E+03  0.13989767650E+04  0.91296378097E+03 0.  0.
         23    2    4    4    0    0  0.16050947304E+03 -0.46984726317E+03  0.70686518062E+03  0.86864746756E+03  0.91489330986E+02 0.  0.
         23    2    4    4    0    0 -0.38920267288E+03  0.19240088731E+03  0.29030885257E+03  0.53032929742E+03  0.92049507394E+02 0.  0.
          3    1    3    3  502    0  0.40891155843E+02  0.55405948626E+02 -0.22709907107E+02  0.72509624534E+02  0.00000000000E+00 0. -1.
         -3    1    3    3    0  502  0.18780204399E+03  0.22204042723E+03 -0.32294070206E+03  0.43458285297E+03  0.00000000000E+00 0.  1.
         13    1    5    5    0    0  0.21615044612E+02 -0.13559918428E+03  0.25567053551E+03  0.29020987520E+03  0.00000000000E+00 0. -1.
        -13    1    5    5    0    0  0.13889442843E+03 -0.33424807888E+03  0.45119464510E+03  0.57843759236E+03  0.00000000000E+00 0.  1.
          1    1    6    6  503    0 -0.93889042347E+02  0.63659397612E+02  0.33321489762E+02  0.11822856193E+03  0.00000000000E+00 0. -1.
         -1    1    6    6    0  503 -0.29531363053E+03  0.12874148970E+03  0.25698736280E+03  0.41210073549E+03  0.00000000000E+00 0.  1.
<mgrwt>
<rscale>  0 0.17912613E+04</rscale>
<asrwt>0</asrwt>
<pdfrwt beam="1">  1        1 0.19673790E+00 0.17912613E+04</pdfrwt>
<pdfrwt beam="2">  1       -1 0.96503524E-01 0.17912613E+04</pdfrwt>
<totfact> 0.91433019E+00</totfact>
</mgrwt>
</event>
<event>
12    3  0.4773567E-008  0.1606060E+04  0.7818608E-02  0.8816834E-01
          2   -1    0    0  501    0  0.00000000000E+00  0.00000000000E+00  0.11022207957E+04  0.11022207957E+04  0.00000000000E+00 0.  1.
         -2   -1    0    0    0  501 -0.00000000000E+00 -0.00000000000E+00 -0.58505290051E+03  0.58505290051E+03  0.00000000000E+00 0. -1.
         23    2    1    2    0    0  0.31425561434E+03  0.37168624215E+03  0.44209355371E+03  0.66494938780E+03  0.99013758441E+02 0.  0.
        254    2    1    2    0    0 -0.31425561434E+03 -0.37168624215E+03  0.75074341492E+02  0.10223243084E+04  0.89588145483E+03 0.  0.
         23    2    4    4    0    0 -0.43894929023E+03 -0.56435756738E+03  0.19799865699E+03  0.74759185122E+03  0.92272230855E+02 0.  0.
         23    2    4    4    0    0  0.12469367589E+03  0.19267132523E+03 -0.12292431550E+03  0.27473245720E+03  0.87731313254E+02 0.  0.
          1    1    3    3  502    0  0.17964322552E+03  0.18694815993E+03  0.17210022647E+03  0.31119092360E+03  0.00000000000E+00 0. -1.
         -1    1    3    3    0  502  0.13461238882E+03  0.18473808221E+03  0.26999332723E+03  0.35375846420E+03  0.00000000000E+00 0.  1.
         13    1    5    5    0    0 -0.77205203437E+02 -0.73061717994E+02  0.60047162769E+02  0.12208324959E+03  0.00000000000E+00 0.  1.
        -13    1    5    5    0    0 -0.36174408679E+03 -0.49129584939E+03  0.13795149422E+03  0.62550860163E+03  0.00000000000E+00 0. -1.
          4    1    6    6  503    0  0.12220588805E+03  0.13343945341E+03 -0.11626262649E+03  0.21507525455E+03  0.00000000000E+00 0. -1.
         -4    1    6    6    0  503  0.24877878382E+01  0.59231871827E+02 -0.66616890145E+01  0.59657202659E+02  0.00000000000E+00 0.  1.
<mgrwt>
<rscale>  0 0.16060604E+04</rscale>
<asrwt>0</asrwt>
<pdfrwt beam="1">  1        2 0.16957243E+00 0.16060604E+04</pdfrwt>
<pdfrwt beam="2">  1       -2 0.90008139E-01 0.16060604E+04</pdfrwt>
<totfact> 0.21998152E+01</totfact>
</mgrwt>
</event>
<event>
12    3  0.4773567E-008  0.2280369E+04  0.7818608E-02  0.8485702E-01
         -1   -1    0    0    0  501 -0.00000000000E+00  0.00000000000E+00  0.95953231647E+03  0.95953231647E+03  0.00000000000E+00 0.  1.
          1   -1    0    0  501    0  0.00000000000E+00 -0.00000000000E+00 -0.13548487024E+04  0.13548487024E+04  0.00000000000E+00 0. -1.
         23    2    1    2    0    0 -0.21465796386E+03  0.17117770187E+03 -0.10945465912E+04  0.11321521166E+04  0.91412952649E+02 0.  0.
        254    2    1    2    0    0  0.21465796386E+03 -0.17117770187E+03  0.69923020522E+03  0.11822289022E+04  0.91288687707E+03 0.  0.
         23    2    4    4    0    0 -0.32297499859E+03 -0.80744217909E+02  0.47081730011E+03  0.58393302336E+03  0.92067188771E+02 0.  0.
         23    2    4    4    0    0  0.53763296245E+03 -0.90433483959E+02  0.22841290512E+03  0.59829587889E+03  0.92509924544E+02 0.  0.
          3    1    3    3  502    0 -0.90744772722E+02  0.96747905823E+02 -0.68806461531E+03  0.70073367687E+03  0.00000000000E+00 0. -1.
         -3    1    3    3    0  502 -0.12391319114E+03  0.74429796045E+02 -0.40648197585E+03  0.43141843976E+03  0.00000000000E+00 0.  1.
         13    1    5    5    0    0 -0.30666601108E+03 -0.57678585911E+02  0.45450453070E+03  0.55131227998E+03  0.00000000000E+00 0. -1.
        -13    1    5    5    0    0 -0.16308987506E+02 -0.23065631998E+02  0.16312769405E+02  0.32620743379E+02  0.00000000000E+00 0.  1.
          2    1    6    6  503    0  0.33619355629E+03 -0.34827044960E+02  0.97782985957E+02  0.35185301291E+03  0.00000000000E+00 0. -1.
         -2    1    6    6    0  503  0.20143940616E+03 -0.55606438998E+02  0.13062991916E+03  0.24644286598E+03  0.00000000000E+00 0.  1.
<mgrwt>
<rscale>  0 0.22803694E+04</rscale>
<asrwt>0</asrwt>
<pdfrwt beam="1">  1        1 0.20843826E+00 0.22803694E+04</pdfrwt>
<pdfrwt beam="2">  1       -1 0.14762036E+00 0.22803694E+04</pdfrwt>
<totfact> 0.27267838E+00</totfact>
</mgrwt>
</event>
<event>
12    3  0.4773567E-008  0.1442919E+04  0.7818608E-02  0.8923324E-01
          1   -1    0    0  501    0  0.00000000000E+00  0.00000000000E+00  0.11919471715E+04  0.11919471715E+04  0.00000000000E+00 0.  1.
         -1   -1    0    0    0  501 -0.00000000000E+00 -0.00000000000E+00 -0.43668388139E+03  0.43668388139E+03  0.00000000000E+00 0. -1.
         23    2    1    2    0    0 -0.17831044119E+03 -0.32719943892E+03  0.47311349710E+03  0.60907040501E+03  0.90974121899E+02 0.  0.
        254    2    1    2    0    0  0.17831044119E+03  0.32719943892E+03  0.28214979304E+03  0.10195606479E+04  0.90611330572E+03 0.  0.
         23    2    4    4    0    0  0.23259957262E+03  0.61362236605E+03  0.26382975848E+03  0.71333333315E+03  0.92754155811E+02 0.  0.
         23    2    4    4    0    0 -0.54289131431E+02 -0.28642292713E+03  0.18320034557E+02  0.30622731476E+03  0.91946406474E+02 0.  0.
          1    1    3    3  502    0 -0.15949278136E+02 -0.89883516777E+01  0.28856973490E+01  0.18533677135E+02  0.00000000000E+00 0. -1.
         -1    1    3    3    0  502 -0.16236116306E+03 -0.31821108724E+03  0.47022779975E+03  0.59053672788E+03  0.00000000000E+00 0.  1.
         13    1    5    5    0    0  0.13303907881E+03  0.22364459469E+03  0.10747671807E+03  0.28154492742E+03  0.00000000000E+00 0. -1.
        -13    1    5    5    0    0  0.99560493814E+02  0.38997777136E+03  0.15635304041E+03  0.43178840574E+03  0.00000000000E+00 0.  1.
          4    1    6    6  503    0 -0.54524921450E+02 -0.68017688207E+02  0.87493613303E+01  0.87612352393E+02  0.00000000000E+00 0. -1.
         -4    1    6    6    0  503  0.23579001884E+00 -0.21840523892E+03  0.95706732270E+01  0.21861496237E+03  0.00000000000E+00 0.  1.
<mgrwt>
<rscale>  0 0.14429194E+04</rscale>
<asrwt>0</asrwt>
<pdfrwt beam="1">  1        1 0.18337649E+00 0.14429194E+04</pdfrwt>
<pdfrwt beam="2">  1       -1 0.67182136E-01 0.14429194E+04</pdfrwt>
<totfact> 0.23624279E+01</totfact>
</mgrwt>
</event>
<event>
12    3  0.4773567E-008  0.2272506E+04  0.7818608E-02  0.8488841E-01
         -2   -1    0    0    0  501 -0.00000000000E+00  0.00000000000E+00  0.26050868015E+04  0.26050868015E+04  0.00000000000E+00 0.  1.
          2   -1    0    0  501    0  0.00000000000E+00 -0.00000000000E+00 -0.49559617978E+03  0.49559617978E+03  0.00000000000E+00 0. -1.
         23    2    1    2    0    0  0.14509607345E+03  0.36898088395E+03 -0.29513745079E+03  0.50271135616E+03  0.91721477847E+02 0.  0.
        254    2    1    2    0    0 -0.14509607345E+03 -0.36898088395E+03  0.24046280725E+04  0.25979716251E+04  0.90001146354E+03 0.  0.
         23    2    4    4    0    0 -0.30948909572E+03 -0.59890680685E+03  0.17960451520E+04  0.19204842381E+04  0.89491098845E+02 0.  0.
         23    2    4    4    0    0  0.16439302228E+03  0.22992592290E+03  0.60858292043E+03  0.67748738702E+03  0.93407669597E+02 0.  0.
          3    1    3    3  502    0  0.14683706837E+03  0.27626242548E+03 -0.24438895567E+03  0.39699875822E+03  0.00000000000E+00 0. -1.
         -3    1    3    3    0  502 -0.17409949200E+01  0.92718458472E+02 -0.50748495126E+02  0.10571259794E+03  0.00000000000E+00 0.  1.
         13    1    5    5    0    0 -0.25168990010E+03 -0.53522362765E+03  0.16191275503E+04  0.17237709133E+04  0.00000000000E+00 0. -1.
        -13    1    5    5    0    0 -0.57799195628E+02 -0.63683179200E+02  0.17691760173E+03  0.19671332474E+03  0.00000000000E+00 0.  1.
          2    1    6    6  503    0  0.15331143484E+03  0.14202304959E+03  0.41926960328E+03  0.46846765406E+03  0.00000000000E+00 0.  1.
         -2    1    6    6    0  503  0.11081587436E+02  0.87902873306E+02  0.18931331715E+03  0.20901973296E+03  0.00000000000E+00 0. -1.
<mgrwt>
<rscale>  0 0.22725062E+04</rscale>
<asrwt>0</asrwt>
<pdfrwt beam="1">  1        2 0.76245568E-01 0.22725062E+04</pdfrwt>
<pdfrwt beam="2">  1       -2 0.40078258E+00 0.22725062E+04</pdfrwt>
<totfact> 0.41519853E-01</totfact>
</mgrwt>
</event>
<event>
12    3  0.4773567E-008  0.1124427E+04  0.7818608E-02  0.9181705E-01
          1   -1    0    0  501    0  0.00000000000E+00  0.00000000000E+00  0.23641389654E+04  0.23641389654E+04  0.00000000000E+00 0. -1.
         -1   -1    0    0    0  501 -0.00000000000E+00 -0.00000000000E+00 -0.13369941688E+03  0.13369941688E+03  0.00000000000E+00 0.  1.
         23    2    1    2    0    0 -0.17041595896E+03 -0.48140165673E+02  0.54133177172E+03  0.57653357487E+03  0.89396875008E+02 0.  0.
        254    2    1    2    0    0  0.17041595896E+03  0.48140165673E+02  0.16891077768E+04  0.19213048075E+04  0.89831398004E+03 0.  0.
         23    2    4    4    0    0  0.51921086826E+03 -0.12223078734E+02  0.77908395837E+03  0.94085796977E+03  0.92263620768E+02 0.  0.
         23    2    4    4    0    0 -0.34879490930E+03  0.60363244407E+02  0.91002381846E+03  0.98044683768E+03  0.88493170955E+02 0.  0.
          3    1    3    3  502    0 -0.12157602583E+03 -0.35496627045E+02  0.48338832781E+03  0.49970492898E+03  0.00000000000E+00 0. -1.
         -3    1    3    3    0  502 -0.48839933122E+02 -0.12643538628E+02  0.57943443910E+02  0.76828645885E+02  0.00000000000E+00 0.  1.
         13    1    5    5    0    0  0.60565133283E+01 -0.69254860216E+01  0.40231527792E+02  0.41270080431E+02  0.00000000000E+00 0.  1.
        -13    1    5    5    0    0  0.51315435493E+03 -0.52975927123E+01  0.73885243058E+03  0.89958788934E+03  0.00000000000E+00 0. -1.
          2    1    6    6  503    0 -0.25846380943E+03  0.24608899164E+02  0.56121887006E+03  0.61836539264E+03  0.00000000000E+00 0. -1.
         -2    1    6    6    0  503 -0.90331099872E+02  0.35754345243E+02  0.34880494841E+03  0.36208144504E+03  0.00000000000E+00 0.  1.
<mgrwt>
<rscale>  0 0.11244270E+04</rscale>
<asrwt>0</asrwt>
<pdfrwt beam="1">  1        1 0.36371366E+00 0.11244270E+04</pdfrwt>
<pdfrwt beam="2">  1       -1 0.20569143E-01 0.11244270E+04</pdfrwt>
<totfact> 0.32857143E+01</totfact>
</mgrwt>
</event>
<event>
12    3  0.4773567E-008  0.1713857E+04  0.7818608E-02  0.8753501E-01
          1   -1    0    0  501    0  0.00000000000E+00  0.00000000000E+00  0.14089185659E+04  0.14089185659E+04  0.00000000000E+00 0. -1.
         -1   -1    0    0    0  501 -0.00000000000E+00 -0.00000000000E+00 -0.52119857029E+03  0.52119857029E+03  0.00000000000E+00 0.  1.
         23    2    1    2    0    0 -0.33988476004E+02 -0.61887982793E+03  0.33747550113E+03  0.71153200627E+03  0.90667657738E+02 0.  0.
        254    2    1    2    0    0  0.33988476004E+02  0.61887982793E+03  0.55024449447E+03  0.12185851299E+04  0.89331587763E+03 0.  0.
         23    2    4    4    0    0  0.75475761915E+02  0.83265118521E+03  0.35637455634E+03  0.91333975689E+03  0.90454962532E+02 0.  0.
         23    2    4    4    0    0 -0.41487285911E+02 -0.21377135728E+03  0.19386993812E+03  0.30524537302E+03  0.90386928027E+02 0.  0.
          4    1    3    3  502    0 -0.26433305956E+02 -0.35761643700E+03  0.24493977249E+03  0.43426227999E+03  0.00000000000E+00 0. -1.
         -4    1    3    3    0  502 -0.75551700479E+01 -0.26126339093E+03  0.92535728648E+02  0.27726972628E+03  0.00000000000E+00 0.  1.
         13    1    5    5    0    0  0.58966579529E+02  0.81356206750E+03  0.34491883889E+03  0.88562367888E+03  0.00000000000E+00 0.  1.
        -13    1    5    5    0    0  0.16509182385E+02  0.19089117710E+02  0.11455717456E+02  0.27716078013E+02  0.00000000000E+00 0. -1.
          1    1    6    6  503    0  0.62043714638E+01 -0.57949907501E+02  0.10382823933E+03  0.11906716292E+03  0.00000000000E+00 0. -1.
         -1    1    6    6    0  503 -0.47691657375E+02 -0.15582144977E+03  0.90041698798E+02  0.18617821010E+03  0.00000000000E+00 0.  1.
<mgrwt>
<rscale>  0 0.17138569E+04</rscale>
<asrwt>0</asrwt>
<pdfrwt beam="1">  1        1 0.21675670E+00 0.17138569E+04</pdfrwt>
<pdfrwt beam="2">  1       -1 0.80184396E-01 0.17138569E+04</pdfrwt>
<totfact> 0.11172993E+01</totfact>
</mgrwt>
</event>
<event>
12    3  0.4773567E-008  0.1057610E+04  0.7818608E-02  0.9247523E-01
          2   -1    0    0  501    0  0.00000000000E+00  0.00000000000E+00  0.30977415545E+04  0.30977415545E+04  0.00000000000E+00 0.  1.
         -2   -1    0    0    0  501 -0.00000000000E+00 -0.00000000000E+00 -0.90270451576E+02  0.90270451576E+02  0.00000000000E+00 0. -1.
         23    2    1    2    0    0 -0.12051397601E+03  0.10657237279E+02  0.32126624780E+03  0.35577512607E+03  0.93417039311E+02 0.  0.
        254    2    1    2    0    0  0.12051397601E+03 -0.10657237279E+02  0.26862048551E+04  0.28322368800E+04  0.88951224031E+03 0.  0.
         23    2    4    4    0    0  0.72667661067E+02 -0.43621215884E+03  0.11712112020E+04  0.12553448240E+04  0.92700113029E+02 0.  0.
         23    2    4    4    0    0  0.47846314944E+02  0.42555492156E+03  0.15149936531E+04  0.15768920560E+04  0.89423297768E+02 0.  0.
          3    1    3    3  502    0 -0.12818561492E+03  0.17148997658E+02  0.22926235378E+03  0.26322398609E+03  0.00000000000E+00 0. -1.
         -3    1    3    3    0  502  0.76716389089E+01 -0.64917603795E+01  0.92003894020E+02  0.92551139978E+02  0.00000000000E+00 0.  1.
         13    1    5    5    0    0  0.50488975193E+02 -0.77878926183E+02  0.24246469923E+03  0.25962163648E+03  0.00000000000E+00 0. -1.
        -13    1    5    5    0    0  0.22178685874E+02 -0.35833323266E+03  0.92874650274E+03  0.99572318748E+03  0.00000000000E+00 0.  1.
          2    1    6    6  503    0  0.41475389113E+02  0.25264434630E+03  0.10495869779E+04  0.10803620679E+04  0.00000000000E+00 0.  1.
         -2    1    6    6    0  503  0.63709258307E+01  0.17291057526E+03  0.46540667527E+03  0.49652998814E+03  0.00000000000E+00 0. -1.
<mgrwt>
<rscale>  0 0.10576096E+04</rscale>
<asrwt>0</asrwt>
<pdfrwt beam="1">  1        2 0.47657554E+00 0.10576096E+04</pdfrwt>
<pdfrwt beam="2">  1       -2 0.13887764E-01 0.10576096E+04</pdfrwt>
<totfact> 0.61515798E+01</totfact>
</mgrwt>
</event>
<event>
12    3  0.4773567E-008  0.1501541E+04  0.7818608E-02  0.8883429E-01
         -2   -1    0    0    0  501 -0.00000000000E+00  0.00000000000E+00  0.52229070087E+03  0.52229070087E+03  0.00000000000E+00 0.  1.
          2   -1    0    0  501    0  0.00000000000E+00 -0.00000000000E+00 -0.10792007741E+04  0.10792007741E+04  0.00000000000E+00 0. -1.
         23    2    1    2    0    0  0.41224322078E+03 -0.17636126347E+03  0.50689954984E+02  0.46026651934E+03  0.90708483412E+02 0.  0.
        254    2    1    2    0    0 -0.41224322078E+03  0.17636126347E+03 -0.60760002820E+03  0.11412249556E+04  0.85566864890E+03 0.  0.
         23    2    4    4    0    0 -0.76423207814E+02  0.39034386260E+03  0.16391534661E+01  0.40828444512E+03  0.92112233375E+02 0.  0.
         23    2    4    4    0    0 -0.33582001296E+03 -0.21398259914E+03 -0.60923918166E+03  0.73294051049E+03  0.86404731398E+02 0.  0.
          2    1    3    3  502    0  0.20859961571E+02 -0.22607595899E+02  0.23824571330E+02  0.38908245760E+02  0.00000000000E+00 0. -1.
         -2    1    3    3    0  502  0.39138325921E+03 -0.15375366757E+03  0.26865383654E+02  0.42135827358E+03  0.00000000000E+00 0.  1.
         13    1    5    5    0    0  0.11505874815E+01  0.30256138115E+01 -0.12608410667E+02  0.13017304254E+02  0.00000000000E+00 0.  1.
        -13    1    5    5    0    0 -0.77573795296E+02  0.38731824879E+03  0.14247564133E+02  0.39526714087E+03  0.00000000000E+00 0. -1.
          2    1    6    6  503    0 -0.17011730326E+03 -0.15823533103E+03 -0.36163024046E+03  0.42983106876E+03  0.00000000000E+00 0. -1.
         -2    1    6    6    0  503 -0.16570270970E+03 -0.55747268102E+02 -0.24760894120E+03  0.30310944173E+03  0.00000000000E+00 0.  1.
<mgrwt>
<rscale>  0 0.15015412E+04</rscale>
<asrwt>0</asrwt>
<pdfrwt beam="1">  1        2 0.16603089E+00 0.15015412E+04</pdfrwt>
<pdfrwt beam="2">  1       -2 0.80352416E-01 0.15015412E+04</pdfrwt>
<totfact> 0.29681656E+01</totfact>
</mgrwt>
</event>
<event>
12    3  0.4773567E-008  0.1593375E+04  0.7818608E-02  0.8824629E-01
         -2   -1    0    0    0  501 -0.00000000000E+00  0.00000000000E+00  0.30923736723E+04  0.30923736723E+04  0.00000000000E+00 0.  1.
          2   -1    0    0  501    0  0.00000000000E+00 -0.00000000000E+00 -0.20525030122E+03  0.20525030122E+03  0.00000000000E+00 0. -1.
         23    2    1    2    0    0 -0.34018723466E+03  0.40644265683E+03  0.81307987000E+03  0.97451576711E+03  0.87516383790E+02 0.  0.
        254    2    1    2    0    0  0.34018723466E+03 -0.40644265683E+03  0.20740435010E+04  0.23231082064E+04  0.90235930004E+03 0.  0.
         23    2    4    4    0    0 -0.16332149149E+03  0.18319694775E+03  0.56820362285E+03  0.62688218425E+03  0.99452926858E+02 0.  0.
         23    2    4    4    0    0  0.50350872615E+03 -0.58963960458E+03  0.15058398782E+04  0.16962260221E+04  0.91831796062E+02 0.  0.
          1    1    3    3  502    0 -0.34023507351E+03  0.37853953891E+03  0.77790852418E+03  0.92962022340E+03  0.00000000000E+00 0. -1.
         -1    1    3    3    0  502  0.47838851614E-01  0.27903117916E+02  0.35171345820E+02  0.44895543707E+02  0.00000000000E+00 0.  1.
         13    1    5    5    0    0 -0.15773304193E+03  0.18096088757E+03  0.57160614849E+03  0.61996785751E+03  0.00000000000E+00 0.  1.
        -13    1    5    5    0    0 -0.55884495558E+01  0.22360601790E+01 -0.34025256407E+01  0.69143267421E+01  0.00000000000E+00 0. -1.
          3    1    6    6  503    0  0.51263533685E+02 -0.41585822014E+02  0.18445279195E+03  0.19590855759E+03  0.00000000000E+00 0. -1.
         -3    1    6    6    0  503  0.45224519247E+03 -0.54805378256E+03  0.13213870862E+04  0.15003174645E+04  0.00000000000E+00 0.  1.
<mgrwt>
<rscale>  0 0.15933746E+04</rscale>
<asrwt>0</asrwt>
<pdfrwt beam="1">  1        2 0.31576972E-01 0.15933746E+04</pdfrwt>
<pdfrwt beam="2">  1       -2 0.47574976E+00 0.15933746E+04</pdfrwt>
<totfact> 0.38096523E-01</totfact>
</mgrwt>
</event>
<event>
12    3  0.4773567E-008  0.1398357E+04  0.7818608E-02  0.8955008E-01
          1   -1    0    0  501    0  0.00000000000E+00  0.00000000000E+00  0.85664358384E+03  0.85664358384E+03  0.00000000000E+00 0. -1.
         -1   -1    0    0    0  501 -0.00000000000E+00 -0.00000000000E+00 -0.57065829579E+03  0.57065829579E+03  0.00000000000E+00 0.  1.
         23    2    1    2    0    0  0.24102417440E+03 -0.31647441091E+03  0.14338522277E+03  0.43247191575E+03  0.90685888634E+02 0.  0.
        254    2    1    2    0    0 -0.24102417440E+03  0.31647441091E+03  0.14260006527E+03  0.99482996388E+03  0.90061266536E+03 0.  0.
         23    2    4    4    0    0  0.15907742474E+03  0.45505602743E+03 -0.95664606069E+02  0.50018625749E+03  0.93021288766E+02 0.  0.
         23    2    4    4    0    0 -0.40010159914E+03 -0.13858161652E+03  0.23826467134E+03  0.49464370639E+03  0.92823426926E+02 0.  0.
          4    1    3    3  502    0  0.93755497181E+02 -0.15950419065E+03  0.10832384006E+03  0.21439620895E+03  0.00000000000E+00 0.  1.
         -4    1    3    3    0  502  0.14726867722E+03 -0.15697022026E+03  0.35061382708E+02  0.21807570680E+03  0.00000000000E+00 0. -1.
         13    1    5    5    0    0  0.61166840515E+02  0.66942939850E+02 -0.17992065509E+02  0.92447033460E+02  0.00000000000E+00 0. -1.
        -13    1    5    5    0    0  0.97910584227E+02  0.38811308758E+03 -0.77672540560E+02  0.40773922403E+03  0.00000000000E+00 0.  1.
          3    1    6    6  503    0 -0.16826430341E+02 -0.24952223658E+02  0.17331300442E+01  0.30145413636E+02  0.00000000000E+00 0. -1.
         -3    1    6    6    0  503 -0.38327516880E+03 -0.11362939287E+03  0.23653154130E+03  0.46449829275E+03  0.00000000000E+00 0.  1.
<mgrwt>
<rscale>  0 0.13983573E+04</rscale>
<asrwt>0</asrwt>
<pdfrwt beam="1">  1        1 0.13179132E+00 0.13983573E+04</pdfrwt>
<pdfrwt beam="2">  1       -1 0.87793584E-01 0.13983573E+04</pdfrwt>
<totfact> 0.24607052E+01</totfact>
</mgrwt>
</event>
<event>
12    3  0.4773567E-008  0.1801814E+04  0.7818608E-02  0.8705335E-01
          2   -1    0    0  501    0  0.00000000000E+00  0.00000000000E+00  0.60797146517E+03  0.60797146517E+03  0.00000000000E+00 0. -1.
         -2   -1    0    0    0  501 -0.00000000000E+00 -0.00000000000E+00 -0.13349865040E+04  0.13349865040E+04  0.00000000000E+00 0.  1.
         23    2    1    2    0    0  0.35752071987E+03 -0.36331782169E+02 -0.89042459798E+03  0.96445340003E+03  0.90406485497E+02 0.  0.
        254    2    1    2    0    0 -0.35752071987E+03  0.36331782169E+02  0.16340955918E+03  0.97850456911E+03  0.89533649775E+03 0.  0.
         23    2    4    4    0    0  0.16413073068E+03 -0.28090066896E+03  0.11959454429E+03  0.35868150312E+03  0.92225175974E+02 0.  0.
         23    2    4    4    0    0 -0.52165145055E+03  0.31723245112E+03  0.43815014888E+02  0.61982306598E+03  0.97489556814E+02 0.  0.
          2    1    3    3  502    0  0.30550689988E+02  0.22531437252E+02 -0.10516099164E+03  0.11180270340E+03  0.00000000000E+00 0. -1.
         -2    1    3    3    0  502  0.32697002988E+03 -0.58863219421E+02 -0.78526360634E+03  0.85265069664E+03  0.00000000000E+00 0.  1.
         13    1    5    5    0    0  0.16218332258E+03 -0.23542751016E+03  0.12654495078E+03  0.31263903664E+03  0.00000000000E+00 0. -1.
        -13    1    5    5    0    0  0.19474081033E+01 -0.45473158797E+02 -0.69504064923E+01  0.46042466482E+02  0.00000000000E+00 0.  1.
          4    1    6    6  503    0 -0.21175572552E+03  0.14707189999E+03 -0.27107837935E+02  0.25924017038E+03  0.00000000000E+00 0.  1.
         -4    1    6    6    0  503 -0.30989572503E+03  0.17016055113E+03  0.70922852823E+02  0.36058289561E+03  0.00000000000E+00 0. -1.
<mgrwt>
<rscale>  0 0.18018143E+04</rscale>
<asrwt>0</asrwt>
<pdfrwt beam="1">  1        2 0.93534073E-01 0.18018143E+04</pdfrwt>
<pdfrwt beam="2">  1       -2 0.20538254E+00 0.18018143E+04</pdfrwt>
<totfact> 0.56464042E+00</totfact>
</mgrwt>
</event>
<event>
12    3  0.4773567E-008  0.1795546E+04  0.7818608E-02  0.8708672E-01
          2   -1    0    0  501    0  0.00000000000E+00  0.00000000000E+00  0.16204306364E+04  0.16204306364E+04  0.00000000000E+00 0. -1.
         -2   -1    0    0    0  501 -0.00000000000E+00 -0.00000000000E+00 -0.49739635627E+03  0.49739635627E+03  0.00000000000E+00 0.  1.
         23    2    1    2    0    0  0.15844523799E+03 -0.55220872237E+02 -0.34415753417E+03  0.39448394413E+03  0.94968077164E+02 0.  0.
        254    2    1    2    0    0 -0.15844523799E+03  0.55220872237E+02  0.14671918143E+04  0.17233430485E+04  0.88831593751E+03 0.  0.
         23    2    4    4    0    0  0.30556028505E+03 -0.10300090525E+03  0.28620834092E+03  0.44174506591E+03  0.96162438436E+02 0.  0.
         23    2    4    4    0    0 -0.46400552304E+03  0.15822177748E+03  0.11809834734E+04  0.12815979826E+04  0.86233221025E+02 0.  0.
          4    1    3    3  502    0  0.33219664758E+02  0.25180083437E+02 -0.52327102618E+02  0.66900735399E+02  0.00000000000E+00 0. -1.
         -4    1    3    3    0  502  0.12522557324E+03 -0.80400955674E+02 -0.29183043155E+03  0.32758320873E+03  0.00000000000E+00 0.  1.
         13    1    5    5    0    0  0.24187814931E+03 -0.10106669490E+03  0.26931372762E+03  0.37583161098E+03  0.00000000000E+00 0. -1.
        -13    1    5    5    0    0  0.63682135741E+02 -0.19342103494E+01  0.16894613300E+02  0.65913454930E+02  0.00000000000E+00 0.  1.
          2    1    6    6  503    0 -0.28327315290E+03  0.51780363514E+02  0.69244068811E+03  0.74993265815E+03  0.00000000000E+00 0. -1.
         -2    1    6    6    0  503 -0.18073237014E+03  0.10644141397E+03  0.48854278527E+03  0.53166532448E+03  0.00000000000E+00 0.  1.
<mgrwt>
<rscale>  0 0.17955459E+04</rscale>
<asrwt>0</asrwt>
<pdfrwt beam="1">  1        2 0.24929702E+00 0.17955459E+04</pdfrwt>
<pdfrwt beam="2">  1       -2 0.76522517E-01 0.17955459E+04</pdfrwt>
<totfact> 0.15663332E+01</totfact>
</mgrwt>
</event>
<event>
12    3  0.4773567E-008  0.1162109E+04  0.7818608E-02  0.9146685E-01
         -2   -1    0    0    0  501 -0.00000000000E+00  0.00000000000E+00  0.30887238722E+03  0.30887238722E+03  0.00000000000E+00 0.  1.
          2   -1    0    0  501    0  0.00000000000E+00 -0.00000000000E+00 -0.10930858835E+04  0.10930858835E+04  0.00000000000E+00 0. -1.
         23    2    1    2    0    0  0.30907318771E+02  0.46574367766E+02 -0.38862875932E+03  0.40365403180E+03  0.93700750964E+02 0.  0.
        254    2    1    2    0    0 -0.30907318771E+02 -0.46574367766E+02 -0.39558473700E+03  0.99830423895E+03  0.91487684159E+03 0.  0.
         23    2    4    4    0    0  0.24786352239E+03  0.22354216093E+03 -0.47895686905E+03  0.59068939233E+03  0.90038060585E+02 0.  0.
         23    2    4    4    0    0 -0.27877084116E+03 -0.27011652869E+03  0.83372132054E+02  0.40761484663E+03  0.92319173714E+02 0.  0.
          4    1    3    3  502    0  0.17787150135E+02  0.17733948787E+02 -0.36023200912E+03  0.36110659928E+03  0.00000000000E+00 0. -1.
         -4    1    3    3    0  502  0.13120168636E+02  0.28840418979E+02 -0.28396750196E+02  0.42547432515E+02  0.00000000000E+00 0.  1.
         13    1    5    5    0    0  0.15715669689E+03  0.13976641552E+03 -0.22314856891E+03  0.30664011820E+03  0.00000000000E+00 0.  1.
        -13    1    5    5    0    0  0.90706825498E+02  0.83775745412E+02 -0.25580830014E+03  0.28404927412E+03  0.00000000000E+00 0. -1.
          2    1    6    6  503    0 -0.84102627253E+01  0.67197735077E+01 -0.29242053407E+01  0.11155216357E+02  0.00000000000E+00 0.  1.
         -2    1    6    6    0  503 -0.27036057843E+03 -0.27683630220E+03  0.86296337394E+02  0.39645963027E+03  0.00000000000E+00 0. -1.
<mgrwt>
<rscale>  0 0.11621085E+04</rscale>
<asrwt>0</asrwt>
<pdfrwt beam="1">  1        2 0.16816706E+00 0.11621085E+04</pdfrwt>
<pdfrwt beam="2">  1       -2 0.47518829E-01 0.11621085E+04</pdfrwt>
<totfact> 0.91302432E+01</totfact>
</mgrwt>
</event>
<event>
12    3  0.4773567E-008  0.2117396E+04  0.7818608E-02  0.8553619E-01
         -2   -1    0    0    0  501 -0.00000000000E+00  0.00000000000E+00  0.12662955618E+04  0.12662955618E+04  0.00000000000E+00 0.  1.
          2   -1    0    0  501    0  0.00000000000E+00 -0.00000000000E+00 -0.88513391420E+03  0.88513391420E+03  0.00000000000E+00 0. -1.
         23    2    1    2    0    0  0.45656388784E+03  0.72617570077E+03  0.25596276974E+03  0.89985274176E+03  0.91849253138E+02 0.  0.
        254    2    1    2    0    0 -0.45656388784E+03 -0.72617570077E+03  0.12519887788E+03  0.12515767342E+04  0.90276676424E+03 0.  0.
         23    2    4    4    0    0 -0.39106036744E+02 -0.48913226440E+03 -0.31807070781E+03  0.59181326993E+03  0.91073141531E+02 0.  0.
         23    2    4    4    0    0 -0.41745785110E+03 -0.23704343637E+03  0.44326958570E+03  0.65976346432E+03  0.91319521921E+02 0.  0.
          1    1    3    3  502    0  0.12968036738E+03  0.26545664816E+03  0.56660340947E+02  0.30082324374E+03  0.00000000000E+00 0. -1.
         -1    1    3    3    0  502  0.32688352046E+03  0.46071905261E+03  0.19930242879E+03  0.59902949803E+03  0.00000000000E+00 0.  1.
         13    1    5    5    0    0 -0.67714341457E+02 -0.33605474883E+03 -0.23130054784E+03  0.41354318961E+03  0.00000000000E+00 0.  1.
        -13    1    5    5    0    0  0.28608304713E+02 -0.15307751557E+03 -0.86770159977E+02  0.17827008031E+03  0.00000000000E+00 0. -1.
          4    1    6    6  503    0 -0.22480906171E+03 -0.13071769678E+03  0.17812812801E+03  0.31520764659E+03  0.00000000000E+00 0. -1.
         -4    1    6    6    0  503 -0.19264878939E+03 -0.10632573959E+03  0.26514145769E+03  0.34455581774E+03  0.00000000000E+00 0.  1.
<mgrwt>
<rscale>  0 0.21173957E+04</rscale>
<asrwt>0</asrwt>
<pdfrwt beam="1">  1        2 0.13617445E+00 0.21173957E+04</pdfrwt>
<pdfrwt beam="2">  1       -2 0.19481470E+00 0.21173957E+04</pdfrwt>
<totfact> 0.39735778E+00</totfact>
</mgrwt>
</event>
<event>
12    3  0.4773567E-008  0.1258382E+04  0.7818608E-02  0.9063236E-01
         -1   -1    0    0    0  501 -0.00000000000E+00  0.00000000000E+00  0.47224132144E+03  0.47224132144E+03  0.00000000000E+00 0.  1.
          1   -1    0    0  501    0  0.00000000000E+00 -0.00000000000E+00 -0.83830256132E+03  0.83830256132E+03  0.00000000000E+00 0. -1.
         23    2    1    2    0    0  0.22334025153E+03 -0.43511651588E+02  0.10347800754E+03  0.26684494838E+03  0.93404478768E+02 0.  0.
        254    2    1    2    0    0 -0.22334025153E+03  0.43511651588E+02 -0.46953924742E+03  0.10436989344E+04  0.90391715825E+03 0.  0.
         23    2    4    4    0    0 -0.41250657210E+03  0.35278082646E+03 -0.20998682536E+03  0.58861658599E+03  0.88085384347E+02 0.  0.
         23    2    4    4    0    0  0.18916632057E+03 -0.30926917487E+03 -0.25955242206E+03  0.45508234839E+03  0.91110727440E+02 0.  0.
          1    1    3    3  502    0 -0.56441752126E+01  0.66872418094E+01 -0.31650446969E+01  0.93055588109E+01  0.00000000000E+00 0. -1.
         -1    1    3    3    0  502  0.22898442674E+03 -0.50198893397E+02  0.10664305224E+03  0.25753938957E+03  0.00000000000E+00 0.  1.
         13    1    5    5    0    0 -0.37027127958E+02  0.29723642898E+02 -0.47891031261E+02  0.67439261763E+02  0.00000000000E+00 0. -1.
        -13    1    5    5    0    0 -0.37547944414E+03  0.32305718356E+03 -0.16209579409E+03  0.52117732423E+03  0.00000000000E+00 0.  1.
          1    1    6    6  503    0  0.43238224465E+02 -0.11888888029E+03 -0.48194816856E+02  0.13537669771E+03  0.00000000000E+00 0. -1.
         -1    1    6    6    0  503  0.14592809610E+03 -0.19038029458E+03 -0.21135760521E+03  0.31970565068E+03  0.00000000000E+00 0.  1.
<mgrwt>
<rscale>  0 0.12583817E+04</rscale>
<asrwt>0</asrwt>
<pdfrwt beam="1">  1        1 0.12896962E+00 0.12583817E+04</pdfrwt>
<pdfrwt beam="2">  1       -1 0.72652512E-01 0.12583817E+04</pdfrwt>
<totfact> 0.38594651E+01</totfact>
</mgrwt>
</event>
<event>
12    3  0.4773567E-008  0.2161150E+04  0.7818608E-02  0.8534775E-01
          2   -1    0    0  501    0  0.00000000000E+00  0.00000000000E+00  0.28298098317E+04  0.28298098317E+04  0.00000000000E+00 0. -1.
         -2   -1    0    0    0  501 -0.00000000000E+00 -0.00000000000E+00 -0.41262213641E+03  0.41262213641E+03  0.00000000000E+00 0.  1.
         23    2    1    2    0    0  0.47683967222E+03 -0.32032924805E+03  0.19740823196E+04  0.20579192901E+04  0.89687791617E+02 0.  0.
        254    2    1    2    0    0 -0.47683967222E+03  0.32032924805E+03  0.44310537570E+03  0.11845126780E+04  0.93634449335E+03 0.  0.
         23    2    4    4    0    0 -0.50847274305E+03 -0.12200373724E+02  0.61077592185E+03  0.80001133488E+03  0.90980930271E+02 0.  0.
         23    2    4    4    0    0  0.31633070834E+02  0.33252962177E+03 -0.16767054615E+03  0.38450134313E+03  0.90284385667E+02 0.  0.
          4    1    3    3  502    0  0.32274435777E+03 -0.25577103382E+03  0.14876516920E+04  0.15435965467E+04  0.00000000000E+00 0. -1.
         -4    1    3    3    0  502  0.15409531445E+03 -0.64558214226E+02  0.48643062760E+03  0.51432274345E+03  0.00000000000E+00 0.  1.
         13    1    5    5    0    0 -0.34869843751E+03 -0.43088702910E+02  0.45368319220E+03  0.57382547480E+03  0.00000000000E+00 0. -1.
        -13    1    5    5    0    0 -0.15977430554E+03  0.30888329186E+02  0.15709272965E+03  0.22618586008E+03  0.00000000000E+00 0.  1.
          3    1    6    6  503    0  0.48041831402E+02  0.32005301019E+03 -0.16624231349E+03  0.36383849946E+03  0.00000000000E+00 0. -1.
         -3    1    6    6    0  503 -0.16408760568E+02  0.12476611584E+02 -0.14282326622E+01  0.20662843670E+02  0.00000000000E+00 0.  1.
<mgrwt>
<rscale>  0 0.21611499E+04</rscale>
<asrwt>0</asrwt>
<pdfrwt beam="1">  1        2 0.43535535E+00 0.21611499E+04</pdfrwt>
<pdfrwt beam="2">  1       -2 0.63480330E-01 0.21611499E+04</pdfrwt>
<totfact> 0.46756978E+00</totfact>
</mgrwt>
</event>
<event>
12    3  0.4773567E-008  0.1737297E+04  0.7818608E-02  0.8740374E-01
         -1   -1    0    0    0  501 -0.00000000000E+00  0.00000000000E+00  0.58398737844E+03  0.58398737844E+03  0.00000000000E+00 0.  1.
          1   -1    0    0  501    0  0.00000000000E+00 -0.00000000000E+00 -0.12920665487E+04  0.12920665487E+04  0.00000000000E+00 0. -1.
         23    2    1    2    0    0 -0.40589820860E+02  0.47253276581E+03  0.18644941141E+03  0.51775159161E+03  0.91479939209E+02 0.  0.
        254    2    1    2    0    0  0.40589820860E+02 -0.47253276581E+03 -0.89452858165E+03  0.13583023355E+04  0.90546623510E+03 0.  0.
         23    2    4    4    0    0  0.59027643410E+02 -0.71834616547E+03 -0.79537065400E+03  0.10772710960E+04  0.91613650324E+02 0.  0.
         23    2    4    4    0    0 -0.18437822550E+02  0.24581339966E+03 -0.99157927649E+02  0.28103123949E+03  0.91553712107E+02 0.  0.
          3    1    3    3  502    0  0.27212715485E+02  0.77308061739E+02  0.34684723952E+02  0.88994934516E+02  0.00000000000E+00 0. -1.
         -3    1    3    3    0  502 -0.67802536345E+02  0.39522470407E+03  0.15176468746E+03  0.42875665710E+03  0.00000000000E+00 0.  1.
         13    1    5    5    0    0 -0.10844995384E+02 -0.33399183539E+02 -0.62710166360E+02  0.71872695447E+02  0.00000000000E+00 0.  1.
        -13    1    5    5    0    0  0.69872638794E+02 -0.68494698193E+03 -0.73266048764E+03  0.10053984006E+04  0.00000000000E+00 0. -1.
          1    1    6    6  503    0  0.54794787996E+01  0.18606715348E+03 -0.10932532590E+03  0.21587736605E+03  0.00000000000E+00 0. -1.
         -1    1    6    6    0  503 -0.23917301349E+02  0.59746246178E+02  0.10167398248E+02  0.65153873433E+02  0.00000000000E+00 0.  1.
<mgrwt>
<rscale>  0 0.17372974E+04</rscale>
<asrwt>0</asrwt>
<pdfrwt beam="1">  1        1 0.19877947E+00 0.17372974E+04</pdfrwt>
<pdfrwt beam="2">  1       -1 0.89844214E-01 0.17372974E+04</pdfrwt>
<totfact> 0.10542734E+01</totfact>
</mgrwt>
</event>
<event>
12    3  0.4773567E-008  0.1750568E+04  0.7818608E-02  0.8733038E-01
         -1   -1    0    0    0  501 -0.00000000000E+00  0.00000000000E+00  0.13751703384E+04  0.13751703384E+04  0.00000000000E+00 0.  1.
          1   -1    0    0  501    0  0.00000000000E+00 -0.00000000000E+00 -0.55711068402E+03  0.55711068402E+03  0.00000000000E+00 0. -1.
         23    2    1    2    0    0  0.13395824788E+02  0.16109784265E+03  0.98393628934E+03  0.10012325568E+04  0.90576201743E+02 0.  0.
        254    2    1    2    0    0 -0.13395824788E+02 -0.16109784265E+03 -0.16587663493E+03  0.93104846562E+03  0.90177836761E+03 0.  0.
         23    2    4    4    0    0  0.14532366082E+03  0.31684578801E+03  0.70846846724E+02  0.36719951262E+03  0.91137185612E+02 0.  0.
         23    2    4    4    0    0 -0.15871948561E+03 -0.47794363067E+03 -0.23672348166E+03  0.56384895300E+03  0.90915597269E+02 0.  0.
          1    1    3    3  502    0  0.39353240105E+02  0.32869456720E+02  0.20078404515E+03  0.20722768029E+03  0.00000000000E+00 0. -1.
         -1    1    3    3    0  502 -0.25957415317E+02  0.12822838593E+03  0.78315224419E+03  0.79400487653E+03  0.00000000000E+00 0.  1.
         13    1    5    5    0    0 -0.11384115147E+02  0.43367296947E+02  0.41765205777E+01  0.45030698932E+02  0.00000000000E+00 0. -1.
        -13    1    5    5    0    0  0.15670777597E+03  0.27347849107E+03  0.66670326147E+02  0.32216881369E+03  0.00000000000E+00 0.  1.
          1    1    6    6  503    0 -0.31218979376E+02 -0.21892593134E+02 -0.20303003912E+02  0.43198637424E+02  0.00000000000E+00 0. -1.
         -1    1    6    6    0  503 -0.12750050623E+03 -0.45605103753E+03 -0.21642047775E+03  0.52065031558E+03  0.00000000000E+00 0.  1.
<mgrwt>
<rscale>  0 0.17505680E+04</rscale>
<asrwt>0</asrwt>
<pdfrwt beam="1">  1        1 0.85709336E-01 0.17505680E+04</pdfrwt>
<pdfrwt beam="2">  1       -1 0.21156467E+00 0.17505680E+04</pdfrwt>
<totfact> 0.45273018E+00</totfact>
</mgrwt>
</event>
<event>
12    3  0.4773567E-008  0.2391289E+04  0.7818608E-02  0.8442772E-01
         -1   -1    0    0    0  501 -0.00000000000E+00  0.00000000000E+00  0.10889355292E+04  0.10889355292E+04  0.00000000000E+00 0.  1.
          1   -1    0    0  501    0  0.00000000000E+00 -0.00000000000E+00 -0.13128107175E+04  0.13128107175E+04  0.00000000000E+00 0. -1.
         23    2    1    2    0    0 -0.10239679313E+04  0.21389767691E+02 -0.68218966902E+01  0.10282824851E+04  0.91380984257E+02 0.  0.
        254    2    1    2    0    0  0.10239679313E+04 -0.21389767691E+02 -0.21705329164E+03  0.13734637616E+04  0.88900097097E+03 0.  0.
         23    2    4    4    0    0  0.71696481205E+03  0.34897089318E+03  0.70974173097E+02  0.80566552908E+03  0.90776569150E+02 0.  0.
         23    2    4    4    0    0  0.30700311929E+03 -0.37036066087E+03 -0.28802746474E+03  0.56779823249E+03  0.89538137138E+02 0.  0.
          2    1    3    3  502    0 -0.54676913446E+03  0.23340518817E+02  0.40357578491E+02  0.54875313244E+03  0.00000000000E+00 0.  1.
         -2    1    3    3    0  502 -0.47719879687E+03 -0.19507511260E+01 -0.47179475181E+02  0.47952935264E+03  0.00000000000E+00 0. -1.
         13    1    5    5    0    0  0.18178578675E+03  0.81694231855E+02  0.57016442577E+02  0.20729422208E+03  0.00000000000E+00 0. -1.
        -13    1    5    5    0    0  0.53517902530E+03  0.26727666133E+03  0.13957730521E+02  0.59837130701E+03  0.00000000000E+00 0.  1.
          4    1    6    6  503    0  0.17478799401E+03 -0.23837044285E+03 -0.12920884093E+03  0.32259298729E+03  0.00000000000E+00 0.  1.
         -4    1    6    6    0  503  0.13221512528E+03 -0.13199021802E+03 -0.15881862381E+03  0.24520524520E+03  0.00000000000E+00 0. -1.
<mgrwt>
<rscale>  0 0.23912894E+04</rscale>
<asrwt>0</asrwt>
<pdfrwt beam="1">  1        1 0.20197088E+00 0.23912894E+04</pdfrwt>
<pdfrwt beam="2">  1       -1 0.16752854E+00 0.23912894E+04</pdfrwt>
<totfact> 0.20384694E+00</totfact>
</mgrwt>
</event>
<event>
12    3  0.4773567E-008  0.1174693E+04  0.7818608E-02  0.9135300E-01
          1   -1    0    0  501    0  0.00000000000E+00  0.00000000000E+00  0.38558220376E+04  0.38558220376E+04  0.00000000000E+00 0. -1.
         -1   -1    0    0    0  501 -0.00000000000E+00 -0.00000000000E+00 -0.89468869007E+02  0.89468869007E+02  0.00000000000E+00 0.  1.
         23    2    1    2    0    0  0.74863204163E+02  0.11423212914E+02  0.15636559329E+04  0.15681434129E+04  0.91207991791E+02 0.  0.
        254    2    1    2    0    0 -0.74863204163E+02 -0.11423212914E+02  0.22026972357E+04  0.23771474937E+04  0.89062905051E+03 0.  0.
         23    2    4    4    0    0 -0.70994702435E+02  0.77543643459E+02  0.22411012359E+04  0.22454111189E+04  0.91011422088E+02 0.  0.
         23    2    4    4    0    0 -0.38685017275E+01 -0.88966856373E+02 -0.38404000232E+02  0.13173637478E+03  0.89160183763E+02 0.  0.
          1    1    3    3  502    0  0.90273534545E+02 -0.11411449754E+02  0.12083739609E+04  0.12117950163E+04  0.00000000000E+00 0. -1.
         -1    1    3    3    0  502 -0.15410330383E+02  0.22834662668E+02  0.35528197205E+03  0.35634839660E+03  0.00000000000E+00 0.  1.
         13    1    5    5    0    0 -0.23487132602E+01 -0.16587260590E+02  0.12670975315E+03  0.12781242197E+03  0.00000000000E+00 0. -1.
        -13    1    5    5    0    0 -0.68645989175E+02  0.94130904050E+02  0.21143914827E+04  0.21175986969E+04  0.00000000000E+00 0.  1.
          4    1    6    6  503    0  0.35273792623E+02 -0.30164041720E+02 -0.39714913122E+02  0.61085056955E+02  0.00000000000E+00 0. -1.
         -4    1    6    6    0  503 -0.39142294351E+02 -0.58802814654E+02  0.13109128904E+01  0.70651317828E+02  0.00000000000E+00 0.  1.
<mgrwt>
<rscale>  0 0.11746932E+04</rscale>
<asrwt>0</asrwt>
<pdfrwt beam="1">  1        1 0.59320326E+00 0.11746932E+04</pdfrwt>
<pdfrwt beam="2">  1       -1 0.13764444E-01 0.11746932E+04</pdfrwt>
<totfact> 0.49546241E+00</totfact>
</mgrwt>
</event>
<event>
12    3  0.4773567E-008  0.1816394E+04  0.7818608E-02  0.8697630E-01
          2   -1    0    0  501    0  0.00000000000E+00  0.00000000000E+00  0.22651865283E+04  0.22651865283E+04  0.00000000000E+00 0. -1.
         -2   -1    0    0    0  501 -0.00000000000E+00 -0.00000000000E+00 -0.36412968477E+03  0.36412968477E+03  0.00000000000E+00 0.  1.
         23    2    1    2    0    0 -0.61256271855E+03  0.10814458224E+03  0.11016070956E+04  0.12682706321E+04  0.89687614772E+02 0.  0.
        254    2    1    2    0    0  0.61256271855E+03 -0.10814458224E+03  0.79944974788E+03  0.13610455810E+04  0.90906371572E+03 0.  0.
         23    2    4    4    0    0 -0.20904984424E+03  0.18328432336E+02  0.41860145629E+02  0.23272043102E+03  0.91480918287E+02 0.  0.
         23    2    4    4    0    0  0.82161256279E+03 -0.12647301458E+03  0.75758960225E+03  0.11283251499E+04  0.90183212411E+02 0.  0.
          1    1    3    3  502    0 -0.57071771508E+03  0.85017929454E+02  0.10486941934E+04  0.11969570877E+04  0.00000000000E+00 0. -1.
         -1    1    3    3    0  502 -0.41845003466E+02  0.23126652786E+02  0.52912902259E+02  0.71313544363E+02  0.00000000000E+00 0.  1.
         13    1    5    5    0    0 -0.95222407442E+01 -0.23005752106E+02  0.80699761996E+01  0.26173693179E+02  0.00000000000E+00 0. -1.
        -13    1    5    5    0    0 -0.19952760350E+03  0.41334184442E+02  0.33790169430E+02  0.20654673784E+03  0.00000000000E+00 0.  1.
          3    1    6    6  503    0  0.54638876141E+03 -0.98735561095E+02  0.55830757286E+03  0.78739871446E+03  0.00000000000E+00 0. -1.
         -3    1    6    6    0  503  0.27522380138E+03 -0.27737453481E+02  0.19928202939E+03  0.34092643548E+03  0.00000000000E+00 0.  1.
<mgrwt>
<rscale>  0 0.18163939E+04</rscale>
<asrwt>0</asrwt>
<pdfrwt beam="1">  1        2 0.34849023E+00 0.18163939E+04</pdfrwt>
<pdfrwt beam="2">  1       -2 0.56019953E-01 0.18163939E+04</pdfrwt>
<totfact> 0.13389446E+01</totfact>
</mgrwt>
</event>
<event>
12    3  0.4773567E-008  0.2448483E+04  0.7818608E-02  0.8421572E-01
         -2   -1    0    0    0  501 -0.00000000000E+00  0.00000000000E+00  0.12404086684E+04  0.12404086684E+04  0.00000000000E+00 0.  1.
          2   -1    0    0  501    0  0.00000000000E+00 -0.00000000000E+00 -0.12082853656E+04  0.12082853656E+04  0.00000000000E+00 0. -1.
         23    2    1    2    0    0 -0.11507690839E+03  0.41074626526E+03 -0.95344523193E+03  0.10509709384E+04  0.11630526106E+03 0.  0.
        254    2    1    2    0    0  0.11507690839E+03 -0.41074626526E+03  0.98556853479E+03  0.13977230956E+04  0.89461127090E+03 0.  0.
         23    2    4    4    0    0  0.27256917928E+03  0.15846429316E+03  0.60778446760E+03  0.69056554251E+03  0.89854992880E+02 0.  0.
         23    2    4    4    0    0 -0.15749227089E+03 -0.56921055841E+03  0.37778406720E+03  0.70715755313E+03  0.92447435417E+02 0.  0.
          1    1    3    3  502    0 -0.72152295157E+02  0.19243254783E+03 -0.59066878644E+03  0.62540055519E+03  0.00000000000E+00 0. -1.
         -1    1    3    3    0  502 -0.42924613236E+02  0.21831371743E+03 -0.36277644548E+03  0.42557038318E+03  0.00000000000E+00 0.  1.
         13    1    5    5    0    0  0.20705537191E+03  0.14005451936E+03  0.39772262640E+03  0.46975576951E+03  0.00000000000E+00 0. -1.
        -13    1    5    5    0    0  0.65513807371E+02  0.18409773799E+02  0.21006184119E+03  0.22080977300E+03  0.00000000000E+00 0.  1.
          3    1    6    6  503    0 -0.39745263499E+02 -0.26729866473E+03  0.20998334457E+03  0.34222984547E+03  0.00000000000E+00 0. -1.
         -3    1    6    6    0  503 -0.11774700739E+03 -0.30191189368E+03  0.16780072263E+03  0.36492770765E+03  0.00000000000E+00 0.  1.
<mgrwt>
<rscale>  0 0.24484833E+04</rscale>
<asrwt>0</asrwt>
<pdfrwt beam="1">  1        2 0.18589006E+00 0.24484833E+04</pdfrwt>
<pdfrwt beam="2">  1       -2 0.19083210E+00 0.24484833E+04</pdfrwt>
<totfact> 0.25664668E+00</totfact>
</mgrwt>
</event>
<event>
12    3  0.4773567E-008  0.1488843E+04  0.7818608E-02  0.8891906E-01
          2   -1    0    0  501    0  0.00000000000E+00  0.00000000000E+00  0.21162943452E+04  0.21162943452E+04  0.00000000000E+00 0. -1.
         -2   -1    0    0    0  501 -0.00000000000E+00 -0.00000000000E+00 -0.26185562618E+03  0.26185562618E+03  0.00000000000E+00 0.  1.
         23    2    1    2    0    0 -0.29976490322E+03 -0.13329911848E+03  0.11205821183E+04  0.11709986759E+04  0.88915482061E+02 0.  0.
        254    2    1    2    0    0  0.29976490322E+03  0.13329911848E+03  0.73385660074E+03  0.12071512955E+04  0.90057819625E+03 0.  0.
         23    2    4    4    0    0 -0.19065242839E+03 -0.12529439614E+03 -0.44371683247E+02  0.24697953833E+03  0.83564417805E+02 0.  0.
         23    2    4    4    0    0  0.49041733161E+03  0.25859351462E+03  0.77822828399E+03  0.96017175717E+03  0.94396908392E+02 0.  0.
          1    1    3    3  502    0 -0.30104592867E+03 -0.13370824760E+03  0.10511766608E+04  0.11015801917E+04  0.00000000000E+00 0. -1.
         -1    1    3    3    0  502  0.12810254436E+01  0.40912912767E+00  0.69405457536E+02  0.69418484200E+02  0.00000000000E+00 0.  1.
         13    1    5    5    0    0  0.85616076003E+01 -0.31693331874E+01 -0.34264282677E+01  0.97512157307E+01  0.00000000000E+00 0. -1.
        -13    1    5    5    0    0 -0.19921403599E+03 -0.12212506295E+03 -0.40945254979E+02  0.23722832259E+03  0.00000000000E+00 0.  1.
          4    1    6    6  503    0  0.22687209170E+03  0.10383683636E+03  0.27423951057E+03  0.37075644801E+03  0.00000000000E+00 0. -1.
         -4    1    6    6    0  503  0.26354523991E+03  0.15475667825E+03  0.50398877342E+03  0.58941530916E+03  0.00000000000E+00 0.  1.
<mgrwt>
<rscale>  0 0.14888433E+04</rscale>
<asrwt>0</asrwt>
<pdfrwt beam="1">  1        2 0.32558374E+00 0.14888433E+04</pdfrwt>
<pdfrwt beam="2">  1       -2 0.40285482E-01 0.14888433E+04</pdfrwt>
<totfact> 0.32476140E+01</totfact>
</mgrwt>
</event>
<event>
12    3  0.4773567E-008  0.2005998E+04  0.7818608E-02  0.8603822E-01
          1   -1    0    0  501    0  0.00000000000E+00  0.00000000000E+00  0.68220675669E+03  0.68220675669E+03  0.00000000000E+00 0. -1.
         -1   -1    0    0    0  501 -0.00000000000E+00 -0.00000000000E+00 -0.14746358342E+04  0.14746358342E+04  0.00000000000E+00 0.  1.
         23    2    1    2    0    0 -0.74101185843E+03 -0.12353219753E+03 -0.46121243497E+01  0.75676726877E+03  0.91195664587E+02 0.  0.
        254    2    1    2    0    0  0.74101185843E+03  0.12353219753E+03 -0.78781695318E+03  0.14000753221E+04  0.88045248467E+03 0.  0.
         23    2    4    4    0    0  0.54754334802E+02  0.23529428193E+03 -0.63082683944E+03  0.68157691810E+03  0.90791836861E+02 0.  0.
         23    2    4    4    0    0  0.68625752363E+03 -0.11176208440E+03 -0.15699011374E+03  0.71849840402E+03  0.90298995190E+02 0.  0.
          2    1    3    3  502    0 -0.73087086030E+03 -0.10963224043E+03 -0.86311254176E+01  0.73909805770E+03  0.00000000000E+00 0. -1.
         -2    1    3    3    0  502 -0.10140998133E+02 -0.13899957095E+02  0.40190010679E+01  0.17669211073E+02  0.00000000000E+00 0.  1.
         13    1    5    5    0    0  0.54753219384E+02  0.12653976217E+03 -0.24970174484E+03  0.28523882593E+03  0.00000000000E+00 0. -1.
        -13    1    5    5    0    0  0.11154187308E-02  0.10875451976E+03 -0.38112509461E+03  0.39633809218E+03  0.00000000000E+00 0.  1.
          2    1    6    6  503    0  0.11679290598E+03  0.13462927397E+02 -0.16264807838E+02  0.11868604499E+03  0.00000000000E+00 0. -1.
         -2    1    6    6    0  503  0.56946461764E+03 -0.12522501180E+03 -0.14072530590E+03  0.59981235903E+03  0.00000000000E+00 0.  1.
<mgrwt>
<rscale>  0 0.20059975E+04</rscale>
<asrwt>0</asrwt>
<pdfrwt beam="1">  1        1 0.10495489E+00 0.20059975E+04</pdfrwt>
<pdfrwt beam="2">  1       -1 0.22686705E+00 0.20059975E+04</pdfrwt>
<totfact> 0.26006516E+00</totfact>
</mgrwt>
</event>
<event>
12    3  0.4773567E-008  0.1207412E+04  0.7818608E-02  0.9106394E-01
         -1   -1    0    0    0  501 -0.00000000000E+00  0.00000000000E+00  0.29597605209E+03  0.29597605209E+03  0.00000000000E+00 0.  1.
          1   -1    0    0  501    0  0.00000000000E+00 -0.00000000000E+00 -0.12313864049E+04  0.12313864049E+04  0.00000000000E+00 0. -1.
         23    2    1    2    0    0  0.10165522124E+03  0.10777014364E+03 -0.46965918723E+03  0.50096052463E+03  0.91834128841E+02 0.  0.
        254    2    1    2    0    0 -0.10165522124E+03 -0.10777014364E+03 -0.46575116556E+03  0.10264019323E+04  0.90256777619E+03 0.  0.
         23    2    4    4    0    0  0.13131914692E+03  0.35354837798E+03 -0.21781810772E+03  0.44466312869E+03  0.89662679234E+02 0.  0.
         23    2    4    4    0    0 -0.23297436816E+03 -0.46131852162E+03 -0.24793305784E+03  0.58173880365E+03  0.99284439318E+02 0.  0.
          2    1    3    3  502    0 -0.77474924806E+01  0.80593674458E+01 -0.12959961550E+03  0.13008088784E+03  0.00000000000E+00 0. -1.
         -2    1    3    3    0  502  0.10940271372E+03  0.99710776198E+02 -0.34005957173E+03  0.37087963679E+03  0.00000000000E+00 0.  1.
         13    1    5    5    0    0  0.23397564507E+02  0.14999771506E+03 -0.12354879715E+03  0.19573212773E+03  0.00000000000E+00 0.  1.
        -13    1    5    5    0    0  0.10792158241E+03  0.20355066292E+03 -0.94269310572E+02  0.24893100096E+03  0.00000000000E+00 0. -1.
          2    1    6    6  503    0 -0.94320423726E+02 -0.16296317562E+03 -0.14291202757E+03  0.23638355815E+03  0.00000000000E+00 0. -1.
         -2    1    6    6    0  503 -0.13865394444E+03 -0.29835534600E+03 -0.10502103027E+03  0.34535524550E+03  0.00000000000E+00 0.  1.
<mgrwt>
<rscale>  0 0.12074119E+04</rscale>
<asrwt>0</asrwt>
<pdfrwt beam="1">  1        1 0.18944406E+00 0.12074119E+04</pdfrwt>
<pdfrwt beam="2">  1       -1 0.45534778E-01 0.12074119E+04</pdfrwt>
<totfact> 0.48016191E+01</totfact>
</mgrwt>
</event>
<event>
12    3  0.4773567E-008  0.1508098E+04  0.7818608E-02  0.8879086E-01
          1   -1    0    0  501    0  0.00000000000E+00  0.00000000000E+00  0.12264261021E+04  0.12264261021E+04  0.00000000000E+00 0. -1.
         -1   -1    0    0    0  501 -0.00000000000E+00 -0.00000000000E+00 -0.46361508756E+03  0.46361508756E+03  0.00000000000E+00 0.  1.
         23    2    1    2    0    0  0.30369059893E+03 -0.62445940338E+02  0.66215926724E+03  0.73697392632E+03  0.92456462965E+02 0.  0.
        254    2    1    2    0    0 -0.30369059893E+03  0.62445940338E+02  0.10065174726E+03  0.95306726330E+03  0.89558861025E+03 0.  0.
         23    2    4    4    0    0 -0.43812559571E+03  0.20046910388E+03 -0.24410505468E+03  0.54788511764E+03  0.91918035111E+02 0.  0.
         23    2    4    4    0    0  0.13443499678E+03 -0.13802316354E+03  0.34475680194E+03  0.40518214566E+03  0.90510533335E+02 0.  0.
          1    1    3    3  502    0  0.28829515095E+03 -0.51947941795E+02  0.54875397006E+03  0.62204791004E+03  0.00000000000E+00 0. -1.
         -1    1    3    3    0  502  0.15395447978E+02 -0.10497998543E+02  0.11340529718E+03  0.11492601629E+03  0.00000000000E+00 0.  1.
         13    1    5    5    0    0 -0.25431215595E+03  0.14393533911E+03 -0.18832961252E+03  0.34764938870E+03  0.00000000000E+00 0. -1.
        -13    1    5    5    0    0 -0.18381343976E+03  0.56533764771E+02 -0.55775442160E+02  0.20023572894E+03  0.00000000000E+00 0.  1.
          3    1    6    6  503    0  0.12412108890E+03 -0.12034649017E+03  0.34364868719E+03  0.38468655112E+03  0.00000000000E+00 0. -1.
         -3    1    6    6    0  503  0.10313907887E+02 -0.17676673370E+02  0.11081147518E+01  0.20495594543E+02  0.00000000000E+00 0.  1.
<mgrwt>
<rscale>  0 0.15080977E+04</rscale>
<asrwt>0</asrwt>
<pdfrwt beam="1">  1        1 0.18868094E+00 0.15080977E+04</pdfrwt>
<pdfrwt beam="2">  1       -1 0.71325399E-01 0.15080977E+04</pdfrwt>
<totfact> 0.19614654E+01</totfact>
</mgrwt>
</event>
<event>
12    3  0.4773567E-008  0.1986586E+04  0.7818608E-02  0.8612918E-01
         -2   -1    0    0    0  501 -0.00000000000E+00  0.00000000000E+00  0.31943417786E+03  0.31943417786E+03  0.00000000000E+00 0.  1.
          2   -1    0    0  501    0  0.00000000000E+00 -0.00000000000E+00 -0.30886845365E+04  0.30886845365E+04  0.00000000000E+00 0. -1.
         23    2    1    2    0    0  0.81027083650E+02 -0.30573551512E+03  0.13139214842E+03  0.35527498201E+03  0.94428929261E+02 0.  0.
        254    2    1    2    0    0 -0.81027083650E+02  0.30573551512E+03 -0.29006425071E+04  0.30528437323E+04  0.89782420711E+03 0.  0.
         23    2    4    4    0    0 -0.10571761313E+03 -0.29186771480E+03 -0.70902468556E+03  0.77923761261E+03  0.90179130134E+02 0.  0.
         23    2    4    4    0    0  0.24690529477E+02  0.59760322993E+03 -0.21916178215E+04  0.22736061197E+04  0.91415914921E+02 0.  0.
          1    1    3    3  502    0  0.31779221495E+02 -0.62497176349E+02  0.71157430499E+02  0.99895925270E+02  0.00000000000E+00 0. -1.
         -1    1    3    3    0  502  0.49247862154E+02 -0.24323833878E+03  0.60234717917E+02  0.25537905674E+03  0.00000000000E+00 0.  1.
         13    1    5    5    0    0 -0.36665657883E+01 -0.13786498112E+03 -0.27982663257E+03  0.31196657035E+03  0.00000000000E+00 0. -1.
        -13    1    5    5    0    0 -0.10205104734E+03 -0.15400273369E+03 -0.42919805299E+03  0.46727104226E+03  0.00000000000E+00 0.  1.
          3    1    6    6  503    0  0.16765563868E+02  0.43591478004E+02 -0.10985034617E+03  0.11936666050E+03  0.00000000000E+00 0. -1.
         -3    1    6    6    0  503  0.79249656094E+01  0.55401175192E+03 -0.20817674753E+04  0.21542394592E+04  0.00000000000E+00 0.  1.
<mgrwt>
<rscale>  0 0.19865864E+04</rscale>
<asrwt>0</asrwt>
<pdfrwt beam="1">  1        2 0.47518222E+00 0.19865864E+04</pdfrwt>
<pdfrwt beam="2">  1       -2 0.49143721E-01 0.19865864E+04</pdfrwt>
<totfact> 0.55950921E+00</totfact>
</mgrwt>
</event>
<event>
12    3  0.4773567E-008  0.1515357E+04  0.7818608E-02  0.8874305E-01
         -2   -1    0    0    0  501 -0.00000000000E+00  0.00000000000E+00  0.23783237781E+03  0.23783237781E+03  0.00000000000E+00 0.  1.
          2   -1    0    0  501    0  0.00000000000E+00 -0.00000000000E+00 -0.24137865207E+04  0.24137865207E+04  0.00000000000E+00 0. -1.
         23    2    1    2    0    0  0.18347462297E+03  0.73906518336E+02  0.68371857349E+02  0.22773529901E+03  0.89797242781E+02 0.  0.
        254    2    1    2    0    0 -0.18347462297E+03 -0.73906518336E+02 -0.22443260002E+04  0.24238835995E+04  0.89391688531E+03 0.  0.
         23    2    4    4    0    0  0.20438172013E+02 -0.19305106243E+03 -0.57323588513E+02  0.22232248136E+03  0.91950314507E+02 0.  0.
         23    2    4    4    0    0 -0.20391279499E+03  0.11914454409E+03 -0.21870024117E+04  0.22015611181E+04  0.90088610080E+02 0.  0.
          1    1    3    3  502    0  0.35634649588E+02 -0.13570670367E+02 -0.92396896248E+01  0.39234719444E+02  0.00000000000E+00 0. -1.
         -1    1    3    3    0  502  0.14783997339E+03  0.87477188703E+02  0.77611546974E+02  0.18850057957E+03  0.00000000000E+00 0.  1.
         13    1    5    5    0    0  0.47861634027E+02 -0.91327681612E+02 -0.55179613297E+02  0.11694559061E+03  0.00000000000E+00 0. -1.
        -13    1    5    5    0    0 -0.27423462014E+02 -0.10172338082E+03 -0.21439752155E+01  0.10537689075E+03  0.00000000000E+00 0.  1.
          2    1    6    6  503    0 -0.20528986850E+03  0.10659823036E+03 -0.18619209254E+04  0.18762346989E+04  0.00000000000E+00 0. -1.
         -2    1    6    6    0  503  0.13770735113E+01  0.12546313736E+02 -0.32508148628E+03  0.32532641922E+03  0.00000000000E+00 0.  1.
<mgrwt>
<rscale>  0 0.15153568E+04</rscale>
<asrwt>0</asrwt>
<pdfrwt beam="1">  1        2 0.37135178E+00 0.15153568E+04</pdfrwt>
<pdfrwt beam="2">  1       -2 0.36589595E-01 0.15153568E+04</pdfrwt>
<totfact> 0.26555100E+01</totfact>
</mgrwt>
</event>
<event>
12    3  0.4773567E-008  0.1570156E+04  0.7818608E-02  0.8839095E-01
         -2   -1    0    0    0  501 -0.00000000000E+00  0.00000000000E+00  0.39285032002E+03  0.39285032002E+03  0.00000000000E+00 0. -1.
          2   -1    0    0  501    0  0.00000000000E+00 -0.00000000000E+00 -0.15689121530E+04  0.15689121530E+04  0.00000000000E+00 0.  1.
         23    2    1    2    0    0  0.29466916911E+03  0.22095266446E+03  0.59343000732E+02  0.38432837658E+03  0.92394318833E+02 0.  0.
        254    2    1    2    0    0 -0.29466916911E+03 -0.22095266446E+03 -0.12354048337E+04  0.15774340965E+04  0.90907822894E+03 0.  0.
         23    2    4    4    0    0  0.19290064692E+03 -0.39650793776E+03 -0.64788565460E+03  0.78883243579E+03  0.89842005949E+02 0.  0.
         23    2    4    4    0    0 -0.48756981603E+03  0.17555527330E+03 -0.58751917915E+03  0.78860166068E+03  0.90387022751E+02 0.  0.
          3    1    3    3  502    0  0.21908143775E+03  0.17637079223E+03  0.53718752464E+01  0.28130444319E+03  0.00000000000E+00 0. -1.
         -3    1    3    3    0  502  0.75587731362E+02  0.44581872231E+02  0.53971125485E+02  0.10302393339E+03  0.00000000000E+00 0.  1.
         13    1    5    5    0    0  0.19860183922E+03 -0.37788407133E+03 -0.59363852975E+03  0.73119475238E+03  0.00000000000E+00 0. -1.
        -13    1    5    5    0    0 -0.57011923042E+01 -0.18623866434E+02 -0.54247124847E+02  0.57637683409E+02  0.00000000000E+00 0.  1.
          2    1    6    6  503    0 -0.28497539563E+03  0.89581568980E+02 -0.27265385147E+03  0.40444524517E+03  0.00000000000E+00 0. -1.
         -2    1    6    6    0  503 -0.20259442040E+03  0.85973704323E+02 -0.31486532767E+03  0.38415641551E+03  0.00000000000E+00 0.  1.
<mgrwt>
<rscale>  0 0.15701562E+04</rscale>
<asrwt>0</asrwt>
<pdfrwt beam="1">  1        2 0.24137110E+00 0.15701562E+04</pdfrwt>
<pdfrwt beam="2">  1       -2 0.60438511E-01 0.15701562E+04</pdfrwt>
<totfact> 0.28450139E+01</totfact>
</mgrwt>
</event>
<event>
12    3  0.4773567E-008  0.2622550E+04  0.7818608E-02  0.8360582E-01
          1   -1    0    0  501    0  0.00000000000E+00  0.00000000000E+00  0.81673606582E+03  0.81673606582E+03  0.00000000000E+00 0. -1.
         -1   -1    0    0    0  501 -0.00000000000E+00 -0.00000000000E+00 -0.21052603130E+04  0.21052603130E+04  0.00000000000E+00 0.  1.
         23    2    1    2    0    0  0.68217801566E+03  0.77941372565E+03  0.29376357730E+01  0.10397538923E+04  0.90702404341E+02 0.  0.
        254    2    1    2    0    0 -0.68217801566E+03 -0.77941372565E+03 -0.12914618829E+04  0.18822424864E+04  0.89560615336E+03 0.  0.
         23    2    4    4    0    0 -0.87326724772E+03 -0.54758442429E+03 -0.11205609470E+04  0.15258673405E+04  0.10084600697E+03 0.  0.
         23    2    4    4    0    0  0.19108923206E+03 -0.23182930135E+03 -0.17090093591E+03  0.35637514596E+03  0.86811261839E+02 0.  0.
          4    1    3    3  502    0  0.66199976017E+03  0.75197576034E+03 -0.13480046255E+02  0.10019445784E+04  0.00000000000E+00 0. -1.
         -4    1    3    3    0  502  0.20178255485E+02  0.27437965304E+02  0.16417682028E+02  0.37809313901E+02  0.00000000000E+00 0.  1.
         13    1    5    5    0    0 -0.86720829735E+03 -0.54570687506E+03 -0.11219079965E+04  0.15193826961E+04  0.00000000000E+00 0.  1.
        -13    1    5    5    0    0 -0.60589503720E+01 -0.18775492360E+01  0.13470495094E+01  0.64846444101E+01  0.00000000000E+00 0. -1.
          2    1    6    6  503    0 -0.37876597877E+01 -0.23207935227E+02 -0.29701443550E+02  0.37883114618E+02  0.00000000000E+00 0. -1.
         -2    1    6    6    0  503  0.19487689185E+03 -0.20862136613E+03 -0.14119949236E+03  0.31849203134E+03  0.00000000000E+00 0.  1.
<mgrwt>
<rscale>  0 0.26225499E+04</rscale>
<asrwt>0</asrwt>
<pdfrwt beam="1">  1        1 0.12565170E+00 0.26225499E+04</pdfrwt>
<pdfrwt beam="2">  1       -1 0.32388620E+00 0.26225499E+04</pdfrwt>
<totfact> 0.43391161E-01</totfact>
</mgrwt>
</event>
<event>
12    3  0.4773567E-008  0.2118504E+04  0.7818608E-02  0.8553136E-01
         -2   -1    0    0    0  501 -0.00000000000E+00  0.00000000000E+00  0.13681944425E+04  0.13681944425E+04  0.00000000000E+00 0.  1.
          2   -1    0    0  501    0  0.00000000000E+00 -0.00000000000E+00 -0.82006989283E+03  0.82006989283E+03  0.00000000000E+00 0. -1.
         23    2    1    2    0    0  0.71532431195E+02  0.26551858101E+02 -0.64099835906E+03  0.65150597745E+03  0.88086619013E+02 0.  0.
        254    2    1    2    0    0 -0.71532431195E+02 -0.26551858101E+02  0.11891229087E+04  0.15367583578E+04  0.97045920499E+03 0.  0.
         23    2    4    4    0    0  0.34588939146E+03 -0.99808746864E+02  0.13305308290E+03  0.39511717797E+03  0.93878668397E+02 0.  0.
         23    2    4    4    0    0 -0.41742182265E+03  0.73256888763E+02  0.10560698258E+04  0.11416411799E+04  0.91943226341E+02 0.  0.
          4    1    3    3  502    0  0.84690919284E+00  0.36277951523E+02 -0.35049467695E+03  0.35236816768E+03  0.00000000000E+00 0. -1.
         -4    1    3    3    0  502  0.70685522002E+02 -0.97260934211E+01 -0.29050368211E+03  0.29913780977E+03  0.00000000000E+00 0.  1.
         13    1    5    5    0    0  0.34391553270E+03 -0.10396664555E+03  0.14097557270E+03  0.38595475009E+03  0.00000000000E+00 0. -1.
        -13    1    5    5    0    0  0.19738587551E+01  0.41578986870E+01 -0.79224897998E+01  0.91624278717E+01  0.00000000000E+00 0.  1.
          4    1    6    6  503    0 -0.33697272594E+03  0.74197173414E+02  0.75681725943E+03  0.83176210706E+03  0.00000000000E+00 0. -1.
         -4    1    6    6    0  503 -0.80449096714E+02 -0.94028465093E+00  0.29925256636E+03  0.30987907282E+03  0.00000000000E+00 0.  1.
<mgrwt>
<rscale>  0 0.21185043E+04</rscale>
<asrwt>0</asrwt>
<pdfrwt beam="1">  1        2 0.12616460E+00 0.21185043E+04</pdfrwt>
<pdfrwt beam="2">  1       -2 0.21049145E+00 0.21185043E+04</pdfrwt>
<totfact> 0.34839312E+00</totfact>
</mgrwt>
</event>
<event>
12    3  0.4773567E-008  0.2229974E+04  0.7818608E-02  0.8506055E-01
          2   -1    0    0  501    0  0.00000000000E+00  0.00000000000E+00  0.33033855417E+04  0.33033855417E+04  0.00000000000E+00 0.  1.
         -2   -1    0    0    0  501 -0.00000000000E+00 -0.00000000000E+00 -0.37634009897E+03  0.37634009897E+03  0.00000000000E+00 0. -1.
         23    2    1    2    0    0 -0.51190911148E+03 -0.57039536922E+03  0.35087265041E+03  0.84777602007E+03  0.90613176584E+02 0.  0.
        254    2    1    2    0    0  0.51190911148E+03  0.57039536922E+03  0.25761727923E+04  0.28319496206E+04  0.89211578957E+03 0.  0.
         23    2    4    4    0    0  0.29669379865E+01 -0.18940880619E+03  0.22345294664E+03  0.30600584375E+03  0.88452577487E+02 0.  0.
         23    2    4    4    0    0  0.50894217349E+03  0.75980417541E+03  0.23527198457E+04  0.25259437768E+04  0.93684419870E+02 0.  0.
          1    1    3    3  502    0 -0.21521865161E+03 -0.28059386173E+03  0.20117560479E+03  0.40684592563E+03  0.00000000000E+00 0.  1.
         -1    1    3    3    0  502 -0.29669045987E+03 -0.28980150749E+03  0.14969704562E+03  0.44093009444E+03  0.00000000000E+00 0. -1.
         13    1    5    5    0    0  0.20198917633E+02 -0.12184743647E+03  0.81855327588E+02  0.14817249644E+03  0.00000000000E+00 0. -1.
        -13    1    5    5    0    0 -0.17231979646E+02 -0.67561369723E+02  0.14159761905E+03  0.15783334731E+03  0.00000000000E+00 0.  1.
          1    1    6    6  503    0  0.35578666354E+03  0.45305415373E+03  0.15096572623E+04  0.16158302095E+04  0.00000000000E+00 0. -1.
         -1    1    6    6    0  503  0.15315550995E+03  0.30675002168E+03  0.84306258333E+03  0.91011356733E+03  0.00000000000E+00 0.  1.
<mgrwt>
<rscale>  0 0.22299744E+04</rscale>
<asrwt>0</asrwt>
<pdfrwt beam="1">  1        2 0.50821314E+00 0.22299744E+04</pdfrwt>
<pdfrwt beam="2">  1       -2 0.57898479E-01 0.22299744E+04</pdfrwt>
<totfact> 0.28274579E+00</totfact>
</mgrwt>
</event>
<event>
12    3  0.4773567E-008  0.1866970E+04  0.7818608E-02  0.8671475E-01
         -2   -1    0    0    0  501 -0.00000000000E+00  0.00000000000E+00  0.55983123275E+03  0.55983123275E+03  0.00000000000E+00 0.  1.
          2   -1    0    0  501    0  0.00000000000E+00 -0.00000000000E+00 -0.15565295338E+04  0.15565295338E+04  0.00000000000E+00 0. -1.
         23    2    1    2    0    0  0.10048263922E+03  0.11566367789E+03  0.40621309764E+03  0.44388330792E+03  0.92457899571E+02 0.  0.
        254    2    1    2    0    0 -0.10048263922E+03 -0.11566367789E+03 -0.14029113987E+04  0.16724774587E+04  0.89752192724E+03 0.  0.
         23    2    4    4    0    0  0.30998254242E+03  0.15393132112E+03 -0.87108554391E+03  0.94246132052E+03  0.98281674938E+02 0.  0.
         23    2    4    4    0    0 -0.41046518164E+03 -0.26959499901E+03 -0.53182585481E+03  0.73001613814E+03  0.94454715447E+02 0.  0.
          1    1    3    3  502    0 -0.75242507760E+01  0.39025773522E+02  0.15361783940E+03  0.15867597780E+03  0.00000000000E+00 0. -1.
         -1    1    3    3    0  502  0.10800688999E+03  0.76637904368E+02  0.25259525824E+03  0.28520733012E+03  0.00000000000E+00 0.  1.
         13    1    5    5    0    0  0.17017894280E+02  0.43269174681E+02 -0.12094071165E+03  0.12957038990E+03  0.00000000000E+00 0.  1.
        -13    1    5    5    0    0  0.29296464814E+03  0.11066214644E+03 -0.75014483226E+03  0.81289093062E+03  0.00000000000E+00 0. -1.
          2    1    6    6  503    0 -0.70044063748E+02 -0.29143185519E+02 -0.41435395198E+02  0.86442976023E+02  0.00000000000E+00 0.  1.
         -2    1    6    6    0  503 -0.34042111789E+03 -0.24045181349E+03 -0.49039045962E+03  0.64357316212E+03  0.00000000000E+00 0. -1.
<mgrwt>
<rscale>  0 0.18669696E+04</rscale>
<asrwt>0</asrwt>
<pdfrwt beam="1">  1        2 0.23946608E+00 0.18669696E+04</pdfrwt>
<pdfrwt beam="2">  1       -2 0.86127882E-01 0.18669696E+04</pdfrwt>
<totfact> 0.12951046E+01</totfact>
</mgrwt>
</event>
<event>
12    3  0.5386393E-008  0.1699018E+04  0.7818608E-02  0.8761924E-01
          2   -1    0    0  501    0  0.00000000000E+00  0.00000000000E+00  0.14931700152E+04  0.14931700152E+04  0.00000000000E+00 0. -1.
         -2   -1    0    0    0  501 -0.00000000000E+00 -0.00000000000E+00 -0.48331131403E+03  0.48331131403E+03  0.00000000000E+00 0.  1.
         23    2    1    2    0    0  0.25604748327E+03 -0.47510017652E+03  0.46785802353E+02  0.54981058343E+03  0.93926965955E+02 0.  0.
        254    2    1    2    0    0 -0.25604748327E+03  0.47510017652E+03  0.96307289880E+03  0.14266707458E+04  0.90365896058E+03 0.  0.
         23    2    4    4    0    0  0.76504953055E+01  0.44966123197E+02 -0.16150924768E+03  0.19070103118E+03  0.90560277676E+02 0.  0.
         23    2    4    4    0    0 -0.26369797858E+03  0.43013405332E+03  0.11245821465E+04  0.12359697146E+04  0.91565296293E+02 0.  0.
          1    1    3    3  502    0  0.44387831453E+01 -0.68368957337E+02 -0.53017671393E+01  0.68717725937E+02  0.00000000000E+00 0. -1.
         -1    1    3    3    0  502  0.25160870013E+03 -0.40673121918E+03  0.52087569493E+02  0.48109285749E+03  0.00000000000E+00 0.  1.
         13    1    5    5    0    0  0.34744731409E+02  0.30930805473E+01 -0.19009866892E+02  0.39725791965E+02  0.00000000000E+00 0. -1.
        -13    1    5    5    0    0 -0.27094236104E+02  0.41873042650E+02 -0.14249938079E+03  0.15097523922E+03  0.00000000000E+00 0.  1.
          3    1    6    6  503    0 -0.78461370949E+02  0.90488627770E+02  0.19156305669E+03  0.22592207323E+03  0.00000000000E+00 0. -1.
         -3    1    6    6    0  503 -0.18523660763E+03  0.33964542555E+03  0.93301908980E+03  0.10100476414E+04  0.00000000000E+00 0.  1.
<mgrwt>
<rscale>  0 0.16990185E+04</rscale>
<asrwt>0</asrwt>
<pdfrwt beam="1">  1        2 0.22971846E+00 0.16990185E+04</pdfrwt>
<pdfrwt beam="2">  1       -2 0.74355587E-01 0.16990185E+04</pdfrwt>
<totfact> 0.19836500E+01</totfact>
</mgrwt>
</event>
<event>
12    3  0.4773567E-008  0.2890347E+04  0.7818608E-02  0.8275755E-01
         -1   -1    0    0    0  501 -0.00000000000E+00  0.00000000000E+00  0.20801132095E+04  0.20801132095E+04  0.00000000000E+00 0.  1.
          1   -1    0    0  501    0  0.00000000000E+00 -0.00000000000E+00 -0.10040445414E+04  0.10040445414E+04  0.00000000000E+00 0. -1.
         23    2    1    2    0    0  0.12920940165E+04  0.17859675286E+03  0.44661267000E+03  0.13817760522E+04  0.91860948497E+02 0.  0.
        254    2    1    2    0    0 -0.12920940165E+04 -0.17859675286E+03  0.62945599812E+03  0.17023816987E+04  0.89469818763E+03 0.  0.
         23    2    4    4    0    0 -0.29401251396E+03 -0.17521940802E+03  0.60365207373E+03  0.70003374370E+03  0.92229154230E+02 0.  0.
         23    2    4    4    0    0 -0.99808150254E+03 -0.33773448395E+01  0.25803924385E+02  0.10023479550E+04  0.88642474155E+02 0.  0.
          4    1    3    3  502    0  0.77876972066E+03  0.88545500850E+02  0.31120332407E+03  0.84330901362E+03  0.00000000000E+00 0. -1.
         -4    1    3    3    0  502  0.51332429583E+03  0.90051252013E+02  0.13540934593E+03  0.53846703859E+03  0.00000000000E+00 0.  1.
         13    1    5    5    0    0 -0.47260311891E+02 -0.43058221640E+02  0.19086983284E+03  0.20129292243E+03  0.00000000000E+00 0. -1.
        -13    1    5    5    0    0 -0.24675220206E+03 -0.13216118638E+03  0.41278224089E+03  0.49874082127E+03  0.00000000000E+00 0.  1.
          4    1    6    6  503    0 -0.19676409477E+03 -0.30892827278E+02  0.23490585185E+02  0.20055493851E+03  0.00000000000E+00 0. -1.
         -4    1    6    6    0  503 -0.80131740776E+03  0.27515482438E+02  0.23133392007E+01  0.80179301649E+03  0.00000000000E+00 0.  1.
<mgrwt>
<rscale>  0 0.28903469E+04</rscale>
<asrwt>0</asrwt>
<pdfrwt beam="1">  1        1 0.15446839E+00 0.28903469E+04</pdfrwt>
<pdfrwt beam="2">  1       -1 0.32001742E+00 0.28903469E+04</pdfrwt>
<totfact> 0.31571504E-01</totfact>
</mgrwt>
</event>
<event>
12    3  0.4773567E-008  0.1404586E+04  0.7818608E-02  0.8950506E-01
          2   -1    0    0  501    0  0.00000000000E+00  0.00000000000E+00  0.57296716041E+03  0.57296716041E+03  0.00000000000E+00 0.  1.
         -2   -1    0    0    0  501 -0.00000000000E+00 -0.00000000000E+00 -0.86080876765E+03  0.86080876765E+03  0.00000000000E+00 0. -1.
         23    2    1    2    0    0 -0.12505461157E+03 -0.34896961801E+03  0.78919065315E+02  0.38913935445E+03  0.88219998578E+02 0.  0.
        254    2    1    2    0    0  0.12505461157E+03  0.34896961801E+03 -0.36676067256E+03  0.10446365736E+04  0.90517055288E+03 0.  0.
         23    2    4    4    0    0 -0.18922875967E+03  0.44798406815E+03  0.59231797721E+02  0.49834406394E+03  0.91329904155E+02 0.  0.
         23    2    4    4    0    0  0.31428337124E+03 -0.99014450147E+02 -0.42599247028E+03  0.54629250966E+03  0.91586148556E+02 0.  0.
          3    1    3    3  502    0 -0.82880917768E+01 -0.54668469474E+01  0.18972870336E+02  0.21413750013E+02  0.00000000000E+00 0. -1.
         -3    1    3    3    0  502 -0.11676651979E+03 -0.34350277106E+03  0.59946194979E+02  0.36772560444E+03  0.00000000000E+00 0.  1.
         13    1    5    5    0    0 -0.36226730206E+02  0.17839528168E+03 -0.35452980079E+01  0.18207092476E+03  0.00000000000E+00 0. -1.
        -13    1    5    5    0    0 -0.15300202946E+03  0.26958878648E+03  0.62777095729E+02  0.31627313917E+03  0.00000000000E+00 0.  1.
          1    1    6    6  503    0  0.23707425341E+03 -0.10550992279E+03 -0.28517649228E+03  0.38556734455E+03  0.00000000000E+00 0. -1.
         -1    1    6    6    0  503  0.77209117827E+02  0.64954726391E+01 -0.14081597800E+03  0.16072516511E+03  0.00000000000E+00 0.  1.
<mgrwt>
<rscale>  0 0.14045856E+04</rscale>
<asrwt>0</asrwt>
<pdfrwt beam="1">  1        2 0.88148794E-01 0.14045856E+04</pdfrwt>
<pdfrwt beam="2">  1       -2 0.13243212E+00 0.14045856E+04</pdfrwt>
<totfact> 0.21125951E+01</totfact>
</mgrwt>
</event>
<event>
12    3  0.4773567E-008  0.1628940E+04  0.7818608E-02  0.8802964E-01
          1   -1    0    0  501    0  0.00000000000E+00  0.00000000000E+00  0.91233611082E+03  0.91233611082E+03  0.00000000000E+00 0. -1.
         -1   -1    0    0    0  501 -0.00000000000E+00 -0.00000000000E+00 -0.72710176053E+03  0.72710176053E+03  0.00000000000E+00 0.  1.
         23    2    1    2    0    0  0.37305369349E+03  0.35458833618E+03 -0.14906474921E+03  0.54376638442E+03  0.92518295452E+02 0.  0.
        254    2    1    2    0    0 -0.37305369349E+03 -0.35458833618E+03  0.33429909949E+03  0.10956714869E+04  0.90765531617E+03 0.  0.
         23    2    4    4    0    0 -0.13601838783E+03 -0.57833255243E+03 -0.24789609481E+02  0.60241215958E+03  0.96521201021E+02 0.  0.
         23    2    4    4    0    0 -0.23703530566E+03  0.22374421626E+03  0.35908870897E+03  0.49325932735E+03  0.90071375395E+02 0.  0.
          4    1    3    3  502    0  0.48890255518E+01  0.32053819719E+02 -0.11610398342E+01  0.32445306947E+02  0.00000000000E+00 0. -1.
         -4    1    3    3    0  502  0.36816466794E+03  0.32253451646E+03 -0.14790370937E+03  0.51132107748E+03  0.00000000000E+00 0.  1.
         13    1    5    5    0    0 -0.81958198766E+02 -0.19689754215E+03  0.21678503559E+02  0.21437291333E+03  0.00000000000E+00 0.  1.
        -13    1    5    5    0    0 -0.54060189064E+02 -0.38143501028E+03 -0.46468113040E+02  0.38803924626E+03  0.00000000000E+00 0. -1.
          2    1    6    6  503    0 -0.14561470865E+03  0.87226322293E+02  0.22081626513E+03  0.27851732015E+03  0.00000000000E+00 0. -1.
         -2    1    6    6    0  503 -0.91420597009E+02  0.13651789396E+03  0.13827244384E+03  0.21474200720E+03  0.00000000000E+00 0.  1.
<mgrwt>
<rscale>  0 0.16289398E+04</rscale>
<asrwt>0</asrwt>
<pdfrwt beam="1">  1        1 0.14035940E+00 0.16289398E+04</pdfrwt>
<pdfrwt beam="2">  1       -1 0.11186181E+00 0.16289398E+04</pdfrwt>
<totfact> 0.12483784E+01</totfact>
</mgrwt>
</event>
<event>
12    3  0.4773567E-008  0.1764468E+04  0.7818608E-02  0.8725427E-01
          2   -1    0    0  501    0  0.00000000000E+00  0.00000000000E+00  0.71107415955E+03  0.71107415955E+03  0.00000000000E+00 0. -1.
         -2   -1    0    0    0  501 -0.00000000000E+00 -0.00000000000E+00 -0.10945928088E+04  0.10945928088E+04  0.00000000000E+00 0.  1.
         23    2    1    2    0    0  0.28360318362E+03 -0.58694502270E+03 -0.27663840101E+03  0.71374112688E+03  0.89232089879E+02 0.  0.
        254    2    1    2    0    0 -0.28360318362E+03  0.58694502270E+03 -0.10688024830E+03  0.10919258415E+04  0.86945007359E+03 0.  0.
         23    2    4    4    0    0 -0.16564876655E+03  0.18451766929E+02 -0.39423398849E+03  0.43755406879E+03  0.90846815457E+02 0.  0.
         23    2    4    4    0    0 -0.11795441707E+03  0.56849325577E+03  0.28735374019E+03  0.65437177272E+03  0.92371091641E+02 0.  0.
          1    1    3    3  502    0  0.94368721636E+02 -0.27241760421E+03 -0.90455215147E+02  0.30215716549E+03  0.00000000000E+00 0. -1.
         -1    1    3    3    0  502  0.18923446198E+03 -0.31452741848E+03 -0.18618318586E+03  0.41158396139E+03  0.00000000000E+00 0.  1.
         13    1    5    5    0    0 -0.15275279199E+03  0.82531035485E+01 -0.25509799378E+03  0.29745002203E+03  0.00000000000E+00 0.  1.
        -13    1    5    5    0    0 -0.12895974556E+02  0.10198663381E+02 -0.13913599471E+03  0.14010404676E+03  0.00000000000E+00 0. -1.
          4    1    6    6  503    0 -0.80127667643E+02  0.17541581613E+03  0.87148346155E+02  0.21162699712E+03  0.00000000000E+00 0. -1.
         -4    1    6    6    0  503 -0.37826749430E+02  0.39307743964E+03  0.20020539404E+03  0.44274477560E+03  0.00000000000E+00 0.  1.
<mgrwt>
<rscale>  0 0.17644678E+04</rscale>
<asrwt>0</asrwt>
<pdfrwt beam="1">  1        2 0.10939602E+00 0.17644678E+04</pdfrwt>
<pdfrwt beam="2">  1       -2 0.16839889E+00 0.17644678E+04</pdfrwt>
<totfact> 0.83148009E+00</totfact>
</mgrwt>
</event>
<event>
12    3  0.5708556E-008  0.2413255E+04  0.7818608E-02  0.8434558E-01
          2   -1    0    0  501    0  0.00000000000E+00  0.00000000000E+00  0.24290511126E+04  0.24290511126E+04  0.00000000000E+00 0. -1.
         -2   -1    0    0    0  501 -0.00000000000E+00 -0.00000000000E+00 -0.59939041948E+03  0.59939041948E+03  0.00000000000E+00 0.  1.
         23    2    1    2    0    0 -0.22737126999E+03 -0.40833942788E+03 -0.37209272842E+03  0.60458187828E+03  0.92884154862E+02 0.  0.
        254    2    1    2    0    0  0.22737126999E+03  0.40833942788E+03  0.22017534216E+04  0.24238596538E+04  0.89941020076E+03 0.  0.
         23    2    4    4    0    0  0.11341590746E+03  0.55984809753E+03  0.70498859204E+03  0.91199577480E+03  0.91838542948E+02 0.  0.
         23    2    4    4    0    0  0.11395536254E+03 -0.15150866965E+03  0.14967648295E+04  0.15118638790E+04  0.97399856976E+02 0.  0.
          4    1    3    3  502    0 -0.23015216184E+02 -0.29932974339E+02 -0.30433875263E+01  0.37880672333E+02  0.00000000000E+00 0. -1.
         -4    1    3    3    0  502 -0.20435605381E+03 -0.37840645354E+03 -0.36904934090E+03  0.56670120595E+03  0.00000000000E+00 0.  1.
         13    1    5    5    0    0  0.12086397111E+03  0.51151252235E+03  0.61036103912E+03  0.80547734798E+03  0.00000000000E+00 0.  1.
        -13    1    5    5    0    0 -0.74480636550E+01  0.48335575183E+02  0.94627552922E+02  0.10651842682E+03  0.00000000000E+00 0. -1.
          1    1    6    6  503    0  0.31928835387E+02 -0.21257566966E+02  0.10828951670E+03  0.11488234899E+03  0.00000000000E+00 0. -1.
         -1    1    6    6    0  503  0.82026527151E+02 -0.13025110269E+03  0.13884753128E+04  0.13969815300E+04  0.00000000000E+00 0.  1.
<mgrwt>
<rscale>  0 0.24132550E+04</rscale>
<asrwt>0</asrwt>
<pdfrwt beam="1">  1        2 0.37370017E+00 0.24132550E+04</pdfrwt>
<pdfrwt beam="2">  1       -2 0.92213912E-01 0.24132550E+04</pdfrwt>
<totfact> 0.34323731E+00</totfact>
</mgrwt>
</event>
<event>
12    3  0.4773567E-008  0.1801342E+04  0.7818608E-02  0.8705586E-01
          2   -1    0    0  501    0  0.00000000000E+00  0.00000000000E+00  0.16248299848E+04  0.16248299848E+04  0.00000000000E+00 0. -1.
         -2   -1    0    0    0  501 -0.00000000000E+00 -0.00000000000E+00 -0.49925732676E+03  0.49925732676E+03  0.00000000000E+00 0.  1.
         23    2    1    2    0    0  0.14834540437E+03  0.70170376552E+02  0.11949822365E+04  0.12096138387E+04  0.90845210947E+02 0.  0.
        254    2    1    2    0    0 -0.14834540437E+03 -0.70170376552E+02 -0.69409578516E+02  0.91447347285E+03  0.89694693389E+03 0.  0.
         23    2    4    4    0    0 -0.44872290435E+03 -0.27743913826E+03 -0.52676624952E+02  0.53838468825E+03  0.93586993724E+02 0.  0.
         23    2    4    4    0    0  0.30037749998E+03  0.20726876171E+03 -0.16732953565E+02  0.37608878460E+03  0.89307335056E+02 0.  0.
          1    1    3    3  502    0  0.46119926046E+02  0.82968285024E+01  0.13467422720E+03  0.14259394241E+03  0.00000000000E+00 0. -1.
         -1    1    3    3    0  502  0.10222547832E+03  0.61873548050E+02  0.10603080093E+04  0.10670198963E+04  0.00000000000E+00 0.  1.
         13    1    5    5    0    0 -0.21314780786E+03 -0.16927714817E+03  0.74213537123E+01  0.27228995094E+03  0.00000000000E+00 0.  1.
        -13    1    5    5    0    0 -0.23557509648E+03 -0.10816199009E+03 -0.60097978664E+02  0.26609473731E+03  0.00000000000E+00 0. -1.
          1    1    6    6  503    0  0.12142974082E+03  0.84078306007E+02 -0.50786697573E+02  0.15618460919E+03  0.00000000000E+00 0. -1.
         -1    1    6    6    0  503  0.17894775916E+03  0.12319045570E+03  0.34053744008E+02  0.21990417542E+03  0.00000000000E+00 0.  1.
<mgrwt>
<rscale>  0 0.18013420E+04</rscale>
<asrwt>0</asrwt>
<pdfrwt beam="1">  1        2 0.24997384E+00 0.18013420E+04</pdfrwt>
<pdfrwt beam="2">  1       -2 0.76808820E-01 0.18013420E+04</pdfrwt>
<totfact> 0.15438580E+01</totfact>
</mgrwt>
</event>
<event>
12    3  0.4773567E-008  0.3300949E+04  0.7818608E-02  0.8162654E-01
          2   -1    0    0  501    0  0.00000000000E+00  0.00000000000E+00  0.42209821263E+04  0.42209821263E+04  0.00000000000E+00 0. -1.
         -2   -1    0    0    0  501 -0.00000000000E+00 -0.00000000000E+00 -0.64536298973E+03  0.64536298973E+03  0.00000000000E+00 0.  1.
         23    2    1    2    0    0  0.81420863443E+02 -0.12257810439E+04  0.29965548008E+04  0.32398849589E+04  0.91352879404E+02 0.  0.
        254    2    1    2    0    0 -0.81420863443E+02  0.12257810439E+04  0.57906433575E+03  0.16264601570E+04  0.89492380289E+03 0.  0.
         23    2    4    4    0    0 -0.27414317395E+03  0.11664362566E+04  0.25153249106E+03  0.12281765288E+04  0.97061688042E+02 0.  0.
         23    2    4    4    0    0  0.19272231051E+03  0.59344787292E+02  0.32753184469E+03  0.39828362827E+03  0.10338784509E+03 0.  0.
          4    1    3    3  502    0  0.60882940683E+02 -0.10504179920E+04  0.26417455216E+04  0.28435724171E+04  0.00000000000E+00 0. -1.
         -4    1    3    3    0  502  0.20537922760E+02 -0.17536305183E+03  0.35480927918E+03  0.39631254183E+03  0.00000000000E+00 0.  1.
         13    1    5    5    0    0 -0.99280771142E+02  0.45044850198E+03  0.14482068155E+03  0.48345998207E+03  0.00000000000E+00 0.  1.
        -13    1    5    5    0    0 -0.17486240281E+03  0.71598775460E+03  0.10671180951E+03  0.74471654671E+03  0.00000000000E+00 0. -1.
          4    1    6    6  503    0  0.53833116084E+02  0.50504824770E+02  0.18449798013E+03  0.19871649752E+03  0.00000000000E+00 0. -1.
         -4    1    6    6    0  503  0.13888919442E+03  0.88399625219E+01  0.14303386456E+03  0.19956713075E+03  0.00000000000E+00 0.  1.
<mgrwt>
<rscale>  0 0.33009487E+04</rscale>
<asrwt>0</asrwt>
<pdfrwt beam="1">  1        2 0.64938185E+00 0.33009487E+04</pdfrwt>
<pdfrwt beam="2">  1       -2 0.99286616E-01 0.33009487E+04</pdfrwt>
<totfact> 0.15601904E-01</totfact>
</mgrwt>
</event>
<event>
12    3  0.4773567E-008  0.2812548E+04  0.7818608E-02  0.8299383E-01
          1   -1    0    0  501    0  0.00000000000E+00  0.00000000000E+00  0.16293800752E+04  0.16293800752E+04  0.00000000000E+00 0. -1.
         -1   -1    0    0    0  501 -0.00000000000E+00 -0.00000000000E+00 -0.12137174037E+04  0.12137174037E+04  0.00000000000E+00 0.  1.
         23    2    1    2    0    0 -0.95227228283E+03  0.69122268186E+03  0.67000132050E+03  0.13571681105E+04  0.91609029213E+02 0.  0.
        254    2    1    2    0    0  0.95227228283E+03 -0.69122268186E+03 -0.25433864893E+03  0.14859293684E+04  0.87102620102E+03 0.  0.
         23    2    4    4    0    0  0.12379926925E+03  0.13188350063E+03  0.14279503898E+03  0.24902436445E+03  0.94356738643E+02 0.  0.
         23    2    4    4    0    0  0.82847301358E+03 -0.82310618248E+03 -0.39713368791E+03  0.12369050039E+04  0.91364658069E+02 0.  0.
          1    1    3    3  502    0 -0.93416057121E+03  0.65881151878E+03  0.64744908400E+03  0.13137271050E+04  0.00000000000E+00 0. -1.
         -1    1    3    3    0  502 -0.18111711621E+02  0.32411163075E+02  0.22552236503E+02  0.43441005525E+02  0.00000000000E+00 0.  1.
         13    1    5    5    0    0  0.17686740166E+02 -0.60892967963E+01 -0.64043778999E+01  0.19771605131E+02  0.00000000000E+00 0.  1.
        -13    1    5    5    0    0  0.10611252909E+03  0.13797279743E+03  0.14919941688E+03  0.22925275932E+03  0.00000000000E+00 0. -1.
          2    1    6    6  503    0  0.59335631577E+03 -0.60115816922E+03 -0.24437645621E+03  0.87930808835E+03  0.00000000000E+00 0. -1.
         -2    1    6    6    0  503  0.23511669781E+03 -0.22194801327E+03 -0.15275723170E+03  0.35759691556E+03  0.00000000000E+00 0.  1.
<mgrwt>
<rscale>  0 0.28125483E+04</rscale>
<asrwt>0</asrwt>
<pdfrwt beam="1">  1        1 0.25067386E+00 0.28125483E+04</pdfrwt>
<pdfrwt beam="2">  1       -1 0.18672575E+00 0.28125483E+04</pdfrwt>
<totfact> 0.85848168E-01</totfact>
</mgrwt>
</event>
<event>
12    3  0.4773567E-008  0.1434439E+04  0.7818608E-02  0.8929260E-01
          1   -1    0    0  501    0  0.00000000000E+00  0.00000000000E+00  0.16342935692E+04  0.16342935692E+04  0.00000000000E+00 0. -1.
         -1   -1    0    0    0  501 -0.00000000000E+00 -0.00000000000E+00 -0.31475616450E+03  0.31475616450E+03  0.00000000000E+00 0.  1.
         23    2    1    2    0    0 -0.40507853516E+03  0.10601155762E+03  0.31686572448E+03  0.53420363050E+03  0.98196545198E+02 0.  0.
        254    2    1    2    0    0  0.40507853516E+03 -0.10601155762E+03  0.10026716802E+04  0.14148461032E+04  0.90615226504E+03 0.  0.
         23    2    4    4    0    0  0.99659030900E+02 -0.18922571372E+03 -0.10834936955E+03  0.25620809023E+03  0.90358765174E+02 0.  0.
         23    2    4    4    0    0  0.30541950426E+03  0.83214156097E+02  0.11110210497E+04  0.11586380130E+04  0.88705144970E+02 0.  0.
          3    1    3    3  502    0 -0.10256042601E+03  0.41379768480E+02  0.13808101012E+03  0.17691040551E+03  0.00000000000E+00 0. -1.
         -3    1    3    3    0  502 -0.30251810915E+03  0.64631789140E+02  0.17878471436E+03  0.35729322499E+03  0.00000000000E+00 0.  1.
         13    1    5    5    0    0  0.32472476252E+02 -0.96092748328E+02 -0.97775761195E+02  0.14088426978E+03  0.00000000000E+00 0. -1.
        -13    1    5    5    0    0  0.67186554648E+02 -0.93132965390E+02 -0.10573608352E+02  0.11532382044E+03  0.00000000000E+00 0.  1.
          2    1    6    6  503    0  0.21600306817E+03  0.22218489848E+02  0.65965018008E+03  0.69447055145E+03  0.00000000000E+00 0. -1.
         -2    1    6    6    0  503  0.89416436086E+02  0.60995666249E+02  0.45137086966E+03  0.46416746150E+03  0.00000000000E+00 0.  1.
<mgrwt>
<rscale>  0 0.14344392E+04</rscale>
<asrwt>0</asrwt>
<pdfrwt beam="1">  1        1 0.25142978E+00 0.14344392E+04</pdfrwt>
<pdfrwt beam="2">  1       -1 0.48424026E-01 0.14344392E+04</pdfrwt>
<totfact> 0.21927149E+01</totfact>
</mgrwt>
</event>
<event>
12    3  0.4773567E-008  0.1569798E+04  0.7818608E-02  0.8839320E-01
         -2   -1    0    0    0  501 -0.00000000000E+00  0.00000000000E+00  0.25398119842E+03  0.25398119842E+03  0.00000000000E+00 0.  1.
          2   -1    0    0  501    0  0.00000000000E+00 -0.00000000000E+00 -0.24256393975E+04  0.24256393975E+04  0.00000000000E+00 0. -1.
         23    2    1    2    0    0  0.87765008295E+02 -0.12463442976E+03 -0.15759325387E+04  0.15858772550E+04  0.90591742304E+02 0.  0.
        254    2    1    2    0    0 -0.87765008295E+02  0.12463442976E+03 -0.59572566036E+03  0.10937433409E+04  0.90451589013E+03 0.  0.
         23    2    4    4    0    0 -0.17156148187E+03 -0.61135078426E+02  0.18874434845E+03  0.27797868442E+03  0.92069973659E+02 0.  0.
         23    2    4    4    0    0  0.83796473571E+02  0.18576950818E+03 -0.78447000881E+03  0.81576465643E+03  0.92447935681E+02 0.  0.
          1    1    3    3  502    0  0.77972471849E+02 -0.13664875721E+03 -0.15087060968E+04  0.15168871664E+04  0.00000000000E+00 0. -1.
         -1    1    3    3    0  502  0.97925364457E+01  0.12014327451E+02 -0.67226441914E+02  0.68990088611E+02  0.00000000000E+00 0.  1.
         13    1    5    5    0    0 -0.17959280812E+03 -0.57344810939E+02  0.19145340279E+03  0.26869389555E+03  0.00000000000E+00 0.  1.
        -13    1    5    5    0    0  0.80313262515E+01 -0.37902674871E+01 -0.27090543389E+01  0.92847888718E+01  0.00000000000E+00 0. -1.
          2    1    6    6  503    0 -0.18312513102E+02  0.45484454126E+02 -0.13964167423E+03  0.14799993543E+03  0.00000000000E+00 0. -1.
         -2    1    6    6    0  503  0.10210898667E+03  0.14028505406E+03 -0.64482833457E+03  0.66776472100E+03  0.00000000000E+00 0.  1.
<mgrwt>
<rscale>  0 0.15697985E+04</rscale>
<asrwt>0</asrwt>
<pdfrwt beam="1">  1        2 0.37317529E+00 0.15697985E+04</pdfrwt>
<pdfrwt beam="2">  1       -2 0.39074031E-01 0.15697985E+04</pdfrwt>
<totfact> 0.22912680E+01</totfact>
</mgrwt>
</event>
<event>
12    3  0.4773567E-008  0.1435459E+04  0.7818608E-02  0.8928544E-01
         -1   -1    0    0    0  501 -0.00000000000E+00  0.00000000000E+00  0.75659801083E+03  0.75659801083E+03  0.00000000000E+00 0.  1.
          1   -1    0    0  501    0  0.00000000000E+00 -0.00000000000E+00 -0.68085748890E+03  0.68085748890E+03  0.00000000000E+00 0. -1.
         23    2    1    2    0    0 -0.14124004879E+03 -0.17645843881E+03  0.38740674771E+03  0.45439328935E+03  0.72821296563E+02 0.  0.
        254    2    1    2    0    0  0.14124004879E+03  0.17645843881E+03 -0.31166622577E+03  0.98306221038E+03  0.90453808167E+03 0.  0.
         23    2    4    4    0    0  0.19849502143E+02 -0.31273947850E+02  0.30170678059E+03  0.31781323400E+03  0.92769648620E+02 0.  0.
         23    2    4    4    0    0  0.12139054664E+03  0.20773238666E+03 -0.61337300636E+03  0.66524897638E+03  0.91876799933E+02 0.  0.
          4    1    3    3  502    0  0.45663613602E+01 -0.31613208309E+02  0.52243408525E+02  0.61234143498E+02  0.00000000000E+00 0. -1.
         -4    1    3    3    0  502 -0.14580641015E+03 -0.14484523050E+03  0.33516333918E+03  0.39315914585E+03  0.00000000000E+00 0.  1.
         13    1    5    5    0    0 -0.26399793174E+01  0.31976052960E+02  0.11558650410E+03  0.11995698139E+03  0.00000000000E+00 0.  1.
        -13    1    5    5    0    0  0.22489481460E+02 -0.63250000810E+02  0.18612027648E+03  0.19785625261E+03  0.00000000000E+00 0. -1.
          3    1    6    6  503    0  0.88383646782E+02  0.17935810112E+03 -0.39665156144E+03  0.44419979587E+03  0.00000000000E+00 0. -1.
         -3    1    6    6    0  503  0.33006899861E+02  0.28374285538E+02 -0.21672144492E+03  0.22104918051E+03  0.00000000000E+00 0.  1.
<mgrwt>
<rscale>  0 0.14354587E+04</rscale>
<asrwt>0</asrwt>
<pdfrwt beam="1">  1        1 0.10474731E+00 0.14354587E+04</pdfrwt>
<pdfrwt beam="2">  1       -1 0.11639969E+00 0.14354587E+04</pdfrwt>
<totfact> 0.18426341E+01</totfact>
</mgrwt>
</event>
<event>
12    3  0.4773567E-008  0.2155471E+04  0.7818608E-02  0.8537194E-01
          1   -1    0    0  501    0  0.00000000000E+00  0.00000000000E+00  0.15170632458E+04  0.15170632458E+04  0.00000000000E+00 0. -1.
         -1   -1    0    0    0  501 -0.00000000000E+00 -0.00000000000E+00 -0.76563332634E+03  0.76563332634E+03  0.00000000000E+00 0.  1.
         23    2    1    2    0    0 -0.81652068292E+03  0.18863789202E+03  0.57200735890E+03  0.10191441055E+04  0.95770607154E+02 0.  0.
        254    2    1    2    0    0  0.81652068292E+03 -0.18863789202E+03  0.17942256058E+03  0.12635524667E+04  0.92848376443E+03 0.  0.
         23    2    4    4    0    0  0.84497182240E+03 -0.15998089786E+03 -0.18631728174E+03  0.88470160355E+03  0.91714391085E+02 0.  0.
         23    2    4    4    0    0 -0.28451139473E+02 -0.28656994164E+02  0.36573984233E+03  0.37885086311E+03  0.90175681641E+02 0.  0.
          4    1    3    3  502    0 -0.14868954175E+03  0.55748239606E+02  0.72001979344E+02  0.17435805423E+03  0.00000000000E+00 0.  1.
         -4    1    3    3    0  502 -0.66783114117E+03  0.13288965241E+03  0.50000537956E+03  0.84478605127E+03  0.00000000000E+00 0. -1.
         13    1    5    5    0    0  0.22091427276E+03 -0.18808736152E+01 -0.40085216916E+02  0.22452945956E+03  0.00000000000E+00 0. -1.
        -13    1    5    5    0    0  0.62405754963E+03 -0.15810002424E+03 -0.14623206482E+03  0.66017214399E+03  0.00000000000E+00 0.  1.
          1    1    6    6  503    0 -0.30536459281E+02 -0.36620394219E+02  0.81000877302E+02  0.93992929212E+02  0.00000000000E+00 0. -1.
         -1    1    6    6    0  503  0.20853198075E+01  0.79634000555E+01  0.28473896502E+03  0.28485793389E+03  0.00000000000E+00 0.  1.
<mgrwt>
<rscale>  0 0.21554713E+04</rscale>
<asrwt>0</asrwt>
<pdfrwt beam="1">  1        1 0.23339435E+00 0.21554713E+04</pdfrwt>
<pdfrwt beam="2">  1       -1 0.11778974E+00 0.21554713E+04</pdfrwt>
<totfact> 0.37745193E+00</totfact>
</mgrwt>
</event>
<event>
12    3  0.4773567E-008  0.1800105E+04  0.7818608E-02  0.8706243E-01
         -2   -1    0    0    0  501 -0.00000000000E+00  0.00000000000E+00  0.14484265481E+04  0.14484265481E+04  0.00000000000E+00 0.  1.
          2   -1    0    0  501    0  0.00000000000E+00 -0.00000000000E+00 -0.55929306829E+03  0.55929306829E+03  0.00000000000E+00 0. -1.
         23    2    1    2    0    0  0.27638911583E+03  0.47087883775E+03  0.77295238179E+03  0.95083271925E+03  0.92247776639E+02 0.  0.
        254    2    1    2    0    0 -0.27638911583E+03 -0.47087883775E+03  0.11618109803E+03  0.10568868971E+04  0.89743748675E+03 0.  0.
         23    2    4    4    0    0 -0.15365445120E+03 -0.15816020870E+03 -0.38109535899E+03  0.45043266614E+03  0.95034583684E+02 0.  0.
         23    2    4    4    0    0 -0.12273466462E+03 -0.31271862905E+03  0.49727645702E+03  0.60645423099E+03  0.87442099311E+02 0.  0.
          2    1    3    3  502    0  0.69350906744E+02  0.75763127400E+02  0.19876103835E+03  0.22373097708E+03  0.00000000000E+00 0. -1.
         -2    1    3    3    0  502  0.20703820908E+03  0.39511571035E+03  0.57419134344E+03  0.72710174217E+03  0.00000000000E+00 0.  1.
         13    1    5    5    0    0 -0.50451591918E+02 -0.76884506220E+02 -0.79843112663E+02  0.12178469963E+03  0.00000000000E+00 0.  1.
        -13    1    5    5    0    0 -0.10320285928E+03 -0.81275702477E+02 -0.30125224633E+03  0.32864796652E+03  0.00000000000E+00 0. -1.
          4    1    6    6  503    0 -0.12131675067E+03 -0.19854112649E+03  0.34481576418E+03  0.41597385029E+03  0.00000000000E+00 0. -1.
         -4    1    6    6    0  503 -0.14179139494E+01 -0.11417750256E+03  0.15246069284E+03  0.19048038070E+03  0.00000000000E+00 0.  1.
<mgrwt>
<rscale>  0 0.18001055E+04</rscale>
<asrwt>0</asrwt>
<pdfrwt beam="1">  1        2 0.86045088E-01 0.18001055E+04</pdfrwt>
<pdfrwt beam="2">  1       -2 0.22283485E+00 0.18001055E+04</pdfrwt>
<totfact> 0.48285405E+00</totfact>
</mgrwt>
</event>
<event>
12    3  0.4773567E-008  0.1322039E+04  0.7818608E-02  0.9012268E-01
          2   -1    0    0  501    0  0.00000000000E+00  0.00000000000E+00  0.81016939310E+03  0.81016939310E+03  0.00000000000E+00 0. -1.
         -2   -1    0    0    0  501 -0.00000000000E+00 -0.00000000000E+00 -0.53932782801E+03  0.53932782801E+03  0.00000000000E+00 0.  1.
         23    2    1    2    0    0 -0.24720965312E+03 -0.17362212019E+03 -0.99036943297E+02  0.33109736971E+03  0.92519721566E+02 0.  0.
        254    2    1    2    0    0  0.24720965312E+03  0.17362212019E+03  0.36987850839E+03  0.10183998514E+04  0.89948368142E+03 0.  0.
         23    2    4    4    0    0 -0.17896042408E+03  0.40645055480E+03  0.14755566275E+03  0.47689446670E+03  0.91797450291E+02 0.  0.
         23    2    4    4    0    0  0.42617007719E+03 -0.23282843461E+03  0.22232284564E+03  0.54150538470E+03  0.89278324948E+02 0.  0.
          3    1    3    3  502    0 -0.14386240132E+03 -0.82457315530E+02 -0.81557958934E+01  0.16601842188E+03  0.00000000000E+00 0. -1.
         -3    1    3    3    0  502 -0.10334725180E+03 -0.91164804656E+02 -0.90881147404E+02  0.16507894783E+03  0.00000000000E+00 0.  1.
         13    1    5    5    0    0 -0.18056570318E+03  0.33963237943E+03  0.14123905029E+03  0.40975919227E+03  0.00000000000E+00 0.  1.
        -13    1    5    5    0    0  0.16052791007E+01  0.66818175362E+02  0.63166124604E+01  0.67135274429E+02  0.00000000000E+00 0. -1.
          4    1    6    6  503    0  0.24644517036E+03 -0.10233286830E+03  0.83587589282E+02  0.27963212085E+03  0.00000000000E+00 0.  1.
         -4    1    6    6    0  503  0.17972490684E+03 -0.13049556631E+03  0.13873525636E+03  0.26187326385E+03  0.00000000000E+00 0. -1.
<mgrwt>
<rscale>  0 0.13220392E+04</rscale>
<asrwt>0</asrwt>
<pdfrwt beam="1">  1        2 0.12464144E+00 0.13220392E+04</pdfrwt>
<pdfrwt beam="2">  1       -2 0.82973512E-01 0.13220392E+04</pdfrwt>
<totfact> 0.42208477E+01</totfact>
</mgrwt>
</event>
<event>
12    3  0.4773567E-008  0.1346793E+04  0.7818608E-02  0.8993260E-01
          2   -1    0    0  501    0  0.00000000000E+00  0.00000000000E+00  0.17259469058E+04  0.17259469058E+04  0.00000000000E+00 0. -1.
         -2   -1    0    0    0  501 -0.00000000000E+00 -0.00000000000E+00 -0.26273265503E+03  0.26273265503E+03  0.00000000000E+00 0.  1.
         23    2    1    2    0    0  0.26354264137E+03 -0.39481047899E+02  0.37266135375E+02  0.28360923504E+03  0.89621182704E+02 0.  0.
        254    2    1    2    0    0 -0.26354264137E+03  0.39481047899E+02  0.14259481153E+04  0.17050703257E+04  0.89605988143E+03 0.  0.
         23    2    4    4    0    0  0.93822928631E+00  0.18288558465E+03 -0.38024748501E+02  0.20766778622E+03  0.90730428115E+02 0.  0.
         23    2    4    4    0    0 -0.26448087066E+03 -0.14340453675E+03  0.14639728638E+04  0.14974025395E+04  0.92102264867E+02 0.  0.
          3    1    3    3  502    0  0.67071773401E+02 -0.21220581086E+02 -0.28090021404E+02  0.75749489446E+02  0.00000000000E+00 0. -1.
         -3    1    3    3    0  502  0.19647086797E+03 -0.18260466813E+02  0.65356156779E+02  0.20785974559E+03  0.00000000000E+00 0.  1.
         13    1    5    5    0    0 -0.66963276108E+01  0.45443337619E+01 -0.27707642950E+02  0.28865294917E+02  0.00000000000E+00 0.  1.
        -13    1    5    5    0    0  0.76345568971E+01  0.17834125089E+03 -0.10317105551E+02  0.17880249130E+03  0.00000000000E+00 0. -1.
          3    1    6    6  503    0 -0.22538995213E+03 -0.12309777270E+03  0.10438866496E+04  0.10750130368E+04  0.00000000000E+00 0. -1.
         -3    1    6    6    0  503 -0.39090918527E+02 -0.20306764050E+02  0.42008621427E+03  0.42238950270E+03  0.00000000000E+00 0.  1.
<mgrwt>
<rscale>  0 0.13467927E+04</rscale>
<asrwt>0</asrwt>
<pdfrwt beam="1">  1        2 0.26553029E+00 0.13467927E+04</pdfrwt>
<pdfrwt beam="2">  1       -2 0.40420409E-01 0.13467927E+04</pdfrwt>
<totfact> 0.53695225E+01</totfact>
</mgrwt>
</event>
<event>
12    3  0.4773567E-008  0.1720283E+04  0.7818608E-02  0.8749880E-01
          1   -1    0    0  501    0  0.00000000000E+00  0.00000000000E+00  0.10291816012E+04  0.10291816012E+04  0.00000000000E+00 0. -1.
         -1   -1    0    0    0  501 -0.00000000000E+00 -0.00000000000E+00 -0.71886573499E+03  0.71886573499E+03  0.00000000000E+00 0.  1.
         23    2    1    2    0    0 -0.25551508093E+03  0.36978661174E+03  0.54892633077E+03  0.71518434015E+03  0.90213241737E+02 0.  0.
        254    2    1    2    0    0  0.25551508093E+03 -0.36978661174E+03 -0.23861046453E+03  0.10328629961E+04  0.89879971075E+03 0.  0.
         23    2    4    4    0    0  0.55342321249E+03 -0.88459207945E+02 -0.40013774702E+02  0.56930098104E+03  0.91652720948E+02 0.  0.
         23    2    4    4    0    0 -0.29790813156E+03 -0.28132740379E+03 -0.19859668983E+03  0.46356201502E+03  0.86917970424E+02 0.  0.
          1    1    3    3  502    0 -0.23798517146E+03  0.36944152546E+03  0.51515398443E+03  0.67713190018E+03  0.00000000000E+00 0. -1.
         -1    1    3    3    0  502 -0.17529909469E+02  0.34508627769E+00  0.33772346334E+02  0.38052439967E+02  0.00000000000E+00 0.  1.
         13    1    5    5    0    0  0.36549131082E+03 -0.58949097995E+02  0.17304154168E+02  0.37061884489E+03  0.00000000000E+00 0.  1.
        -13    1    5    5    0    0  0.18793190167E+03 -0.29510109950E+02 -0.57317928870E+02  0.19868213615E+03  0.00000000000E+00 0. -1.
          2    1    6    6  503    0 -0.13451185567E+03 -0.12352676363E+03 -0.41230296881E+02  0.18722242929E+03  0.00000000000E+00 0. -1.
         -2    1    6    6    0  503 -0.16339627589E+03 -0.15780064017E+03 -0.15736639295E+03  0.27633958573E+03  0.00000000000E+00 0.  1.
<mgrwt>
<rscale>  0 0.17202830E+04</rscale>
<asrwt>0</asrwt>
<pdfrwt beam="1">  1        1 0.15833563E+00 0.17202830E+04</pdfrwt>
<pdfrwt beam="2">  1       -1 0.11059473E+00 0.17202830E+04</pdfrwt>
<totfact> 0.10281049E+01</totfact>
</mgrwt>
</event>
<event>
12    3  0.4773567E-008  0.1781261E+04  0.7818608E-02  0.8716328E-01
         -1   -1    0    0    0  501 -0.00000000000E+00  0.00000000000E+00  0.42999921833E+03  0.42999921833E+03  0.00000000000E+00 0.  1.
          1   -1    0    0  501    0  0.00000000000E+00 -0.00000000000E+00 -0.18447080630E+04  0.18447080630E+04  0.00000000000E+00 0. -1.
         23    2    1    2    0    0  0.64250727710E+03 -0.17681901825E+03 -0.48947661163E+03  0.83117082208E+03  0.84717269788E+02 0.  0.
        254    2    1    2    0    0 -0.64250727710E+03  0.17681901825E+03 -0.92523223302E+03  0.14435364592E+04  0.88524700381E+03 0.  0.
         23    2    4    4    0    0  0.62454782798E+02  0.18460503674E+03  0.65574314774E+02  0.22411601559E+03  0.89153677449E+02 0.  0.
         23    2    4    4    0    0 -0.70496205990E+03 -0.77860184926E+01 -0.99080654779E+03  0.12194204436E+04  0.90865148540E+02 0.  0.
          3    1    3    3  502    0  0.76353930426E+02 -0.35447380471E+02 -0.94341430150E+02  0.12643870023E+03  0.00000000000E+00 0. -1.
         -3    1    3    3    0  502  0.56615334667E+03 -0.14137163778E+03 -0.39513518148E+03  0.70473212185E+03  0.00000000000E+00 0.  1.
         13    1    5    5    0    0  0.83517014063E+02  0.14369784769E+03  0.38064980544E+02  0.17050837461E+03  0.00000000000E+00 0.  1.
        -13    1    5    5    0    0 -0.21062231265E+02  0.40907189058E+02  0.27509334230E+02  0.53607640987E+02  0.00000000000E+00 0. -1.
          4    1    6    6  503    0 -0.50215859769E+03  0.35305633392E+02 -0.69207596734E+03  0.85579138203E+03  0.00000000000E+00 0.  1.
         -4    1    6    6    0  503 -0.20280346221E+03 -0.43091651884E+02 -0.29873058045E+03  0.36362906160E+03  0.00000000000E+00 0. -1.
<mgrwt>
<rscale>  0 0.17812614E+04</rscale>
<asrwt>0</asrwt>
<pdfrwt beam="1">  1        1 0.28380123E+00 0.17812614E+04</pdfrwt>
<pdfrwt beam="2">  1       -1 0.66153727E-01 0.17812614E+04</pdfrwt>
<totfact> 0.83139591E+00</totfact>
</mgrwt>
</event>
<event>
12    3  0.4773567E-008  0.2700195E+04  0.7818608E-02  0.8334942E-01
          1   -1    0    0  501    0  0.00000000000E+00  0.00000000000E+00  0.28794667552E+04  0.28794667552E+04  0.00000000000E+00 0. -1.
         -1   -1    0    0    0  501 -0.00000000000E+00 -0.00000000000E+00 -0.63302111957E+03  0.63302111957E+03  0.00000000000E+00 0.  1.
         23    2    1    2    0    0 -0.21325938605E+03  0.10954017209E+04  0.41869848359E+03  0.11949543726E+04  0.84988449616E+02 0.  0.
        254    2    1    2    0    0  0.21325938605E+03 -0.10954017209E+04  0.18277471521E+04  0.23175335022E+04  0.88595563429E+03 0.  0.
         23    2    4    4    0    0  0.10849307185E+03 -0.42144838016E+03  0.97912228054E+02  0.45593021122E+03  0.94318976440E+02 0.  0.
         23    2    4    4    0    0  0.10476631419E+03 -0.67395334075E+03  0.17298349240E+04  0.18616032910E+04  0.89715452868E+02 0.  0.
          1    1    3    3  502    0 -0.36404527575E+02  0.12233758535E+03  0.74358602435E+02  0.14771924781E+03  0.00000000000E+00 0. -1.
         -1    1    3    3    0  502 -0.17685485847E+03  0.97306413557E+03  0.34433988116E+03  0.10472351248E+04  0.00000000000E+00 0.  1.
         13    1    5    5    0    0  0.11244094953E+03 -0.42330762247E+03  0.90363927970E+02  0.44721130336E+03  0.00000000000E+00 0.  1.
        -13    1    5    5    0    0 -0.39478776795E+01  0.18592423064E+01  0.75483000837E+01  0.87189078605E+01  0.00000000000E+00 0. -1.
          2    1    6    6  503    0  0.12474609419E+02 -0.15445412391E+03  0.30276293227E+03  0.34011334203E+03  0.00000000000E+00 0. -1.
         -2    1    6    6    0  503  0.92291704773E+02 -0.51949921685E+03  0.14270719918E+04  0.15214899489E+04  0.00000000000E+00 0.  1.
<mgrwt>
<rscale>  0 0.27001950E+04</rscale>
<asrwt>0</asrwt>
<pdfrwt beam="1">  1        1 0.44299488E+00 0.27001950E+04</pdfrwt>
<pdfrwt beam="2">  1       -1 0.97387866E-01 0.27001950E+04</pdfrwt>
<totfact> 0.64582009E-01</totfact>
</mgrwt>
</event>
<event>
12    3  0.4773567E-008  0.1712706E+04  0.7818608E-02  0.8754151E-01
          1   -1    0    0  501    0  0.00000000000E+00  0.00000000000E+00  0.40389950749E+03  0.40389950749E+03  0.00000000000E+00 0. -1.
         -1   -1    0    0    0  501 -0.00000000000E+00 -0.00000000000E+00 -0.18156506197E+04  0.18156506197E+04  0.00000000000E+00 0.  1.
         23    2    1    2    0    0  0.21834975110E+03 -0.54658144002E+03 -0.21221630417E+03  0.63200046293E+03  0.89224105509E+02 0.  0.
        254    2    1    2    0    0 -0.21834975110E+03  0.54658144002E+03 -0.11995348081E+04  0.15875496643E+04  0.85732274929E+03 0.  0.
         23    2    4    4    0    0 -0.26163814639E+03  0.72216496685E+03 -0.11377976004E+04  0.13757678073E+04  0.90426330158E+02 0.  0.
         23    2    4    4    0    0  0.43288395296E+02 -0.17558352683E+03 -0.61737207715E+02  0.21178185701E+03  0.91305049587E+02 0.  0.
          4    1    3    3  502    0  0.14935414955E+03 -0.29238097491E+03 -0.83168854812E+02  0.33868917150E+03  0.00000000000E+00 0. -1.
         -4    1    3    3    0  502  0.68995601549E+02 -0.25420046511E+03 -0.12904744936E+03  0.29331129143E+03  0.00000000000E+00 0.  1.
         13    1    5    5    0    0 -0.59862658638E+02  0.11332879593E+03 -0.24443476719E+03  0.27599874872E+03  0.00000000000E+00 0.  1.
        -13    1    5    5    0    0 -0.20177548775E+03  0.60883617093E+03 -0.89336283317E+03  0.10997690586E+04  0.00000000000E+00 0. -1.
          2    1    6    6  503    0 -0.22262626422E+02 -0.97378504592E+02 -0.22075123096E+02  0.10230106916E+03  0.00000000000E+00 0. -1.
         -2    1    6    6    0  503  0.65551021717E+02 -0.78205022241E+02 -0.39662084619E+02  0.10948078785E+03  0.00000000000E+00 0.  1.
<mgrwt>
<rscale>  0 0.17127059E+04</rscale>
<asrwt>0</asrwt>
<pdfrwt beam="1">  1        1 0.62138387E-01 0.17127059E+04</pdfrwt>
<pdfrwt beam="2">  1       -1 0.27933086E+00 0.17127059E+04</pdfrwt>
<totfact> 0.25329911E+00</totfact>
</mgrwt>
</event>
<event>
12    3  0.4773567E-008  0.1348793E+04  0.7818608E-02  0.8991742E-01
          1   -1    0    0  501    0  0.00000000000E+00  0.00000000000E+00  0.35575758959E+03  0.35575758959E+03  0.00000000000E+00 0. -1.
         -1   -1    0    0    0  501 -0.00000000000E+00 -0.00000000000E+00 -0.12784292812E+04  0.12784292812E+04  0.00000000000E+00 0.  1.
         23    2    1    2    0    0  0.46041957450E+02  0.36243018233E+03 -0.27855095797E+03  0.46839635646E+03  0.91263419004E+02 0.  0.
        254    2    1    2    0    0 -0.46041957450E+02 -0.36243018233E+03 -0.64412073361E+03  0.11657905143E+04  0.90038908527E+03 0.  0.
         23    2    4    4    0    0 -0.45295933473E+02 -0.29809640457E+03 -0.86397676265E+03  0.91940187728E+03  0.89054912975E+02 0.  0.
         23    2    4    4    0    0 -0.74602397743E+00 -0.64333777759E+02  0.21985602904E+03  0.24638863703E+03  0.90726486986E+02 0.  0.
          4    1    3    3  502    0  0.64799110612E+02  0.20108346098E+03 -0.18581297250E+03  0.28135376977E+03  0.00000000000E+00 0. -1.
         -4    1    3    3    0  502 -0.18757153162E+02  0.16134672135E+03 -0.92737985469E+02  0.18704258669E+03  0.00000000000E+00 0.  1.
         13    1    5    5    0    0 -0.87376857901E+01  0.16720727394E+01 -0.89823628146E+01  0.12642223774E+02  0.00000000000E+00 0. -1.
        -13    1    5    5    0    0 -0.36558247683E+02 -0.29976847731E+03 -0.85499439984E+03  0.90675965350E+03  0.00000000000E+00 0.  1.
          2    1    6    6  503    0  0.31805309271E+02 -0.42683230490E+01  0.12770259134E+03  0.13167288299E+03  0.00000000000E+00 0. -1.
         -2    1    6    6    0  503 -0.32551333249E+02 -0.60065454709E+02  0.92153437696E+02  0.11471575404E+03  0.00000000000E+00 0.  1.
<mgrwt>
<rscale>  0 0.13487934E+04</rscale>
<asrwt>0</asrwt>
<pdfrwt beam="1">  1        1 0.54731935E-01 0.13487934E+04</pdfrwt>
<pdfrwt beam="2">  1       -1 0.19668143E+00 0.13487934E+04</pdfrwt>
<totfact> 0.10887814E+01</totfact>
</mgrwt>
</event>
<event>
12    3  0.4773567E-008  0.1396661E+04  0.7818608E-02  0.8956239E-01
          2   -1    0    0  501    0  0.00000000000E+00  0.00000000000E+00  0.42317659342E+03  0.42317659342E+03  0.00000000000E+00 0. -1.
         -2   -1    0    0    0  501 -0.00000000000E+00 -0.00000000000E+00 -0.11523920283E+04  0.11523920283E+04  0.00000000000E+00 0.  1.
         23    2    1    2    0    0 -0.27582636827E+03 -0.38675477616E+02 -0.52392497008E+03  0.60138310774E+03  0.97919814132E+02 0.  0.
        254    2    1    2    0    0  0.27582636827E+03  0.38675477616E+02 -0.20529046478E+03  0.97418551396E+03  0.91066858004E+03 0.  0.
         23    2    4    4    0    0  0.56526278403E+03  0.20277934285E+03 -0.14378990123E+03  0.62380639235E+03  0.88416076226E+02 0.  0.
         23    2    4    4    0    0 -0.28943641577E+03 -0.16410386524E+03 -0.61500563544E+02  0.35037912161E+03  0.90992813928E+02 0.  0.
          3    1    3    3  502    0 -0.23809945710E+03 -0.53910432058E+02 -0.37871272408E+03  0.45057853204E+03  0.00000000000E+00 0.  1.
         -3    1    3    3    0  502 -0.37726911169E+02  0.15234954443E+02 -0.14521224600E+03  0.15080457570E+03  0.00000000000E+00 0. -1.
         13    1    5    5    0    0  0.69724579921E+02  0.46738951367E+02  0.28279581883E+01  0.83988356143E+02  0.00000000000E+00 0. -1.
        -13    1    5    5    0    0  0.49553820411E+03  0.15604039149E+03 -0.14661785942E+03  0.53981803620E+03  0.00000000000E+00 0.  1.
          3    1    6    6  503    0 -0.14178088195E+03 -0.12448843207E+03 -0.58259066434E+02  0.19746723026E+03  0.00000000000E+00 0. -1.
         -3    1    6    6    0  503 -0.14765553382E+03 -0.39615433165E+02 -0.32414971100E+01  0.15291189135E+03  0.00000000000E+00 0.  1.
<mgrwt>
<rscale>  0 0.13966608E+04</rscale>
<asrwt>0</asrwt>
<pdfrwt beam="1">  1        2 0.65104092E-01 0.13966608E+04</pdfrwt>
<pdfrwt beam="2">  1       -2 0.17729108E+00 0.13966608E+04</pdfrwt>
<totfact> 0.13736179E+01</totfact>
</mgrwt>
</event>
<event>
12    3  0.4773567E-008  0.1473406E+04  0.7818608E-02  0.8902333E-01
         -1   -1    0    0    0  501 -0.00000000000E+00  0.00000000000E+00  0.13846997566E+04  0.13846997566E+04  0.00000000000E+00 0. -1.
          1   -1    0    0  501    0  0.00000000000E+00 -0.00000000000E+00 -0.39194859443E+03  0.39194859443E+03  0.00000000000E+00 0.  1.
         23    2    1    2    0    0  0.43914962973E+03  0.11150804476E+03  0.31633402800E+03  0.55999586209E+03  0.90783847367E+02 0.  0.
        254    2    1    2    0    0 -0.43914962973E+03 -0.11150804476E+03  0.67641713422E+03  0.12166524890E+04  0.90411099881E+03 0.  0.
         23    2    4    4    0    0 -0.60925441588E+03  0.19115676646E+03  0.36405622091E+03  0.74065501267E+03  0.91110170575E+02 0.  0.
         23    2    4    4    0    0  0.17010478615E+03 -0.30266481123E+03  0.31236091331E+03  0.47599747632E+03  0.91992559899E+02 0.  0.
          2    1    3    3  502    0  0.28183349941E+03  0.99067609334E+02  0.24701495899E+03  0.38763501206E+03  0.00000000000E+00 0.  1.
         -2    1    3    3    0  502  0.15731613033E+03  0.12440435430E+02  0.69319069003E+02  0.17236085003E+03  0.00000000000E+00 0. -1.
         13    1    5    5    0    0 -0.34711043702E+03  0.14097111161E+03  0.25002282556E+03  0.45041083812E+03  0.00000000000E+00 0. -1.
        -13    1    5    5    0    0 -0.26214397886E+03  0.50185654852E+02  0.11403339534E+03  0.29024417455E+03  0.00000000000E+00 0.  1.
          4    1    6    6  503    0  0.16642836810E+03 -0.27323398994E+03  0.24687165909E+03  0.40410497526E+03  0.00000000000E+00 0. -1.
         -4    1    6    6    0  503  0.36764180441E+01 -0.29430821290E+02  0.65489254212E+02  0.71892501060E+02  0.00000000000E+00 0.  1.
<mgrwt>
<rscale>  0 0.14734057E+04</rscale>
<asrwt>0</asrwt>
<pdfrwt beam="1">  1        1 0.60299784E-01 0.14734057E+04</pdfrwt>
<pdfrwt beam="2">  1       -1 0.21303073E+00 0.14734057E+04</pdfrwt>
<totfact> 0.73272728E+00</totfact>
</mgrwt>
</event>
<event>
12    3  0.4773567E-008  0.1269822E+04  0.7818608E-02  0.9053845E-01
         -2   -1    0    0    0  501 -0.00000000000E+00  0.00000000000E+00  0.18354296253E+03  0.18354296253E+03  0.00000000000E+00 0.  1.
          2   -1    0    0  501    0  0.00000000000E+00 -0.00000000000E+00 -0.21962806947E+04  0.21962806947E+04  0.00000000000E+00 0. -1.
         23    2    1    2    0    0  0.15550257245E+03  0.12797275843E+02 -0.97225183515E+03  0.98882843012E+03  0.90350500471E+02 0.  0.
        254    2    1    2    0    0 -0.15550257245E+03 -0.12797275843E+02 -0.10404858970E+04  0.13909952271E+04  0.90989669723E+03 0.  0.
         23    2    4    4    0    0  0.28226039914E+03  0.12735312555E+03 -0.80325103774E+03  0.86582010227E+03  0.92425474659E+02 0.  0.
         23    2    4    4    0    0 -0.43776297159E+03 -0.14015040139E+03 -0.23723485928E+03  0.52517512484E+03  0.90829394927E+02 0.  0.
          4    1    3    3  502    0  0.11901973571E+03 -0.19217361568E+02 -0.82551585940E+03  0.83427300004E+03  0.00000000000E+00 0. -1.
         -4    1    3    3    0  502  0.36482836747E+02  0.32014637410E+02 -0.14673597576E+03  0.15455543008E+03  0.00000000000E+00 0.  1.
         13    1    5    5    0    0  0.54885197258E+02  0.57200848041E+02 -0.13609754304E+03  0.15750194639E+03  0.00000000000E+00 0. -1.
        -13    1    5    5    0    0  0.22737520188E+03  0.70152277508E+02 -0.66715349469E+03  0.70831815588E+03  0.00000000000E+00 0.  1.
          3    1    6    6  503    0 -0.26573863973E+03 -0.12786056711E+03 -0.16749100530E+03  0.33914390179E+03  0.00000000000E+00 0. -1.
         -3    1    6    6    0  503 -0.17202433186E+03 -0.12289834281E+02 -0.69743853989E+02  0.18603122305E+03  0.00000000000E+00 0.  1.
<mgrwt>
<rscale>  0 0.12698218E+04</rscale>
<asrwt>0</asrwt>
<pdfrwt beam="1">  1        2 0.33788935E+00 0.12698218E+04</pdfrwt>
<pdfrwt beam="2">  1       -2 0.28237378E-01 0.12698218E+04</pdfrwt>
<totfact> 0.58622236E+01</totfact>
</mgrwt>
</event>
<event>
12    3  0.4773567E-008  0.3922892E+04  0.7818608E-02  0.8020285E-01
          2   -1    0    0  501    0  0.00000000000E+00  0.00000000000E+00  0.34879122740E+04  0.34879122740E+04  0.00000000000E+00 0. -1.
         -2   -1    0    0    0  501 -0.00000000000E+00 -0.00000000000E+00 -0.11030297502E+04  0.11030297502E+04  0.00000000000E+00 0.  1.
         23    2    1    2    0    0 -0.10064215346E+04  0.10145450757E+04 -0.25603499775E+03  0.14546513526E+04  0.90942957997E+02 0.  0.
        254    2    1    2    0    0  0.10064215346E+04 -0.10145450757E+04  0.26409175215E+04  0.31362906716E+04  0.90536611684E+03 0.  0.
         23    2    4    4    0    0  0.22886092501E+03 -0.20311242314E+03  0.66794556792E+02  0.32601435685E+03  0.90508942243E+02 0.  0.
         23    2    4    4    0    0  0.77756060958E+03 -0.81143265260E+03  0.25741229647E+04  0.28102763148E+04  0.92306427956E+02 0.  0.
          3    1    3    3  502    0 -0.33362992050E+03  0.33010233573E+03 -0.41091614347E+02  0.47113161290E+03  0.00000000000E+00 0. -1.
         -3    1    3    3    0  502 -0.67279161409E+03  0.68444274001E+03 -0.21494338340E+03  0.98351973971E+03  0.00000000000E+00 0.  1.
         13    1    5    5    0    0  0.15909185189E+03 -0.99824023570E+02  0.72291394264E+02  0.20124884771E+03  0.00000000000E+00 0.  1.
        -13    1    5    5    0    0  0.69769073124E+02 -0.10328839957E+03 -0.54968374720E+01  0.12476550914E+03  0.00000000000E+00 0. -1.
          2    1    6    6  503    0  0.61044102068E+03 -0.58159871650E+03  0.19535755868E+04  0.21277577118E+04  0.00000000000E+00 0. -1.
         -2    1    6    6    0  503  0.16711958890E+03 -0.22983393610E+03  0.62054737790E+03  0.68251860297E+03  0.00000000000E+00 0.  1.
<mgrwt>
<rscale>  0 0.39228923E+04</rscale>
<asrwt>0</asrwt>
<pdfrwt beam="1">  1        2 0.53660188E+00 0.39228923E+04</pdfrwt>
<pdfrwt beam="2">  1       -2 0.16969689E+00 0.39228923E+04</pdfrwt>
<totfact> 0.14069678E-01</totfact>
</mgrwt>
</event>
<event>
12    3  0.4773567E-008  0.1474734E+04  0.7818608E-02  0.8901431E-01
          2   -1    0    0  501    0  0.00000000000E+00  0.00000000000E+00  0.24808624287E+03  0.24808624287E+03  0.00000000000E+00 0. -1.
         -2   -1    0    0    0  501 -0.00000000000E+00 -0.00000000000E+00 -0.21916161756E+04  0.21916161756E+04  0.00000000000E+00 0.  1.
         23    2    1    2    0    0 -0.52983147537E+02 -0.39288214717E+03 -0.10063504419E+04  0.10859657336E+04  0.97040028273E+02 0.  0.
        254    2    1    2    0    0  0.52983147537E+02  0.39288214717E+03 -0.93717949078E+03  0.13537366849E+04  0.89282362116E+03 0.  0.
         23    2    4    4    0    0  0.30150737992E+03 -0.90118056887E+02 -0.65992784509E+03  0.73700361252E+03  0.92960205574E+02 0.  0.
         23    2    4    4    0    0 -0.24852423239E+03  0.48300020405E+03 -0.27725164568E+03  0.61673307233E+03  0.91857042579E+02 0.  0.
          4    1    3    3  502    0 -0.15546218884E+02 -0.71863479366E+02 -0.30489792621E+03  0.31363799196E+03  0.00000000000E+00 0. -1.
         -4    1    3    3    0  502 -0.37436928653E+02 -0.32101866780E+03 -0.70145251570E+03  0.77232774163E+03  0.00000000000E+00 0.  1.
         13    1    5    5    0    0  0.95107680340E+02 -0.59622089753E+02 -0.30875544960E+03  0.32852730800E+03  0.00000000000E+00 0. -1.
        -13    1    5    5    0    0  0.20639969958E+03 -0.30495967134E+02 -0.35117239549E+03  0.40847630452E+03  0.00000000000E+00 0.  1.
          1    1    6    6  503    0 -0.11176356587E+03  0.19420889470E+03 -0.65673007266E+02  0.23349760881E+03  0.00000000000E+00 0. -1.
         -1    1    6    6    0  503 -0.13676066652E+03  0.28879130935E+03 -0.21157863842E+03  0.38323546352E+03  0.00000000000E+00 0.  1.
<mgrwt>
<rscale>  0 0.14747336E+04</rscale>
<asrwt>0</asrwt>
<pdfrwt beam="1">  1        2 0.38167115E-01 0.14747336E+04</pdfrwt>
<pdfrwt beam="2">  1       -2 0.33717172E+00 0.14747336E+04</pdfrwt>
<totfact> 0.24777371E+00</totfact>
</mgrwt>
</event>
<event>
12    3  0.4773567E-008  0.1783782E+04  0.7818608E-02  0.8714972E-01
          1   -1    0    0  501    0  0.00000000000E+00  0.00000000000E+00  0.18042502398E+04  0.18042502398E+04  0.00000000000E+00 0. -1.
         -1   -1    0    0    0  501 -0.00000000000E+00 -0.00000000000E+00 -0.44088661532E+03  0.44088661532E+03  0.00000000000E+00 0.  1.
         23    2    1    2    0    0  0.65492488005E+03  0.19697292744E+03  0.37281659886E+03  0.78427475261E+03  0.91486275187E+02 0.  0.
        254    2    1    2    0    0 -0.65492488005E+03 -0.19697292744E+03  0.99054702559E+03  0.14608621025E+04  0.82777396670E+03 0.  0.
         23    2    4    4    0    0 -0.74310944323E+03 -0.25272684120E+03  0.46351831516E+03  0.91633801094E+03  0.93507330862E+02 0.  0.
         23    2    4    4    0    0  0.88184563180E+02  0.55753913765E+02  0.52702871043E+03  0.54452409156E+03  0.88669095966E+02 0.  0.
          1    1    3    3  502    0  0.15680008864E+03  0.83306958864E+02  0.73834617115E+02  0.19229630230E+03  0.00000000000E+00 0. -1.
         -1    1    3    3    0  502  0.49812479141E+03  0.11366596858E+03  0.29898198175E+03  0.59197845031E+03  0.00000000000E+00 0.  1.
         13    1    5    5    0    0 -0.68888848284E+03 -0.25604238721E+03  0.41814484863E+03  0.84555908148E+03  0.00000000000E+00 0. -1.
        -13    1    5    5    0    0 -0.54220960382E+02  0.33155460002E+01  0.45373466532E+02  0.70778929458E+02  0.00000000000E+00 0.  1.
          2    1    6    6  503    0  0.26601906087E+02  0.21364498667E+02  0.37918414017E+03  0.38071605610E+03  0.00000000000E+00 0. -1.
         -2    1    6    6    0  503  0.61582657093E+02  0.34389415098E+02  0.14784457026E+03  0.16380803546E+03  0.00000000000E+00 0.  1.
<mgrwt>
<rscale>  0 0.17837823E+04</rscale>
<asrwt>0</asrwt>
<pdfrwt beam="1">  1        1 0.27757696E+00 0.17837823E+04</pdfrwt>
<pdfrwt beam="2">  1       -1 0.67828711E-01 0.17837823E+04</pdfrwt>
<totfact> 0.84159741E+00</totfact>
</mgrwt>
</event>
<event>
12    3  0.4773567E-008  0.1110769E+04  0.7818608E-02  0.9194759E-01
          1   -1    0    0  501    0  0.00000000000E+00  0.00000000000E+00  0.11793609872E+04  0.11793609872E+04  0.00000000000E+00 0. -1.
         -1   -1    0    0    0  501 -0.00000000000E+00 -0.00000000000E+00 -0.26154142602E+03  0.26154142602E+03  0.00000000000E+00 0.  1.
         23    2    1    2    0    0  0.10958356705E+03  0.13928264134E+03  0.32161498496E+03  0.37821505010E+03  0.90566071070E+02 0.  0.
        254    2    1    2    0    0 -0.10958356705E+03 -0.13928264134E+03  0.59620457621E+03  0.10626873631E+04  0.86164744686E+03 0.  0.
         23    2    4    4    0    0 -0.15971738579E+03  0.29174075211E+03  0.34061959823E+02  0.34678716257E+03  0.92080449872E+02 0.  0.
         23    2    4    4    0    0  0.50133818738E+02 -0.43102339345E+03  0.56214261639E+03  0.71590020055E+03  0.90632281787E+02 0.  0.
          2    1    3    3  502    0  0.61330317192E+02  0.53696966709E+02  0.22945824539E+03  0.24350740937E+03  0.00000000000E+00 0. -1.
         -2    1    3    3    0  502  0.48253249859E+02  0.85585674629E+02  0.92156739562E+02  0.13470764073E+03  0.00000000000E+00 0.  1.
         13    1    5    5    0    0 -0.48615017453E+02  0.11356328941E+03  0.56065385127E+02  0.13565901383E+03  0.00000000000E+00 0. -1.
        -13    1    5    5    0    0 -0.11110236834E+03  0.17817746270E+03 -0.22003425304E+02  0.21112814874E+03  0.00000000000E+00 0.  1.
          4    1    6    6  503    0  0.47746015213E+02 -0.27989128430E+03  0.29829079203E+03  0.41182060367E+03  0.00000000000E+00 0. -1.
         -4    1    6    6    0  503  0.23878035251E+01 -0.15113210915E+03  0.26385182435E+03  0.30407959687E+03  0.00000000000E+00 0.  1.
<mgrwt>
<rscale>  0 0.11107687E+04</rscale>
<asrwt>0</asrwt>
<pdfrwt beam="1">  1        1 0.18144015E+00 0.11107687E+04</pdfrwt>
<pdfrwt beam="2">  1       -1 0.40237143E-01 0.11107687E+04</pdfrwt>
<totfact> 0.66343946E+01</totfact>
</mgrwt>
</event>
<event>
12    3  0.4773567E-008  0.2085936E+04  0.7818608E-02  0.8567464E-01
         -2   -1    0    0    0  501 -0.00000000000E+00  0.00000000000E+00  0.65395898740E+03  0.65395898740E+03  0.00000000000E+00 0.  1.
          2   -1    0    0  501    0  0.00000000000E+00 -0.00000000000E+00 -0.16633806840E+04  0.16633806840E+04  0.00000000000E+00 0. -1.
         23    2    1    2    0    0 -0.57034275874E+03 -0.62914490268E+03 -0.38213771465E+03  0.93570316739E+03  0.91635219791E+02 0.  0.
        254    2    1    2    0    0  0.57034275874E+03  0.62914490268E+03 -0.62728398195E+03  0.13816365040E+04  0.89124635438E+03 0.  0.
         23    2    4    4    0    0  0.28699164705E+03 -0.19211934371E+03 -0.15924982600E+03  0.39067048993E+03  0.89380517544E+02 0.  0.
         23    2    4    4    0    0  0.28335111168E+03  0.82126424639E+03 -0.46803415595E+03  0.99096601408E+03  0.90525438603E+02 0.  0.
          3    1    3    3  502    0 -0.11575131917E+03 -0.16445529080E+03 -0.12396569523E+03  0.23624437381E+03  0.00000000000E+00 0. -1.
         -3    1    3    3    0  502 -0.45459143957E+03 -0.46468961188E+03 -0.25817201942E+03  0.69945879359E+03  0.00000000000E+00 0.  1.
         13    1    5    5    0    0  0.23120629451E+03 -0.18361813336E+03 -0.15652898637E+03  0.33417554233E+03  0.00000000000E+00 0.  1.
        -13    1    5    5    0    0  0.55785352540E+02 -0.85012103534E+01 -0.27208396231E+01  0.56494947595E+02  0.00000000000E+00 0. -1.
          4    1    6    6  503    0  0.70573997129E+00  0.81664717646E+02 -0.41047180796E+02  0.91402927899E+02  0.00000000000E+00 0. -1.
         -4    1    6    6    0  503  0.28264537171E+03  0.73959952874E+03 -0.42698697516E+03  0.89956308618E+03  0.00000000000E+00 0.  1.
<mgrwt>
<rscale>  0 0.20859365E+04</rscale>
<asrwt>0</asrwt>
<pdfrwt beam="1">  1        2 0.25590472E+00 0.20859365E+04</pdfrwt>
<pdfrwt beam="2">  1       -2 0.10060908E+00 0.20859365E+04</pdfrwt>
<totfact> 0.77213330E+00</totfact>
</mgrwt>
</event>
<event>
12    3  0.4773567E-008  0.1384614E+04  0.7818608E-02  0.8965032E-01
         -2   -1    0    0    0  501 -0.00000000000E+00  0.00000000000E+00  0.18358952586E+03  0.18358952586E+03  0.00000000000E+00 0.  1.
          2   -1    0    0  501    0  0.00000000000E+00 -0.00000000000E+00 -0.26106539320E+04  0.26106539320E+04  0.00000000000E+00 0. -1.
         23    2    1    2    0    0  0.23521873261E+02 -0.30819433752E+03 -0.13076325870E+04  0.13465406969E+04  0.87930868321E+02 0.  0.
        254    2    1    2    0    0 -0.23521873261E+02  0.30819433752E+03 -0.11194318191E+04  0.14477027609E+04  0.86439496655E+03 0.  0.
         23    2    4    4    0    0  0.58150719869E+02 -0.18416135513E+03 -0.84372231546E+03  0.87019774589E+03  0.89888043760E+02 0.  0.
         23    2    4    4    0    0 -0.81672593130E+02  0.49235569265E+03 -0.27570950363E+03  0.57750501503E+03  0.91715709872E+02 0.  0.
          3    1    3    3  502    0 -0.13079208952E+02 -0.25086227161E+03 -0.96041887982E+03  0.99272723834E+03  0.00000000000E+00 0. -1.
         -3    1    3    3    0  502  0.36601082214E+02 -0.57332065915E+02 -0.34721370722E+03  0.35381345860E+03  0.00000000000E+00 0.  1.
         13    1    5    5    0    0  0.28786437739E+02 -0.25217466051E+02 -0.31513118853E+03  0.31744644521E+03  0.00000000000E+00 0. -1.
        -13    1    5    5    0    0  0.29364282130E+02 -0.15894388908E+03 -0.52859112693E+03  0.55275130068E+03  0.00000000000E+00 0.  1.
          1    1    6    6  503    0 -0.74768339269E+02  0.18487795390E+03 -0.96481484727E+02  0.22153744444E+03  0.00000000000E+00 0. -1.
         -1    1    6    6    0  503 -0.69042538608E+01  0.30747773875E+03 -0.17922801891E+03  0.35596757058E+03  0.00000000000E+00 0.  1.
<mgrwt>
<rscale>  0 0.13846136E+04</rscale>
<asrwt>0</asrwt>
<pdfrwt beam="1">  1        2 0.40163905E+00 0.13846136E+04</pdfrwt>
<pdfrwt beam="2">  1       -2 0.28244544E-01 0.13846136E+04</pdfrwt>
<totfact> 0.33691072E+01</totfact>
</mgrwt>
</event>
<event>
12    3  0.4773567E-008  0.1238381E+04  0.7818608E-02  0.9079910E-01
         -2   -1    0    0    0  501 -0.00000000000E+00  0.00000000000E+00  0.16705802036E+03  0.16705802036E+03  0.00000000000E+00 0. -1.
          2   -1    0    0  501    0  0.00000000000E+00 -0.00000000000E+00 -0.22949923820E+04  0.22949923820E+04  0.00000000000E+00 0.  1.
         23    2    1    2    0    0 -0.28935920750E+03  0.47098842596E+02 -0.51004619606E+03  0.59537905980E+03  0.91553540577E+02 0.  0.
        254    2    1    2    0    0  0.28935920750E+03 -0.47098842596E+02 -0.16178881656E+04  0.18666713426E+04  0.88371530083E+03 0.  0.
         23    2    4    4    0    0  0.67135138017E+02 -0.13054261630E+03  0.49862724291E+02  0.17960608901E+03  0.90683816135E+02 0.  0.
         23    2    4    4    0    0  0.22222406949E+03  0.83443773700E+02 -0.16677508899E+04  0.16870652536E+04  0.91922460155E+02 0.  0.
          2    1    3    3  502    0 -0.28430820841E+03  0.50323702539E+02 -0.51302108467E+03  0.58868859826E+03  0.00000000000E+00 0. -1.
         -2    1    3    3    0  502 -0.50509990895E+01 -0.32248599426E+01  0.29748886035E+01  0.66904615427E+01  0.00000000000E+00 0.  1.
         13    1    5    5    0    0  0.55259089956E+02 -0.51613636950E+02  0.63365512840E+02  0.98654562791E+02  0.00000000000E+00 0. -1.
        -13    1    5    5    0    0  0.11876048061E+02 -0.78928979346E+02 -0.13502788549E+02  0.80951526217E+02  0.00000000000E+00 0.  1.
          1    1    6    6  503    0  0.20989411406E+03  0.45662363325E+02 -0.14111000646E+04  0.14273555909E+04  0.00000000000E+00 0. -1.
         -1    1    6    6    0  503  0.12329955426E+02  0.37781410376E+02 -0.25665082534E+03  0.25970966273E+03  0.00000000000E+00 0.  1.
<mgrwt>
<rscale>  0 0.12383810E+04</rscale>
<asrwt>0</asrwt>
<pdfrwt beam="1">  1        2 0.35307573E+00 0.12383810E+04</pdfrwt>
<pdfrwt beam="2">  1       -2 0.25701235E-01 0.12383810E+04</pdfrwt>
<totfact> 0.61485752E+01</totfact>
</mgrwt>
</event>
<event>
12    3  0.4773567E-008  0.1316273E+04  0.7818608E-02  0.9016759E-01
         -2   -1    0    0    0  501 -0.00000000000E+00  0.00000000000E+00  0.11773883195E+03  0.11773883195E+03  0.00000000000E+00 0.  1.
          2   -1    0    0  501    0  0.00000000000E+00 -0.00000000000E+00 -0.36788502130E+04  0.36788502130E+04  0.00000000000E+00 0. -1.
         23    2    1    2    0    0 -0.32140668241E+03  0.87053775820E+02 -0.86256917328E+03  0.92906400445E+03  0.90850042870E+02 0.  0.
        254    2    1    2    0    0  0.32140668241E+03 -0.87053775820E+02 -0.26985422078E+04  0.28675250405E+04  0.91087276578E+03 0.  0.
         23    2    4    4    0    0  0.71594510817E+02  0.25664433360E+03 -0.23860764478E+03  0.36946411057E+03  0.92617670564E+02 0.  0.
         23    2    4    4    0    0  0.24981217159E+03 -0.34369810942E+03 -0.24599345630E+04  0.24980609300E+04  0.92172902870E+02 0.  0.
          3    1    3    3  502    0 -0.30935186997E+03  0.10157504454E+03 -0.82719820090E+03  0.88897296511E+03  0.00000000000E+00 0. -1.
         -3    1    3    3    0  502 -0.12054812438E+02 -0.14521268718E+02 -0.35370972378E+02  0.40091039336E+02  0.00000000000E+00 0.  1.
         13    1    5    5    0    0  0.73222794336E+02  0.26423647527E+03 -0.23372832537E+03  0.36029352278E+03  0.00000000000E+00 0.  1.
        -13    1    5    5    0    0 -0.16282835188E+01 -0.75921416761E+01 -0.48793194121E+01  0.91705877878E+01  0.00000000000E+00 0. -1.
          4    1    6    6  503    0  0.92789989649E+02 -0.20283587734E+03 -0.11894961577E+04  0.12102286910E+04  0.00000000000E+00 0. -1.
         -4    1    6    6    0  503  0.15702218194E+03 -0.14086223208E+03 -0.12704384053E+04  0.12878322390E+04  0.00000000000E+00 0.  1.
<mgrwt>
<rscale>  0 0.13162728E+04</rscale>
<asrwt>0</asrwt>
<pdfrwt beam="1">  1        2 0.56597701E+00 0.13162728E+04</pdfrwt>
<pdfrwt beam="2">  1       -2 0.18113665E-01 0.13162728E+04</pdfrwt>
<totfact> 0.15424766E+01</totfact>
</mgrwt>
</event>
<event>
12    3  0.4773567E-008  0.2223453E+04  0.7818608E-02  0.8508729E-01
         -2   -1    0    0    0  501 -0.00000000000E+00  0.00000000000E+00  0.42442756558E+03  0.42442756558E+03  0.00000000000E+00 0.  1.
          2   -1    0    0  501    0  0.00000000000E+00 -0.00000000000E+00 -0.29120076246E+04  0.29120076246E+04  0.00000000000E+00 0. -1.
         23    2    1    2    0    0 -0.57378437707E+03  0.53897486125E+03 -0.17419936026E+04  0.19137772387E+04  0.90990084652E+02 0.  0.
        254    2    1    2    0    0  0.57378437707E+03 -0.53897486125E+03 -0.74558645635E+03  0.14226579514E+04  0.92105052541E+03 0.  0.
         23    2    4    4    0    0  0.33838106664E+03 -0.66020732207E+03 -0.14891334106E+03  0.76211886125E+03  0.90964394963E+02 0.  0.
         23    2    4    4    0    0  0.23540331044E+03  0.12123246082E+03 -0.59667311529E+03  0.66053909015E+03  0.10090121400E+03 0.  0.
          3    1    3    3  502    0 -0.44254682839E+03  0.46174102420E+03 -0.13764132204E+04  0.15177502502E+04  0.00000000000E+00 0. -1.
         -3    1    3    3    0  502 -0.13123754869E+03  0.77233837049E+02 -0.36558038225E+03  0.39602698854E+03  0.00000000000E+00 0.  1.
         13    1    5    5    0    0  0.10941948637E+03 -0.19465230298E+03 -0.86912658535E+02  0.23961626252E+03  0.00000000000E+00 0.  1.
        -13    1    5    5    0    0  0.22896158027E+03 -0.46555501910E+03 -0.62000682525E+02  0.52250259873E+03  0.00000000000E+00 0. -1.
          3    1    6    6  503    0  0.16833443405E+03  0.42554365611E+02 -0.43797013383E+03  0.47113182215E+03  0.00000000000E+00 0. -1.
         -3    1    6    6    0  503  0.67068876392E+02  0.78678095210E+02 -0.15870298146E+03  0.18940726800E+03  0.00000000000E+00 0.  1.
<mgrwt>
<rscale>  0 0.22234534E+04</rscale>
<asrwt>0</asrwt>
<pdfrwt beam="1">  1        2 0.44800117E+00 0.22234534E+04</pdfrwt>
<pdfrwt beam="2">  1       -2 0.65296550E-01 0.22234534E+04</pdfrwt>
<totfact> 0.38986523E+00</totfact>
</mgrwt>
</event>
<event>
12    3  0.4773567E-008  0.3056981E+04  0.7818608E-02  0.8227644E-01
         -1   -1    0    0    0  501 -0.00000000000E+00  0.00000000000E+00  0.13615683565E+04  0.13615683565E+04  0.00000000000E+00 0. -1.
          1   -1    0    0  501    0  0.00000000000E+00 -0.00000000000E+00 -0.17158767541E+04  0.17158767541E+04  0.00000000000E+00 0.  1.
         23    2    1    2    0    0 -0.25245591918E+03  0.82450857098E+03  0.94028369794E+03  0.12791645880E+04  0.92629563083E+02 0.  0.
        254    2    1    2    0    0  0.25245591918E+03 -0.82450857098E+03 -0.12945920956E+04  0.17982805225E+04  0.90238338251E+03 0.  0.
         23    2    4    4    0    0  0.36373745711E+03 -0.96723823778E+03 -0.10010814326E+04  0.14416598986E+04  0.91457542714E+02 0.  0.
         23    2    4    4    0    0 -0.11128153794E+03  0.14272966680E+03 -0.29351066297E+03  0.35662062396E+03  0.90963848227E+02 0.  0.
          2    1    3    3  502    0 -0.20098169423E+03  0.70858176929E+03  0.84215258682E+03  0.11187952202E+04  0.00000000000E+00 0. -1.
         -2    1    3    3    0  502 -0.51474224947E+02  0.11592680169E+03  0.98131111118E+02  0.16036936788E+03  0.00000000000E+00 0.  1.
         13    1    5    5    0    0  0.65584932022E+01 -0.54369111028E+02 -0.77110094524E+02  0.94577908333E+02  0.00000000000E+00 0. -1.
        -13    1    5    5    0    0  0.35717896391E+03 -0.91286912675E+03 -0.92397133806E+03  0.13470819902E+04  0.00000000000E+00 0.  1.
          3    1    6    6  503    0 -0.63619130525E+01 -0.33842297824E+01  0.45240361235E+01  0.85084576601E+01  0.00000000000E+00 0. -1.
         -3    1    6    6    0  503 -0.10491962488E+03  0.14611389658E+03 -0.29803469910E+03  0.34811216630E+03  0.00000000000E+00 0.  1.
<mgrwt>
<rscale>  0 0.30569812E+04</rscale>
<asrwt>0</asrwt>
<pdfrwt beam="1">  1        1 0.26398104E+00 0.30569812E+04</pdfrwt>
<pdfrwt beam="2">  1       -1 0.20947206E+00 0.30569812E+04</pdfrwt>
<totfact> 0.51036437E-01</totfact>
</mgrwt>
</event>
<event>
12    3  0.4773567E-008  0.2649481E+04  0.7818608E-02  0.8351585E-01
         -1   -1    0    0    0  501 -0.00000000000E+00  0.00000000000E+00  0.82315996150E+03  0.82315996150E+03  0.00000000000E+00 0.  1.
          1   -1    0    0  501    0  0.00000000000E+00 -0.00000000000E+00 -0.21319522751E+04  0.21319522751E+04  0.00000000000E+00 0. -1.
         23    2    1    2    0    0  0.10555732313E+04  0.38314239661E+03 -0.21457290947E+03  0.11464784060E+04  0.85663640803E+02 0.  0.
        254    2    1    2    0    0 -0.10555732313E+04 -0.38314239661E+03 -0.10942194042E+04  0.18086338306E+04  0.90155825441E+03 0.  0.
         23    2    4    4    0    0 -0.11392923750E+04 -0.21745202665E+03 -0.68807385278E+03  0.13518963691E+04  0.94369837126E+02 0.  0.
         23    2    4    4    0    0  0.83719143757E+02 -0.16569036996E+03 -0.40614555140E+03  0.45673746153E+03  0.95878600913E+02 0.  0.
          2    1    3    3  502    0  0.40758988321E+03  0.15608237357E+03 -0.12531554429E+03  0.45408722276E+03  0.00000000000E+00 0. -1.
         -2    1    3    3    0  502  0.64798334806E+03  0.22706002304E+03 -0.89257365179E+02  0.69239118327E+03  0.00000000000E+00 0.  1.
         13    1    5    5    0    0 -0.25673629145E+03 -0.65980018915E+02 -0.19996741037E+03  0.33204495397E+03  0.00000000000E+00 0.  1.
        -13    1    5    5    0    0 -0.88255608358E+03 -0.15147200773E+03 -0.48810644241E+03  0.10198514151E+04  0.00000000000E+00 0. -1.
          3    1    6    6  503    0  0.10135264270E+03 -0.11184756992E+03 -0.31718773468E+03  0.35126954908E+03  0.00000000000E+00 0. -1.
         -3    1    6    6    0  503 -0.17633498939E+02 -0.53842800044E+02 -0.88957816723E+02  0.10546791245E+03  0.00000000000E+00 0.  1.
<mgrwt>
<rscale>  0 0.26494813E+04</rscale>
<asrwt>0</asrwt>
<pdfrwt beam="1">  1        1 0.32799266E+00 0.26494813E+04</pdfrwt>
<pdfrwt beam="2">  1       -1 0.12663999E+00 0.26494813E+04</pdfrwt>
<totfact> 0.11512740E+00</totfact>
</mgrwt>
</event>
<event>
12    3  0.4773567E-008  0.1636008E+04  0.7818608E-02  0.8798727E-01
          1   -1    0    0  501    0  0.00000000000E+00  0.00000000000E+00  0.18909426267E+04  0.18909426267E+04  0.00000000000E+00 0. -1.
         -1   -1    0    0    0  501 -0.00000000000E+00 -0.00000000000E+00 -0.35386079360E+03  0.35386079360E+03  0.00000000000E+00 0.  1.
         23    2    1    2    0    0  0.27277310360E+03 -0.30090306261E+03 -0.32326504408E+02  0.41750623522E+03  0.91206548156E+02 0.  0.
        254    2    1    2    0    0 -0.27277310360E+03  0.30090306261E+03  0.15694083376E+04  0.18272971851E+04  0.84322277816E+03 0.  0.
         23    2    4    4    0    0 -0.21955117790E+03  0.45500119168E+03  0.15580682261E+04  0.16404737133E+04  0.91370688046E+02 0.  0.
         23    2    4    4    0    0 -0.53221925705E+02 -0.15409812907E+03  0.11340111428E+02  0.18682347181E+03  0.90529579333E+02 0.  0.
          2    1    3    3  502    0  0.99725463657E+02 -0.17715484724E+03 -0.22513222754E+02  0.20453814608E+03  0.00000000000E+00 0.  1.
         -2    1    3    3    0  502  0.17304763995E+03 -0.12374821537E+03 -0.98132816543E+01  0.21296808915E+03  0.00000000000E+00 0. -1.
         13    1    5    5    0    0 -0.19667211805E+03  0.44810781197E+03  0.14772113922E+04  0.15561600273E+04  0.00000000000E+00 0.  1.
        -13    1    5    5    0    0 -0.22879059847E+02  0.68933797045E+01  0.80856833927E+02  0.84313686054E+02  0.00000000000E+00 0. -1.
          2    1    6    6  503    0 -0.39133426991E+01  0.51155347976E+00 -0.20985277950E+02  0.21353169055E+02  0.00000000000E+00 0. -1.
         -2    1    6    6    0  503 -0.49308583005E+02 -0.15460968255E+03  0.32325389379E+02  0.16547030275E+03  0.00000000000E+00 0.  1.
<mgrwt>
<rscale>  0 0.16360079E+04</rscale>
<asrwt>0</asrwt>
<pdfrwt beam="1">  1        1 0.29091424E+00 0.16360079E+04</pdfrwt>
<pdfrwt beam="2">  1       -1 0.54440123E-01 0.16360079E+04</pdfrwt>
<totfact> 0.11524193E+01</totfact>
</mgrwt>
</event>
<event>
12    3  0.4773567E-008  0.2224109E+04  0.7818608E-02  0.8508460E-01
          2   -1    0    0  501    0  0.00000000000E+00  0.00000000000E+00  0.10967140966E+04  0.10967140966E+04  0.00000000000E+00 0. -1.
         -2   -1    0    0    0  501 -0.00000000000E+00 -0.00000000000E+00 -0.11276092977E+04  0.11276092977E+04  0.00000000000E+00 0.  1.
         23    2    1    2    0    0 -0.42553883810E+02  0.55384192925E+03 -0.76284796628E+03  0.94800544806E+03  0.90695061934E+02 0.  0.
        254    2    1    2    0    0  0.42553883810E+02 -0.55384192925E+03  0.73195276519E+03  0.12763179463E+04  0.88582217964E+03 0.  0.
         23    2    4    4    0    0 -0.14446260254E+02 -0.25440589723E+03 -0.17107504988E+03  0.31888170173E+03  0.86532144481E+02 0.  0.
         23    2    4    4    0    0  0.57000144064E+02 -0.29943603203E+03  0.90302781507E+03  0.95743624457E+03  0.91180995393E+02 0.  0.
          3    1    3    3  502    0 -0.14125042531E+02  0.18120132204E+02 -0.14286774369E+02  0.27054906015E+02  0.00000000000E+00 0. -1.
         -3    1    3    3    0  502 -0.28428841279E+02  0.53572179705E+03 -0.74856119191E+03  0.92095054204E+03  0.00000000000E+00 0.  1.
         13    1    5    5    0    0 -0.41616731434E+02 -0.22329777363E+03 -0.13638140470E+03  0.26494100398E+03  0.00000000000E+00 0.  1.
        -13    1    5    5    0    0  0.27170471180E+02 -0.31108123599E+02 -0.34693645177E+02  0.53940697749E+02  0.00000000000E+00 0. -1.
          1    1    6    6  503    0  0.10416017544E+02 -0.22665268094E+02  0.23716561300E+02  0.34419225429E+02  0.00000000000E+00 0. -1.
         -1    1    6    6    0  503  0.46584126520E+02 -0.27677076393E+03  0.87931125377E+03  0.92301701914E+03  0.00000000000E+00 0.  1.
<mgrwt>
<rscale>  0 0.22241088E+04</rscale>
<asrwt>0</asrwt>
<pdfrwt beam="1">  1        2 0.16872525E+00 0.22241088E+04</pdfrwt>
<pdfrwt beam="2">  1       -2 0.17347835E+00 0.22241088E+04</pdfrwt>
<totfact> 0.40208638E+00</totfact>
</mgrwt>
</event>
<event>
12    3  0.4773567E-008  0.1786843E+04  0.7818608E-02  0.8713328E-01
         -3   -1    0    0    0  501 -0.00000000000E+00  0.00000000000E+00  0.88113653825E+03  0.88113653825E+03  0.00000000000E+00 0.  1.
          3   -1    0    0  501    0  0.00000000000E+00 -0.00000000000E+00 -0.90587739888E+03  0.90587739888E+03  0.00000000000E+00 0. -1.
         23    2    1    2    0    0  0.12760863105E+03  0.42198098531E+03  0.49286006760E+03  0.66750446471E+03  0.91100216783E+02 0.  0.
        254    2    1    2    0    0 -0.12760863105E+03 -0.42198098531E+03 -0.51760092823E+03  0.11195094724E+04  0.88940363349E+03 0.  0.
         23    2    4    4    0    0  0.14415630172E+03 -0.38986676180E+03  0.10152610939E+03  0.43681730112E+03  0.87890115416E+02 0.  0.
         23    2    4    4    0    0 -0.27176493277E+03 -0.32114223509E+02 -0.61912703762E+03  0.68269217131E+03  0.88672487326E+02 0.  0.
          4    1    3    3  502    0  0.53810369496E+00  0.37430970309E+02  0.84233811981E+02  0.92177557869E+02  0.00000000000E+00 0. -1.
         -4    1    3    3    0  502  0.12707052736E+03  0.38455001500E+03  0.40862625562E+03  0.57532690684E+03  0.00000000000E+00 0.  1.
         13    1    5    5    0    0  0.10588343359E+03 -0.25390231067E+03  0.25152878122E+02  0.27624328436E+03  0.00000000000E+00 0. -1.
        -13    1    5    5    0    0  0.38272868134E+02 -0.13596445113E+03  0.76373231273E+02  0.16057401676E+03  0.00000000000E+00 0.  1.
          2    1    6    6  503    0 -0.14931382823E+03 -0.35544962714E+02 -0.24584444361E+03  0.28982331536E+03  0.00000000000E+00 0. -1.
         -2    1    6    6    0  503 -0.12245110455E+03  0.34307392051E+01 -0.37328259402E+03  0.39286885595E+03  0.00000000000E+00 0.  1.
<mgrwt>
<rscale>  0 0.17868427E+04</rscale>
<asrwt>0</asrwt>
<pdfrwt beam="1">  1        3 0.13936575E+00 0.17868427E+04</pdfrwt>
<pdfrwt beam="2">  1       -3 0.13555947E+00 0.17868427E+04</pdfrwt>
<totfact> 0.40368145E-01</totfact>
</mgrwt>
</event>
<event>
12    3  0.4947988E-008  0.2260830E+04  0.7818608E-02  0.8493527E-01
         -2   -1    0    0    0  501 -0.00000000000E+00  0.00000000000E+00  0.40729591636E+03  0.40729591636E+03  0.00000000000E+00 0.  1.
          2   -1    0    0  501    0  0.00000000000E+00 -0.00000000000E+00 -0.31373697360E+04  0.31373697360E+04  0.00000000000E+00 0. -1.
         23    2    1    2    0    0  0.19485566416E+03 -0.69281017555E+03 -0.18418410470E+03  0.74848050401E+03  0.91348843794E+02 0.  0.
        254    2    1    2    0    0 -0.19485566416E+03  0.69281017555E+03 -0.25458897150E+04  0.27961851484E+04  0.90506478994E+03 0.  0.
         23    2    4    4    0    0 -0.40625448605E+02 -0.11178966579E+03 -0.36077725544E+02  0.15447131342E+03  0.91719288792E+02 0.  0.
         23    2    4    4    0    0 -0.15423021555E+03  0.80459984134E+03 -0.25098119894E+04  0.26417138350E+04  0.91257325480E+02 0.  0.
          3    1    3    3  502    0  0.14832849247E+02 -0.11554612860E+03 -0.60537520492E+02  0.13128485305E+03  0.00000000000E+00 0. -1.
         -3    1    3    3    0  502  0.18002281491E+03 -0.57726404694E+03 -0.12364658421E+03  0.61719565096E+03  0.00000000000E+00 0.  1.
         13    1    5    5    0    0  0.59584608046E+01 -0.28739006421E+02 -0.50255498807E+02  0.58198358272E+02  0.00000000000E+00 0. -1.
        -13    1    5    5    0    0 -0.46583909409E+02 -0.83050659371E+02  0.14177773263E+02  0.96272955146E+02  0.00000000000E+00 0.  1.
          3    1    6    6  503    0 -0.53819394529E+02  0.23208164899E+03 -0.60609079253E+03  0.65123303649E+03  0.00000000000E+00 0. -1.
         -3    1    6    6    0  503 -0.10041082102E+03  0.57251819235E+03 -0.19037211969E+04  0.19904807985E+04  0.00000000000E+00 0.  1.
<mgrwt>
<rscale>  0 0.22608298E+04</rscale>
<asrwt>0</asrwt>
<pdfrwt beam="1">  1        2 0.48267227E+00 0.22608298E+04</pdfrwt>
<pdfrwt beam="2">  1       -2 0.62660910E-01 0.22608298E+04</pdfrwt>
<totfact> 0.30628704E+00</totfact>
</mgrwt>
</event>
<event>
12    3  0.4773567E-008  0.1480743E+04  0.7818608E-02  0.8897360E-01
         -1   -1    0    0    0  501 -0.00000000000E+00  0.00000000000E+00  0.41146319097E+03  0.41146319097E+03  0.00000000000E+00 0.  1.
          1   -1    0    0  501    0  0.00000000000E+00 -0.00000000000E+00 -0.13321969105E+04  0.13321969105E+04  0.00000000000E+00 0. -1.
         23    2    1    2    0    0  0.18016444087E+03 -0.34022339640E+03 -0.64960315615E+02  0.40087840313E+03  0.90953099322E+02 0.  0.
        254    2    1    2    0    0 -0.18016444087E+03  0.34022339640E+03 -0.85577340389E+03  0.13427816983E+04  0.96047039793E+03 0.  0.
         23    2    4    4    0    0 -0.54858813936E+03  0.59791596786E+02 -0.40742009725E+03  0.69186936861E+03  0.90377574018E+02 0.  0.
         23    2    4    4    0    0  0.36842369848E+03  0.28043179962E+03 -0.44835330664E+03  0.65091232970E+03  0.91039318655E+02 0.  0.
          4    1    3    3  502    0  0.75470762833E+02 -0.81414234379E+02 -0.48689489447E+02  0.12122202764E+03  0.00000000000E+00 0. -1.
         -4    1    3    3    0  502  0.10469367804E+03 -0.25880916202E+03 -0.16270826168E+02  0.27965637549E+03  0.00000000000E+00 0.  1.
         13    1    5    5    0    0 -0.21636945595E+03  0.64246084326E+02 -0.18753136243E+03  0.29344729120E+03  0.00000000000E+00 0. -1.
        -13    1    5    5    0    0 -0.33221868340E+03 -0.44544875394E+01 -0.21988873482E+03  0.39842207740E+03  0.00000000000E+00 0.  1.
          2    1    6    6  503    0  0.42114315896E+02  0.10139933134E+01 -0.35424109900E+02  0.55040996975E+02  0.00000000000E+00 0. -1.
         -2    1    6    6    0  503  0.32630938259E+03  0.27941780630E+03 -0.41292919674E+03  0.59587133272E+03  0.00000000000E+00 0.  1.
<mgrwt>
<rscale>  0 0.14807430E+04</rscale>
<asrwt>0</asrwt>
<pdfrwt beam="1">  1        1 0.20495337E+00 0.14807430E+04</pdfrwt>
<pdfrwt beam="2">  1       -1 0.63302030E-01 0.14807430E+04</pdfrwt>
<totfact> 0.21038284E+01</totfact>
</mgrwt>
</event>
<event>
12    3  0.4773567E-008  0.1329587E+04  0.7818608E-02  0.9006426E-01
         -2   -1    0    0    0  501 -0.00000000000E+00  0.00000000000E+00  0.22973809867E+03  0.22973809867E+03  0.00000000000E+00 0. -1.
          2   -1    0    0  501    0  0.00000000000E+00 -0.00000000000E+00 -0.19237135459E+04  0.19237135459E+04  0.00000000000E+00 0.  1.
         23    2    1    2    0    0 -0.27911010479E+03  0.50008912270E+02 -0.12634015877E+03  0.32459525429E+03  0.94851997799E+02 0.  0.
        254    2    1    2    0    0  0.27911010479E+03 -0.50008912270E+02 -0.15676352885E+04  0.18288563903E+04  0.89823825167E+03 0.  0.
         23    2    4    4    0    0 -0.18004558108E+03 -0.14039744538E+03 -0.67652936221E+02  0.25488710639E+03  0.90899192992E+02 0.  0.
         23    2    4    4    0    0  0.45915568587E+03  0.90388533107E+02 -0.14999823523E+04  0.15739692839E+04  0.91859778071E+02 0.  0.
          3    1    3    3  502    0 -0.25014774371E+03  0.56288140955E+02 -0.13980946349E+03  0.29204269307E+03  0.00000000000E+00 0. -1.
         -3    1    3    3    0  502 -0.28962361075E+02 -0.62792286845E+01  0.13469304719E+02  0.32552561213E+02  0.00000000000E+00 0.  1.
         13    1    5    5    0    0 -0.40797915106E+02 -0.87853251785E+02 -0.24182111636E+02  0.99837058497E+02  0.00000000000E+00 0. -1.
        -13    1    5    5    0    0 -0.13924766598E+03 -0.52544193592E+02 -0.43470824585E+02  0.15505004789E+03  0.00000000000E+00 0.  1.
          1    1    6    6  503    0  0.19626361929E+03  0.76962398199E+02 -0.58266056823E+03  0.61962565857E+03  0.00000000000E+00 0. -1.
         -1    1    6    6    0  503  0.26289206658E+03  0.13426134907E+02 -0.91732178405E+03  0.95434362536E+03  0.00000000000E+00 0.  1.
<mgrwt>
<rscale>  0 0.13295868E+04</rscale>
<asrwt>0</asrwt>
<pdfrwt beam="1">  1        2 0.29595594E+00 0.13295868E+04</pdfrwt>
<pdfrwt beam="2">  1       -2 0.35344322E-01 0.13295868E+04</pdfrwt>
<totfact> 0.54202068E+01</totfact>
</mgrwt>
</event>
<event>
12    3  0.4773567E-008  0.2984800E+04  0.7818608E-02  0.8248085E-01
         -1   -1    0    0    0  501 -0.00000000000E+00  0.00000000000E+00  0.19354574211E+04  0.19354574211E+04  0.00000000000E+00 0.  1.
          1   -1    0    0  501    0  0.00000000000E+00 -0.00000000000E+00 -0.11507654230E+04  0.11507654230E+04  0.00000000000E+00 0. -1.
         23    2    1    2    0    0  0.10081858354E+04  0.37657503145E+03  0.12014436554E+04  0.16154191621E+04  0.88683590923E+02 0.  0.
        254    2    1    2    0    0 -0.10081858354E+04 -0.37657503145E+03 -0.41675165730E+03  0.14708036820E+04  0.91177524327E+03 0.  0.
         23    2    4    4    0    0 -0.79531934427E+03 -0.30006972768E+03 -0.69330442264E+03  0.11007030434E+04  0.91112383649E+02 0.  0.
         23    2    4    4    0    0 -0.21286649113E+03 -0.76505303777E+02  0.27655276534E+03  0.37010063865E+03  0.96580775310E+02 0.  0.
          2    1    3    3  502    0  0.47205243733E+03  0.20013959034E+03  0.51480515745E+03  0.72657670576E+03  0.00000000000E+00 0. -1.
         -2    1    3    3    0  502  0.53613339807E+03  0.17643544112E+03  0.68663849795E+03  0.88884245639E+03  0.00000000000E+00 0.  1.
         13    1    5    5    0    0 -0.60878323853E+01  0.58383337829E+01 -0.78513086741E+01  0.11523493065E+02  0.00000000000E+00 0.  1.
        -13    1    5    5    0    0 -0.78923151189E+03 -0.30590806146E+03 -0.68545311396E+03  0.10891795503E+04  0.00000000000E+00 0. -1.
          4    1    6    6  503    0 -0.68776082577E+02 -0.62916287067E+02  0.15606131368E+03  0.18177937821E+03  0.00000000000E+00 0. -1.
         -4    1    6    6    0  503 -0.14409040855E+03 -0.13589016710E+02  0.12049145166E+03  0.18832126044E+03  0.00000000000E+00 0.  1.
<mgrwt>
<rscale>  0 0.29847998E+04</rscale>
<asrwt>0</asrwt>
<pdfrwt beam="1">  1        1 0.17704083E+00 0.29847998E+04</pdfrwt>
<pdfrwt beam="2">  1       -1 0.29776268E+00 0.29847998E+04</pdfrwt>
<totfact> 0.33800394E-01</totfact>
</mgrwt>
</event>
<event>
12    3  0.4773567E-008  0.2541564E+04  0.7818608E-02  0.8388326E-01
          1   -1    0    0  501    0  0.00000000000E+00  0.00000000000E+00  0.22715175633E+04  0.22715175633E+04  0.00000000000E+00 0. -1.
         -1   -1    0    0    0  501 -0.00000000000E+00 -0.00000000000E+00 -0.71092857861E+03  0.71092857861E+03  0.00000000000E+00 0.  1.
         23    2    1    2    0    0  0.10976357475E+04  0.15436388569E+03  0.73380020801E+03  0.13330731996E+04  0.99944819633E+02 0.  0.
        254    2    1    2    0    0 -0.10976357475E+04 -0.15436388569E+03  0.82678877671E+03  0.16493729423E+04  0.89900999894E+03 0.  0.
         23    2    4    4    0    0 -0.48536129735E+03  0.31904885005E+03  0.12458303474E+03  0.60081964014E+03  0.89975272971E+02 0.  0.
         23    2    4    4    0    0 -0.61227445012E+03 -0.47341273574E+03  0.70220574196E+03  0.10485533022E+04  0.85857456328E+02 0.  0.
          2    1    3    3  502    0  0.99958978003E+03  0.15014010838E+03  0.69898644077E+03  0.12289441911E+04  0.00000000000E+00 0. -1.
         -2    1    3    3    0  502  0.98045967438E+02  0.42237773068E+01  0.34813767238E+02  0.10412900852E+03  0.00000000000E+00 0.  1.
         13    1    5    5    0    0 -0.10975110460E+03  0.50309944521E+02  0.58867714452E+02  0.13431977994E+03  0.00000000000E+00 0.  1.
        -13    1    5    5    0    0 -0.37561019275E+03  0.26873890553E+03  0.65715320292E+02  0.46649986020E+03  0.00000000000E+00 0. -1.
          3    1    6    6  503    0 -0.51721139879E+03 -0.41848525021E+03  0.56514634036E+03  0.87294210673E+03  0.00000000000E+00 0. -1.
         -3    1    6    6    0  503 -0.95063051332E+02 -0.54927485536E+02  0.13705940160E+03  0.17561119544E+03  0.00000000000E+00 0.  1.
<mgrwt>
<rscale>  0 0.25415639E+04</rscale>
<asrwt>0</asrwt>
<pdfrwt beam="1">  1        1 0.34946424E+00 0.25415639E+04</pdfrwt>
<pdfrwt beam="2">  1       -1 0.10937363E+00 0.25415639E+04</pdfrwt>
<totfact> 0.13326069E+00</totfact>
</mgrwt>
</event>
<event>
12    3  0.4773567E-008  0.1617525E+04  0.7818608E-02  0.8809854E-01
          2   -1    0    0  501    0  0.00000000000E+00  0.00000000000E+00  0.83512326280E+03  0.83512326280E+03  0.00000000000E+00 0. -1.
         -2   -1    0    0    0  501 -0.00000000000E+00 -0.00000000000E+00 -0.78323339677E+03  0.78323339677E+03  0.00000000000E+00 0.  1.
         23    2    1    2    0    0  0.53278990666E+03 -0.35985063657E+02 -0.13539919727E+03  0.55774902347E+03  0.87126466173E+02 0.  0.
        254    2    1    2    0    0 -0.53278990666E+03  0.35985063657E+02  0.18728906331E+03  0.10606076361E+04  0.89702360899E+03 0.  0.
         23    2    4    4    0    0 -0.42951372902E+03 -0.33423837225E+03  0.32815855259E+03  0.64149208198E+03  0.87331109577E+02 0.  0.
         23    2    4    4    0    0 -0.10327617764E+03  0.37022343591E+03 -0.14086948929E+03  0.41911555413E+03  0.89901464576E+02 0.  0.
          2    1    3    3  502    0  0.57779040257E+02 -0.24202545421E+02 -0.36189283537E+02  0.72345317338E+02  0.00000000000E+00 0.  1.
         -2    1    3    3    0  502  0.47501086640E+03 -0.11782518236E+02 -0.99209913735E+02  0.48540370613E+03  0.00000000000E+00 0. -1.
         13    1    5    5    0    0 -0.44639406317E+02 -0.92242388347E+01  0.13475640929E+02  0.47532684301E+02  0.00000000000E+00 0.  1.
        -13    1    5    5    0    0 -0.38487432270E+03 -0.32501413342E+03  0.31468291167E+03  0.59395939768E+03  0.00000000000E+00 0. -1.
          1    1    6    6  503    0 -0.10733210392E+03  0.30925680127E+03 -0.14467071898E+03  0.35789602763E+03  0.00000000000E+00 0. -1.
         -1    1    6    6    0  503  0.40559262805E+01  0.60966634638E+02  0.38012296881E+01  0.61219526495E+02  0.00000000000E+00 0.  1.
<mgrwt>
<rscale>  0 0.16175246E+04</rscale>
<asrwt>0</asrwt>
<pdfrwt beam="1">  1        2 0.12848050E+00 0.16175246E+04</pdfrwt>
<pdfrwt beam="2">  1       -2 0.12049745E+00 0.16175246E+04</pdfrwt>
<totfact> 0.16362499E+01</totfact>
</mgrwt>
</event>
<event>
12    3  0.4773567E-008  0.1455800E+04  0.7818608E-02  0.8914389E-01
         -1   -1    0    0    0  501 -0.00000000000E+00  0.00000000000E+00  0.91672627034E+03  0.91672627034E+03  0.00000000000E+00 0.  1.
          1   -1    0    0  501    0  0.00000000000E+00 -0.00000000000E+00 -0.57796786216E+03  0.57796786216E+03  0.00000000000E+00 0. -1.
         23    2    1    2    0    0  0.19126268354E+03 -0.33063872356E+03 -0.16849479258E+03  0.42673091019E+03  0.88348146283E+02 0.  0.
        254    2    1    2    0    0 -0.19126268354E+03  0.33063872356E+03  0.50725320075E+03  0.10679632223E+04  0.85868286049E+03 0.  0.
         23    2    4    4    0    0 -0.40504750749E+02 -0.24392575770E+03  0.36504162845E+03  0.45016984577E+03  0.90868528280E+02 0.  0.
         23    2    4    4    0    0 -0.15075793279E+03  0.57456448126E+03  0.14221157230E+03  0.61779337654E+03  0.92694268303E+02 0.  0.
          1    1    3    3  502    0  0.42753486264E+02 -0.96918601374E+02 -0.89755593211E+02  0.13884214919E+03  0.00000000000E+00 0. -1.
         -1    1    3    3    0  502  0.14850919727E+03 -0.23372012219E+03 -0.78739199371E+02  0.28788876100E+03  0.00000000000E+00 0.  1.
         13    1    5    5    0    0  0.24135380800E+02 -0.48765882311E+02  0.49469954827E+02  0.73538454665E+02  0.00000000000E+00 0. -1.
        -13    1    5    5    0    0 -0.64640131549E+02 -0.19515987539E+03  0.31557167363E+03  0.37663139110E+03  0.00000000000E+00 0.  1.
          4    1    6    6  503    0 -0.10262981297E+03  0.51231664912E+03  0.12174136620E+03  0.53649062221E+03  0.00000000000E+00 0. -1.
         -4    1    6    6    0  503 -0.48128119823E+02  0.62247832140E+02  0.20470206103E+02  0.81302754331E+02  0.00000000000E+00 0.  1.
<mgrwt>
<rscale>  0 0.14557999E+04</rscale>
<asrwt>0</asrwt>
<pdfrwt beam="1">  1        1 0.88918133E-01 0.14557999E+04</pdfrwt>
<pdfrwt beam="2">  1       -1 0.14103481E+00 0.14557999E+04</pdfrwt>
<totfact> 0.14428837E+01</totfact>
</mgrwt>
</event>
<event>
12    3  0.4773567E-008  0.1455098E+04  0.7818608E-02  0.8914874E-01
         -2   -1    0    0    0  501 -0.00000000000E+00  0.00000000000E+00  0.68529613545E+03  0.68529613545E+03  0.00000000000E+00 0.  1.
          2   -1    0    0  501    0  0.00000000000E+00 -0.00000000000E+00 -0.77240710291E+03  0.77240710291E+03  0.00000000000E+00 0. -1.
         23    2    1    2    0    0  0.16447078747E+03 -0.40381928714E+03  0.21359015318E+03  0.49369254062E+03  0.89391915367E+02 0.  0.
        254    2    1    2    0    0 -0.16447078747E+03  0.40381928714E+03 -0.30070112065E+03  0.96401069774E+03  0.80546558263E+03 0.  0.
         23    2    4    4    0    0  0.47094367720E+01  0.27647770548E+03  0.23961992465E+03  0.37653179127E+03  0.88861584102E+02 0.  0.
         23    2    4    4    0    0 -0.16918022425E+03  0.12734158166E+03 -0.54032104530E+03  0.58747890647E+03  0.91360860634E+02 0.  0.
          3    1    3    3  502    0  0.10137225944E+03 -0.13774852819E+03  0.94906376902E+02  0.19559706639E+03  0.00000000000E+00 0. -1.
         -3    1    3    3    0  502  0.63098528030E+02 -0.26607075894E+03  0.11868377628E+03  0.29809547423E+03  0.00000000000E+00 0.  1.
         13    1    5    5    0    0 -0.17114608260E+02  0.39667804875E+02  0.68169369767E+01  0.43736885911E+02  0.00000000000E+00 0.  1.
        -13    1    5    5    0    0  0.21824045032E+02  0.23680990060E+03  0.23280298768E+03  0.33279490536E+03  0.00000000000E+00 0. -1.
          1    1    6    6  503    0 -0.17857115384E+03  0.12785307496E+03 -0.52888617614E+03  0.57267325157E+03  0.00000000000E+00 0. -1.
         -1    1    6    6    0  503  0.93909295954E+01 -0.51149329923E+00 -0.11434869165E+02  0.14805654895E+02  0.00000000000E+00 0.  1.
<mgrwt>
<rscale>  0 0.14550981E+04</rscale>
<asrwt>0</asrwt>
<pdfrwt beam="1">  1        2 0.11883186E+00 0.14550981E+04</pdfrwt>
<pdfrwt beam="2">  1       -2 0.10543017E+00 0.14550981E+04</pdfrwt>
<totfact> 0.25466291E+01</totfact>
</mgrwt>
</event>
<event>
12    3  0.4773567E-008  0.1489149E+04  0.7818608E-02  0.8891701E-01
          2   -1    0    0  501    0  0.00000000000E+00  0.00000000000E+00  0.32474393536E+04  0.32474393536E+04  0.00000000000E+00 0. -1.
         -2   -1    0    0    0  501 -0.00000000000E+00 -0.00000000000E+00 -0.17071649407E+03  0.17071649407E+03  0.00000000000E+00 0.  1.
         23    2    1    2    0    0  0.44581535914E+03  0.10153134211E+03  0.90617737206E+03  0.10192472239E+04  0.92992074896E+02 0.  0.
        254    2    1    2    0    0 -0.44581535914E+03 -0.10153134211E+03  0.21705454875E+04  0.23989086238E+04  0.91347409596E+03 0.  0.
         23    2    4    4    0    0 -0.65519668364E+03  0.13343286609E+03  0.12213237525E+04  0.13949948290E+04  0.85392274330E+02 0.  0.
         23    2    4    4    0    0  0.20938132450E+03 -0.23496420820E+03  0.94922173503E+03  0.10039137948E+04  0.88160574709E+02 0.  0.
          3    1    3    3  502    0 -0.19932554959E+01  0.85785285453E+01  0.23949168176E+02  0.25517187850E+02  0.00000000000E+00 0. -1.
         -3    1    3    3    0  502  0.44780861464E+03  0.92952813569E+02  0.88222820388E+03  0.99373003608E+03  0.00000000000E+00 0.  1.
         13    1    5    5    0    0 -0.25723898388E+03  0.79435851615E+02  0.42426367604E+03  0.50247548812E+03  0.00000000000E+00 0.  1.
        -13    1    5    5    0    0 -0.39795769975E+03  0.53997014472E+02  0.79706007644E+03  0.89251934087E+03  0.00000000000E+00 0. -1.
          3    1    6    6  503    0  0.17296041903E+03 -0.15325606013E+03  0.58802457352E+03  0.63180347069E+03  0.00000000000E+00 0. -1.
         -3    1    6    6    0  503  0.36420905468E+02 -0.81708148071E+02  0.36119716151E+03  0.37211032410E+03  0.00000000000E+00 0.  1.
<mgrwt>
<rscale>  0 0.14891494E+04</rscale>
<asrwt>0</asrwt>
<pdfrwt beam="1">  1        2 0.49960601E+00 0.14891494E+04</pdfrwt>
<pdfrwt beam="2">  1       -2 0.26264078E-01 0.14891494E+04</pdfrwt>
<totfact> 0.15468943E+01</totfact>
</mgrwt>
</event>
<event>
12    3  0.4773567E-008  0.1413438E+04  0.7818608E-02  0.8944149E-01
         -2   -1    0    0    0  501 -0.00000000000E+00  0.00000000000E+00  0.17570601400E+03  0.17570601400E+03  0.00000000000E+00 0.  1.
          2   -1    0    0  501    0  0.00000000000E+00 -0.00000000000E+00 -0.28425407892E+04  0.28425407892E+04  0.00000000000E+00 0. -1.
         23    2    1    2    0    0 -0.16731270048E+03  0.11932183017E+03 -0.15502081823E+04  0.15665350405E+04  0.93034326303E+02 0.  0.
        254    2    1    2    0    0  0.16731270048E+03 -0.11932183017E+03 -0.11166265930E+04  0.14517117627E+04  0.90464404879E+03 0.  0.
         23    2    4    4    0    0  0.24864811806E+02  0.27381416344E+03 -0.39836659002E+02  0.29305873274E+03  0.93295264988E+02 0.  0.
         23    2    4    4    0    0  0.14244788867E+03 -0.39313599361E+03 -0.10767899340E+04  0.11586530300E+04  0.90293806742E+02 0.  0.
          4    1    3    3  502    0 -0.54686349480E+02  0.95957655276E+02 -0.78380304614E+03  0.79154638750E+03  0.00000000000E+00 0. -1.
         -4    1    3    3    0  502 -0.11262635100E+03  0.23364174897E+02 -0.76640513613E+03  0.77498865301E+03  0.00000000000E+00 0.  1.
         13    1    5    5    0    0 -0.19358673300E+02  0.17659200584E+03  0.37760540070E+01  0.17769004852E+03  0.00000000000E+00 0. -1.
        -13    1    5    5    0    0  0.44223485106E+02  0.97222157597E+02 -0.43612713009E+02  0.11536868422E+03  0.00000000000E+00 0.  1.
          3    1    6    6  503    0  0.15041333147E+03 -0.32408913140E+03 -0.92887256283E+03  0.99521966086E+03  0.00000000000E+00 0. -1.
         -3    1    6    6    0  503 -0.79654427967E+01 -0.69046862210E+02 -0.14791737113E+03  0.16343336912E+03  0.00000000000E+00 0.  1.
<mgrwt>
<rscale>  0 0.14134377E+04</rscale>
<asrwt>0</asrwt>
<pdfrwt beam="1">  1        2 0.43731396E+00 0.14134377E+04</pdfrwt>
<pdfrwt beam="2">  1       -2 0.27031695E-01 0.14134377E+04</pdfrwt>
<totfact> 0.26534750E+01</totfact>
</mgrwt>
</event>
<event>
12    3  0.4773567E-008  0.2162085E+04  0.7818608E-02  0.8534377E-01
         -2   -1    0    0    0  501 -0.00000000000E+00  0.00000000000E+00  0.90196172331E+03  0.90196172331E+03  0.00000000000E+00 0. -1.
          2   -1    0    0  501    0  0.00000000000E+00 -0.00000000000E+00 -0.12956789947E+04  0.12956789947E+04  0.00000000000E+00 0.  1.
         23    2    1    2    0    0  0.58411592680E+03 -0.10583740493E+03  0.50429116068E+03  0.78419884369E+03  0.90913582474E+02 0.  0.
        254    2    1    2    0    0 -0.58411592680E+03  0.10583740493E+03 -0.89800843210E+03  0.14134418744E+04  0.91597260648E+03 0.  0.
         23    2    4    4    0    0 -0.56583154308E+03  0.12329892892E+03 -0.10686248635E+04  0.12187777609E+04  0.89956491774E+02 0.  0.
         23    2    4    4    0    0 -0.18284383718E+02 -0.17461523992E+02  0.17061643142E+03  0.19466411349E+03  0.90249248771E+02 0.  0.
          1    1    3    3  502    0  0.56992306091E+03 -0.11598286387E+03  0.49790757026E+03  0.76562149172E+03  0.00000000000E+00 0. -1.
         -1    1    3    3    0  502  0.14192865892E+02  0.10145458940E+02  0.63835904162E+01  0.18577351963E+02  0.00000000000E+00 0.  1.
         13    1    5    5    0    0 -0.33152823547E+03  0.29842833261E+02 -0.64172056401E+03  0.72291551919E+03  0.00000000000E+00 0. -1.
        -13    1    5    5    0    0 -0.23430330761E+03  0.93456095663E+02 -0.42690429951E+03  0.49586224167E+03  0.00000000000E+00 0.  1.
          1    1    6    6  503    0 -0.29557453108E+02  0.29915748396E+02  0.55207418506E+02  0.69400677910E+02  0.00000000000E+00 0. -1.
         -1    1    6    6    0  503  0.11273069390E+02 -0.47377272389E+02  0.11540901291E+03  0.12526343558E+03  0.00000000000E+00 0.  1.
<mgrwt>
<rscale>  0 0.21620850E+04</rscale>
<asrwt>0</asrwt>
<pdfrwt beam="1">  1        2 0.19933523E+00 0.21620850E+04</pdfrwt>
<pdfrwt beam="2">  1       -2 0.13876334E+00 0.21620850E+04</pdfrwt>
<totfact> 0.56042338E+00</totfact>
</mgrwt>
</event>
<event>
12    3  0.4773567E-008  0.2168900E+04  0.7818608E-02  0.8531485E-01
         -2   -1    0    0    0  501 -0.00000000000E+00  0.00000000000E+00  0.91236741666E+03  0.91236741666E+03  0.00000000000E+00 0.  1.
          2   -1    0    0  501    0  0.00000000000E+00 -0.00000000000E+00 -0.12889895468E+04  0.12889895468E+04  0.00000000000E+00 0. -1.
         23    2    1    2    0    0 -0.69439066804E+01  0.65108090919E+03  0.46271237217E+03  0.80354304508E+03  0.87316194251E+02 0.  0.
        254    2    1    2    0    0  0.69439066804E+01 -0.65108090919E+03 -0.83933450235E+03  0.13978139184E+04  0.90854101479E+03 0.  0.
         23    2    4    4    0    0  0.41656407759E+03 -0.49559502591E+03 -0.61127635329E+03  0.89502870052E+03  0.90980955265E+02 0.  0.
         23    2    4    4    0    0 -0.40962017091E+03 -0.15548588328E+03 -0.22805814906E+03  0.50278521790E+03  0.93903736219E+02 0.  0.
          2    1    3    3  502    0 -0.35531331289E+02  0.21849193222E+03  0.18689845199E+03  0.28971059923E+03  0.00000000000E+00 0. -1.
         -2    1    3    3    0  502  0.28587424609E+02  0.43258897697E+03  0.27581392018E+03  0.51383244585E+03  0.00000000000E+00 0.  1.
         13    1    5    5    0    0  0.18686430444E+03 -0.24394594514E+03 -0.23094282994E+03  0.38439885942E+03  0.00000000000E+00 0.  1.
        -13    1    5    5    0    0  0.22969977315E+03 -0.25164908077E+03 -0.38033352335E+03  0.51062984110E+03  0.00000000000E+00 0. -1.
          2    1    6    6  503    0 -0.19302111925E+03 -0.10236265221E+03 -0.69953966063E+02  0.22940972606E+03  0.00000000000E+00 0. -1.
         -2    1    6    6    0  503 -0.21659905166E+03 -0.53123231070E+02 -0.15810418300E+03  0.27337549184E+03  0.00000000000E+00 0.  1.
<mgrwt>
<rscale>  0 0.21689002E+04</rscale>
<asrwt>0</asrwt>
<pdfrwt beam="1">  1        2 0.19830609E+00 0.21689002E+04</pdfrwt>
<pdfrwt beam="2">  1       -2 0.14036422E+00 0.21689002E+04</pdfrwt>
<totfact> 0.54857801E+00</totfact>
</mgrwt>
</event>
<event>
12    3  0.4773567E-008  0.1365474E+04  0.7818608E-02  0.8979196E-01
         -2   -1    0    0    0  501 -0.00000000000E+00  0.00000000000E+00  0.27827412522E+03  0.27827412522E+03  0.00000000000E+00 0. -1.
          2   -1    0    0  501    0  0.00000000000E+00 -0.00000000000E+00 -0.16750743795E+04  0.16750743795E+04  0.00000000000E+00 0.  1.
         23    2    1    2    0    0 -0.17974301880E+03 -0.22907124087E+03 -0.56401149569E+02  0.30987337834E+03  0.89773240611E+02 0.  0.
        254    2    1    2    0    0  0.17974301880E+03  0.22907124087E+03 -0.13403991048E+04  0.16434751264E+04  0.90529528052E+03 0.  0.
         23    2    4    4    0    0  0.11712291970E+03  0.12301238576E+03 -0.14474949033E+04  0.14601926631E+04  0.89840374111E+02 0.  0.
         23    2    4    4    0    0  0.62620099099E+02  0.10605885511E+03  0.10709579856E+03  0.18328246334E+03  0.83385812587E+02 0.  0.
          2    1    3    3  502    0 -0.55296449913E+02 -0.14215614359E+03 -0.20616645806E+02  0.15391917560E+03  0.00000000000E+00 0. -1.
         -2    1    3    3    0  502 -0.12444656889E+03 -0.86915097285E+02 -0.35784503763E+02  0.15595420274E+03  0.00000000000E+00 0.  1.
         13    1    5    5    0    0  0.85897644061E+02  0.10106414310E+03 -0.74881825770E+03  0.76047429236E+03  0.00000000000E+00 0. -1.
        -13    1    5    5    0    0  0.31225275639E+02  0.21948242658E+02 -0.69867664562E+03  0.69971837072E+03  0.00000000000E+00 0.  1.
          3    1    6    6  503    0 -0.11671401870E+02  0.14584662321E+02  0.47888501890E+02  0.51402749050E+02  0.00000000000E+00 0. -1.
         -3    1    6    6    0  503  0.74291500969E+02  0.91474192786E+02  0.59207296669E+02  0.13187971429E+03  0.00000000000E+00 0.  1.
<mgrwt>
<rscale>  0 0.13654741E+04</rscale>
<asrwt>0</asrwt>
<pdfrwt beam="1">  1        2 0.25770375E+00 0.13654741E+04</pdfrwt>
<pdfrwt beam="2">  1       -2 0.42811405E-01 0.13654741E+04</pdfrwt>
<totfact> 0.51094663E+01</totfact>
</mgrwt>
</event>
<event>
12    3  0.4773567E-008  0.2161603E+04  0.7818608E-02  0.8534582E-01
         -2   -1    0    0    0  501 -0.00000000000E+00  0.00000000000E+00  0.85653683894E+03  0.85653683894E+03  0.00000000000E+00 0.  1.
          2   -1    0    0  501    0  0.00000000000E+00 -0.00000000000E+00 -0.13637853562E+04  0.13637853562E+04  0.00000000000E+00 0. -1.
         23    2    1    2    0    0 -0.64514818365E+03  0.59863064451E+03 -0.27404075077E+03  0.92631848480E+03  0.91612088618E+02 0.  0.
        254    2    1    2    0    0  0.64514818365E+03 -0.59863064451E+03 -0.23320776652E+03  0.12940037104E+04  0.91950253544E+03 0.  0.
         23    2    4    4    0    0 -0.14883426403E+03 -0.40208705131E+03 -0.10510169036E+00  0.43844706650E+03  0.91707055883E+02 0.  0.
         23    2    4    4    0    0  0.79398244768E+03 -0.19654359320E+03 -0.23310266483E+03  0.85555664387E+03  0.92751319509E+02 0.  0.
          3    1    3    3  502    0 -0.62900083839E+03  0.57471102274E+03 -0.24782302842E+03  0.88732804969E+03  0.00000000000E+00 0. -1.
         -3    1    3    3    0  502 -0.16147345261E+02  0.23919621767E+02 -0.26217722348E+02  0.38990435103E+02  0.00000000000E+00 0.  1.
         13    1    5    5    0    0  0.38019109651E+01 -0.98135797814E+02  0.41434194291E+01  0.98296781555E+02  0.00000000000E+00 0. -1.
        -13    1    5    5    0    0 -0.15263617499E+03 -0.30395125349E+03 -0.42485211194E+01  0.34015028494E+03  0.00000000000E+00 0.  1.
          1    1    6    6  503    0  0.14875324868E+03 -0.72685048927E+02 -0.60315837381E+02  0.17620625860E+03  0.00000000000E+00 0. -1.
         -1    1    6    6    0  503  0.64522919899E+03 -0.12385854427E+03 -0.17278682745E+03  0.67935038527E+03  0.00000000000E+00 0.  1.
<mgrwt>
<rscale>  0 0.21616035E+04</rscale>
<asrwt>0</asrwt>
<pdfrwt beam="1">  1        2 0.20981313E+00 0.21616035E+04</pdfrwt>
<pdfrwt beam="2">  1       -2 0.13177490E+00 0.21616035E+04</pdfrwt>
<totfact> 0.58419112E+00</totfact>
</mgrwt>
</event>
<event>
12    3  0.4773567E-008  0.2114865E+04  0.7818608E-02  0.8554723E-01
         -1   -1    0    0    0  501 -0.00000000000E+00  0.00000000000E+00  0.13552436220E+04  0.13552436220E+04  0.00000000000E+00 0.  1.
          1   -1    0    0  501    0  0.00000000000E+00 -0.00000000000E+00 -0.82506473378E+03  0.82506473378E+03  0.00000000000E+00 0. -1.
         23    2    1    2    0    0 -0.12842164118E+03  0.90457196278E+02 -0.65992656200E+03  0.68455427150E+03  0.91852387634E+02 0.  0.
        254    2    1    2    0    0  0.12842164118E+03 -0.90457196278E+02  0.11901054502E+04  0.14957540843E+04  0.89233103483E+03 0.  0.
         23    2    4    4    0    0 -0.23590236491E+03 -0.12503493189E+03  0.39295775392E+02  0.28473551496E+03  0.90810217246E+02 0.  0.
         23    2    4    4    0    0  0.36432400609E+03  0.34577735610E+02  0.11508096748E+04  0.12110185693E+04  0.90969590271E+02 0.  0.
          4    1    3    3  502    0 -0.14122493776E+03  0.72101140810E+02 -0.59952912692E+03  0.62014371849E+03  0.00000000000E+00 0. -1.
         -4    1    3    3    0  502  0.12803296576E+02  0.18356055468E+02 -0.60397435079E+02  0.64410553015E+02  0.00000000000E+00 0.  1.
         13    1    5    5    0    0 -0.70569143688E+02 -0.18600122335E+02  0.48938647637E+02  0.87868992393E+02  0.00000000000E+00 0. -1.
        -13    1    5    5    0    0 -0.16533322122E+03 -0.10643480955E+03 -0.96428722450E+01  0.19686652257E+03  0.00000000000E+00 0.  1.
          3    1    6    6  503    0  0.20552571623E+03  0.29902310997E+02  0.50684731984E+03  0.54774918883E+03  0.00000000000E+00 0. -1.
         -3    1    6    6    0  503  0.15879828986E+03  0.46754246132E+01  0.64396235498E+03  0.66326938049E+03  0.00000000000E+00 0.  1.
<mgrwt>
<rscale>  0 0.21148652E+04</rscale>
<asrwt>0</asrwt>
<pdfrwt beam="1">  1        1 0.12693304E+00 0.21148652E+04</pdfrwt>
<pdfrwt beam="2">  1       -1 0.20849902E+00 0.21148652E+04</pdfrwt>
<totfact> 0.25422171E+00</totfact>
</mgrwt>
</event>
<event>
12    3  0.4773567E-008  0.1357178E+04  0.7818608E-02  0.8985412E-01
         -2   -1    0    0    0  501 -0.00000000000E+00  0.00000000000E+00  0.37659679021E+03  0.37659679021E+03  0.00000000000E+00 0.  1.
          2   -1    0    0  501    0  0.00000000000E+00 -0.00000000000E+00 -0.12227490470E+04  0.12227490470E+04  0.00000000000E+00 0. -1.
         23    2    1    2    0    0 -0.31751671621E+03  0.13888257164E+03 -0.61600702251E+02  0.36330201762E+03  0.89935953370E+02 0.  0.
        254    2    1    2    0    0  0.31751671621E+03 -0.13888257164E+03 -0.78455155451E+03  0.12360438196E+04  0.89004379018E+03 0.  0.
         23    2    4    4    0    0 -0.18035538945E+03  0.15285928181E+03  0.61043677388E+01  0.25203564515E+03  0.87124488976E+02 0.  0.
         23    2    4    4    0    0  0.49787210566E+03 -0.29174185345E+03 -0.79065592225E+03  0.98400817442E+03  0.10072416438E+03 0.  0.
          3    1    3    3  502    0 -0.69176433584E+02 -0.57032629946E+01 -0.61488134400E-02  0.69411138947E+02  0.00000000000E+00 0. -1.
         -3    1    3    3    0  502 -0.24834028262E+03  0.14458583464E+03 -0.61594553438E+02  0.29389087867E+03  0.00000000000E+00 0.  1.
         13    1    5    5    0    0 -0.66490752325E+02  0.98379010087E+02  0.32435621630E+02  0.12309150792E+03  0.00000000000E+00 0. -1.
        -13    1    5    5    0    0 -0.11386463713E+03  0.54480271727E+02 -0.26331253891E+02  0.12894413723E+03  0.00000000000E+00 0.  1.
          2    1    6    6  503    0  0.41083446483E+03 -0.27550985111E+03 -0.63498413306E+03  0.80491955175E+03  0.00000000000E+00 0. -1.
         -2    1    6    6    0  503  0.87037640833E+02 -0.16232002346E+02 -0.15567178919E+03  0.17908862267E+03  0.00000000000E+00 0.  1.
<mgrwt>
<rscale>  0 0.13571785E+04</rscale>
<asrwt>0</asrwt>
<pdfrwt beam="1">  1        2 0.18811524E+00 0.13571785E+04</pdfrwt>
<pdfrwt beam="2">  1       -2 0.57937967E-01 0.13571785E+04</pdfrwt>
<totfact> 0.49969611E+01</totfact>
</mgrwt>
</event>
<event>
12    3  0.4773567E-008  0.1350162E+04  0.7818608E-02  0.8990706E-01
         -2   -1    0    0    0  501 -0.00000000000E+00  0.00000000000E+00  0.35756210175E+03  0.35756210175E+03  0.00000000000E+00 0.  1.
          2   -1    0    0  501    0  0.00000000000E+00 -0.00000000000E+00 -0.12745594680E+04  0.12745594680E+04  0.00000000000E+00 0. -1.
         23    2    1    2    0    0  0.18831834441E+02  0.27046565674E+02  0.18534348896E+03  0.20994583458E+03  0.92945628483E+02 0.  0.
        254    2    1    2    0    0 -0.18831834441E+02 -0.27046565674E+02 -0.11023408553E+04  0.14221757352E+04  0.89796564854E+03 0.  0.
         23    2    4    4    0    0 -0.44271335230E+03 -0.33042084344E+02 -0.68181150972E+03  0.81827422118E+03  0.87286165158E+02 0.  0.
         23    2    4    4    0    0  0.42388151786E+03  0.59955186703E+01 -0.42052934553E+03  0.60390151402E+03  0.90225388660E+02 0.  0.
          4    1    3    3  502    0 -0.11801640192E+02 -0.11390053762E+02 -0.17586466179E+01  0.16495601652E+02  0.00000000000E+00 0. -1.
         -4    1    3    3    0  502  0.30633474633E+02  0.38436619436E+02  0.18710213558E+03  0.19345023293E+03  0.00000000000E+00 0.  1.
         13    1    5    5    0    0 -0.41062108249E+01 -0.12142815978E+02 -0.13500889363E+02  0.18616738727E+02  0.00000000000E+00 0. -1.
        -13    1    5    5    0    0 -0.43860714147E+03 -0.20899268366E+02 -0.66831062036E+03  0.79965748246E+03  0.00000000000E+00 0.  1.
          3    1    6    6  503    0  0.14751473359E+03  0.10276566098E+02 -0.20815873870E+03  0.25533559277E+03  0.00000000000E+00 0. -1.
         -3    1    6    6    0  503  0.27636678427E+03 -0.42810474276E+01 -0.21237060683E+03  0.34856592125E+03  0.00000000000E+00 0.  1.
<mgrwt>
<rscale>  0 0.13501617E+04</rscale>
<asrwt>0</asrwt>
<pdfrwt beam="1">  1        2 0.19608607E+00 0.13501617E+04</pdfrwt>
<pdfrwt beam="2">  1       -2 0.55009555E-01 0.13501617E+04</pdfrwt>
<totfact> 0.51927545E+01</totfact>
</mgrwt>
</event>
<event>
12    3  0.4773567E-008  0.2098682E+04  0.7818608E-02  0.8561824E-01
          4   -1    0    0  501    0  0.00000000000E+00  0.00000000000E+00  0.60186320799E+03  0.60186320799E+03  0.00000000000E+00 0. -1.
         -4   -1    0    0    0  501 -0.00000000000E+00 -0.00000000000E+00 -0.18295124708E+04  0.18295124708E+04  0.00000000000E+00 0.  1.
         23    2    1    2    0    0  0.51664324214E+03  0.26935138058E+03  0.17934441570E+03  0.61620984759E+03  0.89887434934E+02 0.  0.
        254    2    1    2    0    0 -0.51664324214E+03 -0.26935138058E+03 -0.14069936785E+04  0.18151658312E+04  0.98778812381E+03 0.  0.
         23    2    4    4    0    0 -0.72033354217E+03 -0.34543365174E+02 -0.12688586130E+04  0.14623752311E+04  0.92008046693E+02 0.  0.
         23    2    4    4    0    0  0.20369030003E+03 -0.23480801540E+03 -0.13813506551E+03  0.35279060012E+03  0.93570127632E+02 0.  0.
          3    1    3    3  502    0  0.59397231649E+02  0.14407826129E+02 -0.46609352166E+01  0.61297152449E+02  0.00000000000E+00 0. -1.
         -3    1    3    3    0  502  0.45724601049E+03  0.25494355445E+03  0.18400535092E+03  0.55491269514E+03  0.00000000000E+00 0.  1.
         13    1    5    5    0    0 -0.59774069951E+03 -0.59078955112E+02 -0.10821638560E+04  0.12376844825E+04  0.00000000000E+00 0.  1.
        -13    1    5    5    0    0 -0.12259284266E+03  0.24535589938E+02 -0.18669475699E+03  0.22469074866E+03  0.00000000000E+00 0. -1.
          3    1    6    6  503    0  0.72348407899E+02 -0.39732560287E+02 -0.69239282448E+02  0.10773600469E+03  0.00000000000E+00 0. -1.
         -3    1    6    6    0  503  0.13134189213E+03 -0.19507545512E+03 -0.68895783059E+02  0.24505459543E+03  0.00000000000E+00 0.  1.
<mgrwt>
<rscale>  0 0.20986817E+04</rscale>
<asrwt>0</asrwt>
<pdfrwt beam="1">  1        4 0.92594340E-01 0.20986817E+04</pdfrwt>
<pdfrwt beam="2">  1       -4 0.28146346E+00 0.20986817E+04</pdfrwt>
<totfact> 0.73589108E-02</totfact>
</mgrwt>
</event>
<event>
12    3  0.4773567E-008  0.1245204E+04  0.7818608E-02  0.9074184E-01
         -1   -1    0    0    0  501 -0.00000000000E+00  0.00000000000E+00  0.45019149689E+03  0.45019149689E+03  0.00000000000E+00 0.  1.
          1   -1    0    0  501    0  0.00000000000E+00 -0.00000000000E+00 -0.86104144422E+03  0.86104144422E+03  0.00000000000E+00 0. -1.
         23    2    1    2    0    0  0.40817907451E+02 -0.30446735701E+02  0.19901142452E+03  0.22495442881E+03  0.91683382715E+02 0.  0.
        254    2    1    2    0    0 -0.40817907451E+02  0.30446735701E+02 -0.60986137185E+03  0.10862785123E+04  0.89748370912E+03 0.  0.
         23    2    4    4    0    0  0.77223024425E+02  0.30642709951E+03  0.70719326873E+02  0.33686424738E+03  0.92818829729E+02 0.  0.
         23    2    4    4    0    0 -0.11804093188E+03 -0.27598036381E+03 -0.68058069872E+03  0.74941426493E+03  0.91284337115E+02 0.  0.
          3    1    3    3  502    0 -0.24659079356E+02 -0.29893747139E+02  0.62261577423E+02  0.73336282534E+02  0.00000000000E+00 0. -1.
         -3    1    3    3    0  502  0.65476986807E+02 -0.55298856216E+00  0.13674984710E+03  0.15161814627E+03  0.00000000000E+00 0.  1.
         13    1    5    5    0    0  0.19232822933E+02  0.11406807206E+03 -0.18298760733E+02  0.11711648554E+03  0.00000000000E+00 0. -1.
        -13    1    5    5    0    0  0.57990201492E+02  0.19235902745E+03  0.89018087606E+02  0.21974776184E+03  0.00000000000E+00 0.  1.
          2    1    6    6  503    0 -0.62176710503E+02 -0.13148745133E+03 -0.43864880538E+03  0.46213382006E+03  0.00000000000E+00 0. -1.
         -2    1    6    6    0  503 -0.55864221373E+02 -0.14449291248E+03 -0.24193189334E+03  0.28728044487E+03  0.00000000000E+00 0.  1.
<mgrwt>
<rscale>  0 0.12452045E+04</rscale>
<asrwt>0</asrwt>
<pdfrwt beam="1">  1        1 0.13246791E+00 0.12452045E+04</pdfrwt>
<pdfrwt beam="2">  1       -1 0.69260231E-01 0.12452045E+04</pdfrwt>
<totfact> 0.40791616E+01</totfact>
</mgrwt>
</event>
<event>
12    3  0.4773567E-008  0.3171391E+04  0.7818608E-02  0.8196414E-01
         -1   -1    0    0    0  501 -0.00000000000E+00  0.00000000000E+00  0.75254700231E+03  0.75254700231E+03  0.00000000000E+00 0.  1.
          1   -1    0    0  501    0  0.00000000000E+00 -0.00000000000E+00 -0.33412257689E+04  0.33412257689E+04  0.00000000000E+00 0. -1.
         23    2    1    2    0    0 -0.63835885353E+03 -0.12341883484E+04 -0.62539391232E+03  0.15265380675E+04  0.92076168021E+02 0.  0.
        254    2    1    2    0    0  0.63835885353E+03  0.12341883484E+04 -0.19632848542E+04  0.25672347037E+04  0.89748743693E+03 0.  0.
         23    2    4    4    0    0  0.55872454680E+03  0.46617568042E+03 -0.43558122953E+03  0.85301155693E+03  0.91677830034E+02 0.  0.
         23    2    4    4    0    0  0.79634306730E+02  0.76801266802E+03 -0.15277036247E+04  0.17142231467E+04  0.92182160803E+02 0.  0.
          1    1    3    3  502    0 -0.47587170094E+03 -0.88244768759E+03 -0.40944870558E+03  0.10829663151E+04  0.00000000000E+00 0. -1.
         -1    1    3    3    0  502 -0.16248715259E+03 -0.35174066085E+03 -0.21594520675E+03  0.44357175245E+03  0.00000000000E+00 0.  1.
         13    1    5    5    0    0  0.55217532251E+03  0.45552631331E+03 -0.43941738603E+03  0.83993419269E+03  0.00000000000E+00 0. -1.
        -13    1    5    5    0    0  0.65492242968E+01  0.10649367105E+02  0.38361565032E+01  0.13077364235E+02  0.00000000000E+00 0.  1.
          4    1    6    6  503    0  0.71715438471E+02  0.75482888505E+03 -0.15154851124E+04  0.16945810325E+04  0.00000000000E+00 0. -1.
         -4    1    6    6    0  503  0.79188682594E+01  0.13183782974E+02 -0.12218512307E+02  0.19642114219E+02  0.00000000000E+00 0.  1.
<mgrwt>
<rscale>  0 0.31713905E+04</rscale>
<asrwt>0</asrwt>
<pdfrwt beam="1">  1        1 0.51403473E+00 0.31713905E+04</pdfrwt>
<pdfrwt beam="2">  1       -1 0.11577646E+00 0.31713905E+04</pdfrwt>
<totfact> 0.18791323E-01</totfact>
</mgrwt>
</event>
<event>
12    3  0.4773567E-008  0.2114502E+04  0.7818608E-02  0.8554882E-01
          2   -1    0    0  501    0  0.00000000000E+00  0.00000000000E+00  0.86240593083E+03  0.86240593083E+03  0.00000000000E+00 0. -1.
         -2   -1    0    0    0  501 -0.00000000000E+00 -0.00000000000E+00 -0.12961172138E+04  0.12961172138E+04  0.00000000000E+00 0.  1.
         23    2    1    2    0    0 -0.60473467538E+03  0.25020970051E+03 -0.75181680025E+03  0.10010271636E+04  0.92292791348E+02 0.  0.
        254    2    1    2    0    0  0.60473467538E+03 -0.25020970051E+03  0.31810551723E+03  0.11574959811E+04  0.90016493170E+03 0.  0.
         23    2    4    4    0    0  0.66209680205E+03 -0.36852713370E+03  0.50183658081E+03  0.91350524726E+03  0.92018799072E+02 0.  0.
         23    2    4    4    0    0 -0.57362126666E+02  0.11831743320E+03 -0.18373106359E+03  0.24399073380E+03  0.92113765952E+02 0.  0.
          3    1    3    3  502    0 -0.12669099784E+03  0.67255215136E+02 -0.22230029372E+03  0.26455867683E+03  0.00000000000E+00 0. -1.
         -3    1    3    3    0  502 -0.47804367754E+03  0.18295448537E+03 -0.52951650653E+03  0.73646848679E+03  0.00000000000E+00 0.  1.
         13    1    5    5    0    0  0.62283416862E+03 -0.34832529501E+03  0.44299509928E+03  0.83993902799E+03  0.00000000000E+00 0. -1.
        -13    1    5    5    0    0  0.39262633425E+02 -0.20201838690E+02  0.58841481534E+02  0.73566219279E+02  0.00000000000E+00 0.  1.
          3    1    6    6  503    0 -0.26726484486E+02  0.10159369873E+03 -0.73091577890E+02  0.12797641717E+03  0.00000000000E+00 0. -1.
         -3    1    6    6    0  503 -0.30635642180E+02  0.16723734471E+02 -0.11063948570E+03  0.11601431663E+03  0.00000000000E+00 0.  1.
<mgrwt>
<rscale>  0 0.21145015E+04</rscale>
<asrwt>0</asrwt>
<pdfrwt beam="1">  1        2 0.13267784E+00 0.21145015E+04</pdfrwt>
<pdfrwt beam="2">  1       -2 0.19940265E+00 0.21145015E+04</pdfrwt>
<totfact> 0.38420214E+00</totfact>
</mgrwt>
</event>
<event>
12    3  0.4773567E-008  0.1781027E+04  0.7818608E-02  0.8716455E-01
          2   -1    0    0  501    0  0.00000000000E+00  0.00000000000E+00  0.82183113331E+03  0.82183113331E+03  0.00000000000E+00 0. -1.
         -2   -1    0    0    0  501 -0.00000000000E+00 -0.00000000000E+00 -0.96493600701E+03  0.96493600701E+03  0.00000000000E+00 0.  1.
         23    2    1    2    0    0  0.58436606406E+03 -0.33743868233E+03  0.51214788714E+02  0.68336039955E+03  0.94920598004E+02 0.  0.
        254    2    1    2    0    0 -0.58436606406E+03  0.33743868233E+03 -0.19431966241E+03  0.11034067408E+04  0.85111558745E+03 0.  0.
         23    2    4    4    0    0 -0.37397854104E+03  0.13839229245E+03 -0.51802772544E+03  0.66005497450E+03  0.91145319515E+02 0.  0.
         23    2    4    4    0    0 -0.21038752302E+03  0.19904638989E+03  0.32370806302E+03  0.44335176627E+03  0.88834134326E+02 0.  0.
          4    1    3    3  502    0  0.57600404630E+03 -0.33629727464E+03  0.61771393469E+02  0.66984492485E+03  0.00000000000E+00 0. -1.
         -4    1    3    3    0  502  0.83620177565E+01 -0.11414076946E+01 -0.10556604755E+02  0.13515474703E+02  0.00000000000E+00 0.  1.
         13    1    5    5    0    0 -0.19590002672E+02 -0.13130569026E+02 -0.27720467591E+02  0.36395114660E+02  0.00000000000E+00 0.  1.
        -13    1    5    5    0    0 -0.35438853837E+03  0.15152286147E+03 -0.49030725784E+03  0.62365985984E+03  0.00000000000E+00 0. -1.
          2    1    6    6  503    0 -0.20744513417E+03  0.16391813665E+03  0.30428768231E+03  0.40310498983E+03  0.00000000000E+00 0. -1.
         -2    1    6    6    0  503 -0.29423888491E+01  0.35128253233E+02  0.19420380706E+02  0.40246776444E+02  0.00000000000E+00 0.  1.
<mgrwt>
<rscale>  0 0.17810272E+04</rscale>
<asrwt>0</asrwt>
<pdfrwt beam="1">  1        2 0.12643556E+00 0.17810272E+04</pdfrwt>
<pdfrwt beam="2">  1       -2 0.14845169E+00 0.17810272E+04</pdfrwt>
<totfact> 0.96712744E+00</totfact>
</mgrwt>
</event>
<event>
12    3  0.4773567E-008  0.2000538E+04  0.7818608E-02  0.8606369E-01
         -1   -1    0    0    0  501 -0.00000000000E+00  0.00000000000E+00  0.24905190622E+04  0.24905190622E+04  0.00000000000E+00 0.  1.
          1   -1    0    0  501    0  0.00000000000E+00 -0.00000000000E+00 -0.40173871126E+03  0.40173871126E+03  0.00000000000E+00 0. -1.
         23    2    1    2    0    0  0.22202506950E+03  0.33742526879E+03  0.18148938220E+04  0.18620941576E+04  0.10200060259E+03 0.  0.
        254    2    1    2    0    0 -0.22202506950E+03 -0.33742526879E+03  0.27388652885E+03  0.10301636158E+04  0.90723332236E+03 0.  0.
         23    2    4    4    0    0  0.21512420727E+03 -0.35057185198E+03 -0.11569628926E+03  0.43757031526E+03  0.94356247772E+02 0.  0.
         23    2    4    4    0    0 -0.43714927677E+03  0.13146583193E+02  0.38958281811E+03  0.59259330057E+03  0.90109516104E+02 0.  0.
          1    1    3    3  502    0  0.11959658362E+03  0.11263669368E+03  0.58460275469E+03  0.60724850628E+03  0.00000000000E+00 0. -1.
         -1    1    3    3    0  502  0.10242848587E+03  0.22478857511E+03  0.12302910674E+04  0.12548456513E+04  0.00000000000E+00 0.  1.
         13    1    5    5    0    0  0.12070586117E+03 -0.14090212583E+03 -0.89935104468E+02  0.20618350322E+03  0.00000000000E+00 0. -1.
        -13    1    5    5    0    0  0.94418346100E+02 -0.20966972615E+03 -0.25761184791E+02  0.23138681204E+03  0.00000000000E+00 0.  1.
          2    1    6    6  503    0 -0.14824598948E+03 -0.24025071701E+02  0.17617075521E+03  0.23149559922E+03  0.00000000000E+00 0. -1.
         -2    1    6    6    0  503 -0.28890328728E+03  0.37171654894E+02  0.21341206290E+03  0.36109770135E+03  0.00000000000E+00 0.  1.
<mgrwt>
<rscale>  0 0.20005378E+04</rscale>
<asrwt>0</asrwt>
<pdfrwt beam="1">  1        1 0.61805957E-01 0.20005378E+04</pdfrwt>
<pdfrwt beam="2">  1       -1 0.38315677E+00 0.20005378E+04</pdfrwt>
<totfact> 0.51634765E-01</totfact>
</mgrwt>
</event>
<event>
12    3  0.4773567E-008  0.1418943E+04  0.7818608E-02  0.8940219E-01
          1   -1    0    0  501    0  0.00000000000E+00  0.00000000000E+00  0.14864732211E+04  0.14864732211E+04  0.00000000000E+00 0. -1.
         -1   -1    0    0    0  501 -0.00000000000E+00 -0.00000000000E+00 -0.33862036463E+03  0.33862036463E+03  0.00000000000E+00 0.  1.
         23    2    1    2    0    0 -0.19609375343E+03  0.12994943927E+03 -0.69907211619E+02  0.26266710911E+03  0.93634262274E+02 0.  0.
        254    2    1    2    0    0  0.19609375343E+03 -0.12994943927E+03  0.12177600681E+04  0.15624264766E+04  0.95020907936E+03 0.  0.
         23    2    4    4    0    0  0.49701535090E+03  0.15147687857E+03  0.86973854638E+03  0.10171491862E+04  0.90431322423E+02 0.  0.
         23    2    4    4    0    0 -0.30092159747E+03 -0.28142631784E+03  0.34802152170E+03  0.54527729045E+03  0.80335320452E+02 0.  0.
          1    1    3    3  502    0 -0.42806624707E+02 -0.63087278932E+01 -0.32677933961E+02  0.54222269727E+02  0.00000000000E+00 0. -1.
         -1    1    3    3    0  502 -0.15328712873E+03  0.13625816716E+03 -0.37229277658E+02  0.20844483939E+03  0.00000000000E+00 0.  1.
         13    1    5    5    0    0  0.39704898166E+03  0.14321223292E+03  0.75304393470E+03  0.86326867491E+03  0.00000000000E+00 0. -1.
        -13    1    5    5    0    0  0.99966369245E+02  0.82646456545E+01  0.11669461168E+03  0.15388051125E+03  0.00000000000E+00 0.  1.
          1    1    6    6  503    0 -0.18276716215E+03 -0.22181796711E+03  0.24065826260E+03  0.37486456948E+03  0.00000000000E+00 0. -1.
         -1    1    6    6    0  503 -0.11815443532E+03 -0.59608350729E+02  0.10736325910E+03  0.17041272096E+03  0.00000000000E+00 0.  1.
<mgrwt>
<rscale>  0 0.14189434E+04</rscale>
<asrwt>0</asrwt>
<pdfrwt beam="1">  1        1 0.22868818E+00 0.14189434E+04</pdfrwt>
<pdfrwt beam="2">  1       -1 0.52095441E-01 0.14189434E+04</pdfrwt>
<totfact> 0.24147155E+01</totfact>
</mgrwt>
</event>
<event>
12    3  0.4773567E-008  0.3612453E+04  0.7818608E-02  0.8087645E-01
         -2   -1    0    0    0  501 -0.00000000000E+00  0.00000000000E+00  0.23337597856E+04  0.23337597856E+04  0.00000000000E+00 0.  1.
          2   -1    0    0  501    0  0.00000000000E+00 -0.00000000000E+00 -0.13979394571E+04  0.13979394571E+04  0.00000000000E+00 0. -1.
         23    2    1    2    0    0  0.14272919191E+04 -0.67931583299E+03 -0.19488894538E+03  0.15953459059E+04  0.92274780966E+02 0.  0.
        254    2    1    2    0    0 -0.14272919191E+04  0.67931583299E+03  0.11307092738E+04  0.21363533368E+04  0.88705687221E+03 0.  0.
         23    2    4    4    0    0 -0.88066953633E+03  0.78852793624E+03  0.49082371854E+03  0.12832021739E+04  0.91349647374E+02 0.  0.
         23    2    4    4    0    0 -0.54662238274E+03 -0.10921210325E+03  0.63988555530E+03  0.85315116286E+03  0.87693044201E+02 0.  0.
          1    1    3    3  502    0  0.13931694299E+04 -0.65818832745E+03 -0.20378006082E+03  0.15542391219E+04  0.00000000000E+00 0. -1.
         -1    1    3    3    0  502  0.34122489156E+02 -0.21127505538E+02  0.88911154349E+01  0.41106783991E+02  0.00000000000E+00 0.  1.
         13    1    5    5    0    0 -0.18811116345E+03  0.19873585538E+03  0.14781059886E+03  0.31101402406E+03  0.00000000000E+00 0.  1.
        -13    1    5    5    0    0 -0.69255837289E+03  0.58979208086E+03  0.34301311968E+03  0.97218814989E+03  0.00000000000E+00 0. -1.
          4    1    6    6  503    0 -0.24003055500E+03 -0.47253799482E+01  0.25875642843E+03  0.35297575810E+03  0.00000000000E+00 0.  1.
         -4    1    6    6    0  503 -0.30659182774E+03 -0.10448672331E+03  0.38112912687E+03  0.50017540477E+03  0.00000000000E+00 0. -1.
<mgrwt>
<rscale>  0 0.36124534E+04</rscale>
<asrwt>0</asrwt>
<pdfrwt beam="1">  1        2 0.21506761E+00 0.36124534E+04</pdfrwt>
<pdfrwt beam="2">  1       -2 0.35903997E+00 0.36124534E+04</pdfrwt>
<totfact> 0.16104087E-01</totfact>
</mgrwt>
</event>
<event>
12    3  0.4773567E-008  0.2306021E+04  0.7818608E-02  0.8475551E-01
          2   -1    0    0  501    0  0.00000000000E+00  0.00000000000E+00  0.11064776212E+04  0.11064776212E+04  0.00000000000E+00 0.  1.
         -2   -1    0    0    0  501 -0.00000000000E+00 -0.00000000000E+00 -0.12014999191E+04  0.12014999191E+04  0.00000000000E+00 0. -1.
         23    2    1    2    0    0  0.80282155732E+03 -0.35059082079E+03  0.41306161127E+03  0.97293020556E+03  0.92395420139E+02 0.  0.
        254    2    1    2    0    0 -0.80282155732E+03  0.35059082079E+03 -0.50808390922E+03  0.13350473347E+04  0.86992284176E+03 0.  0.
         23    2    4    4    0    0 -0.97112079628E+03  0.35790678444E+03 -0.46803027396E+03  0.11396734128E+04  0.92899317905E+02 0.  0.
         23    2    4    4    0    0  0.16829923896E+03 -0.73159636462E+01 -0.40053635255E+02  0.19537392188E+03  0.90490433178E+02 0.  0.
          1    1    3    3  502    0  0.10836302260E+03 -0.58386256350E+02  0.93293656835E+02  0.15445130626E+03  0.00000000000E+00 0. -1.
         -1    1    3    3    0  502  0.69445853471E+03 -0.29220456444E+03  0.31976795443E+03  0.81847889930E+03  0.00000000000E+00 0.  1.
         13    1    5    5    0    0 -0.45517011387E+03  0.20181260054E+03 -0.18785509539E+03  0.53216322229E+03  0.00000000000E+00 0. -1.
        -13    1    5    5    0    0 -0.51595068241E+03  0.15609418390E+03 -0.28017517858E+03  0.60751019055E+03  0.00000000000E+00 0.  1.
          1    1    6    6  503    0  0.42521481016E+02  0.21514800587E+02 -0.45950120366E+02  0.66199520797E+02  0.00000000000E+00 0. -1.
         -1    1    6    6    0  503  0.12577775794E+03 -0.28830764233E+02  0.58964851106E+01  0.12917440109E+03  0.00000000000E+00 0.  1.
<mgrwt>
<rscale>  0 0.23060206E+04</rscale>
<asrwt>0</asrwt>
<pdfrwt beam="1">  1        2 0.17022733E+00 0.23060206E+04</pdfrwt>
<pdfrwt beam="2">  1       -2 0.18484614E+00 0.23060206E+04</pdfrwt>
<totfact> 0.32851003E+00</totfact>
</mgrwt>
</event>
<event>
12    3  0.4773567E-008  0.1206321E+04  0.7818608E-02  0.9107342E-01
         -1   -1    0    0    0  501 -0.00000000000E+00  0.00000000000E+00  0.20903479865E+03  0.20903479865E+03  0.00000000000E+00 0.  1.
          1   -1    0    0  501    0  0.00000000000E+00 -0.00000000000E+00 -0.17403914336E+04  0.17403914336E+04  0.00000000000E+00 0. -1.
         23    2    1    2    0    0  0.16881790529E+03  0.89811667875E+02 -0.47600827620E+02  0.21394519467E+03  0.83313184433E+02 0.  0.
        254    2    1    2    0    0 -0.16881790529E+03 -0.89811667875E+02 -0.14837558073E+04  0.17354810376E+04  0.87965761246E+03 0.  0.
         23    2    4    4    0    0  0.26637446742E+02 -0.47222783190E+02 -0.15108395017E+04  0.15145709208E+04  0.91375759151E+02 0.  0.
         23    2    4    4    0    0 -0.19545535203E+03 -0.42588884684E+02  0.27083694365E+02  0.22091011680E+03  0.89728175431E+02 0.  0.
          2    1    3    3  502    0  0.13225629113E+02 -0.13808446468E+02 -0.14734952739E+02  0.24139372227E+02  0.00000000000E+00 0. -1.
         -2    1    3    3    0  502  0.15559227618E+03  0.10362011434E+03 -0.32865874881E+02  0.18980582245E+03  0.00000000000E+00 0.  1.
         13    1    5    5    0    0 -0.70227392309E+01  0.88819619372E+01 -0.92824590565E+03  0.92831496243E+03  0.00000000000E+00 0. -1.
        -13    1    5    5    0    0  0.33660185973E+02 -0.56104745128E+02 -0.58259359603E+03  0.58625595834E+03  0.00000000000E+00 0.  1.
          2    1    6    6  503    0 -0.43771533273E+02 -0.32720899795E+02  0.40927724592E+02  0.68276519014E+02  0.00000000000E+00 0. -1.
         -2    1    6    6    0  503 -0.15168381876E+03 -0.98679848891E+01 -0.13844030227E+02  0.15263359778E+03  0.00000000000E+00 0.  1.
<mgrwt>
<rscale>  0 0.12063206E+04</rscale>
<asrwt>0</asrwt>
<pdfrwt beam="1">  1        1 0.26775252E+00 0.12063206E+04</pdfrwt>
<pdfrwt beam="2">  1       -1 0.32159201E-01 0.12063206E+04</pdfrwt>
<totfact> 0.39956500E+01</totfact>
</mgrwt>
</event>
<event>
12    3  0.4773567E-008  0.1845865E+04  0.7818608E-02  0.8682282E-01
         -3   -1    0    0    0  501 -0.00000000000E+00  0.00000000000E+00  0.40558780823E+03  0.40558780823E+03  0.00000000000E+00 0.  1.
          3   -1    0    0  501    0  0.00000000000E+00 -0.00000000000E+00 -0.21001732902E+04  0.21001732902E+04  0.00000000000E+00 0. -1.
         23    2    1    2    0    0 -0.48478166743E+03 -0.47911744965E+03 -0.45987674205E+03  0.82732673035E+03  0.91739333107E+02 0.  0.
        254    2    1    2    0    0  0.48478166743E+03  0.47911744965E+03 -0.12347087399E+04  0.16784343681E+04  0.90998321957E+03 0.  0.
         23    2    4    4    0    0  0.75828051907E+02  0.50581520723E+03 -0.11335306446E+04  0.12468907857E+04  0.90807444699E+02 0.  0.
         23    2    4    4    0    0  0.40895361553E+03 -0.26697757583E+02 -0.10117809534E+03  0.43154358236E+03  0.89649465064E+02 0.  0.
          2    1    3    3  502    0 -0.33693759673E+02 -0.59692503577E+02 -0.23503143573E+02  0.72462833107E+02  0.00000000000E+00 0. -1.
         -2    1    3    3    0  502 -0.45108790776E+03 -0.41942494607E+03 -0.43637359848E+03  0.75486389724E+03  0.00000000000E+00 0.  1.
         13    1    5    5    0    0  0.90376825742E+02  0.47097213603E+03 -0.10765624616E+04  0.11785454837E+04  0.00000000000E+00 0. -1.
        -13    1    5    5    0    0 -0.14548773835E+02  0.34843071204E+02 -0.56968183039E+02  0.68345302032E+02  0.00000000000E+00 0.  1.
          1    1    6    6  503    0  0.24767322164E+03 -0.17308923993E+01 -0.10322591823E+03  0.26832929564E+03  0.00000000000E+00 0. -1.
         -1    1    6    6    0  503  0.16128039389E+03 -0.24966865184E+02  0.20478228895E+01  0.16321428672E+03  0.00000000000E+00 0.  1.
<mgrwt>
<rscale>  0 0.18458653E+04</rscale>
<asrwt>0</asrwt>
<pdfrwt beam="1">  1        3 0.32310358E+00 0.18458653E+04</pdfrwt>
<pdfrwt beam="2">  1       -3 0.62398125E-01 0.18458653E+04</pdfrwt>
<totfact> 0.17802231E-01</totfact>
</mgrwt>
</event>
<event>
12    3  0.4773567E-008  0.1372537E+04  0.7818608E-02  0.8973941E-01
          2   -1    0    0  501    0  0.00000000000E+00  0.00000000000E+00  0.27996489193E+04  0.27996489193E+04  0.00000000000E+00 0. -1.
         -2   -1    0    0    0  501 -0.00000000000E+00 -0.00000000000E+00 -0.16822258304E+03  0.16822258304E+03  0.00000000000E+00 0.  1.
         23    2    1    2    0    0 -0.28637596516E+03  0.25067760813E+03  0.91050513184E+03  0.99101907925E+03  0.90822704640E+02 0.  0.
        254    2    1    2    0    0  0.28637596516E+03 -0.25067760813E+03  0.17209212044E+04  0.19768524231E+04  0.89527942801E+03 0.  0.
         23    2    4    4    0    0  0.43404971231E+03 -0.41051395279E+03  0.16030612490E+04  0.17130931821E+04  0.89230177176E+02 0.  0.
         23    2    4    4    0    0 -0.14767374715E+03  0.15983634466E+03  0.11785995545E+03  0.26375924096E+03  0.91229246523E+02 0.  0.
          3    1    3    3  502    0 -0.26905202791E+03  0.25144266430E+03  0.82039313895E+03  0.89925375150E+03  0.00000000000E+00 0. -1.
         -3    1    3    3    0  502 -0.17323937252E+02 -0.76505617343E+00  0.90111992897E+02  0.91765327749E+02  0.00000000000E+00 0.  1.
         13    1    5    5    0    0  0.88150741108E+02 -0.84534662932E+02  0.23542773815E+03  0.26522232615E+03  0.00000000000E+00 0.  1.
        -13    1    5    5    0    0  0.34589897120E+03 -0.32597928986E+03  0.13676335108E+04  0.14478708560E+04  0.00000000000E+00 0. -1.
          3    1    6    6  503    0 -0.19099890367E+02  0.27231003704E+02 -0.14745682889E+02  0.36383630091E+02  0.00000000000E+00 0. -1.
         -3    1    6    6    0  503 -0.12857385678E+03  0.13260534096E+03  0.13260563834E+03  0.22737561087E+03  0.00000000000E+00 0.  1.
<mgrwt>
<rscale>  0 0.13725366E+04</rscale>
<asrwt>0</asrwt>
<pdfrwt beam="1">  1        2 0.43071519E+00 0.13725366E+04</pdfrwt>
<pdfrwt beam="2">  1       -2 0.25880399E-01 0.13725366E+04</pdfrwt>
<totfact> 0.30608196E+01</totfact>
</mgrwt>
</event>
<event>
12    3  0.4773567E-008  0.1720770E+04  0.7818608E-02  0.8749606E-01
         -2   -1    0    0    0  501 -0.00000000000E+00  0.00000000000E+00  0.14007902134E+04  0.14007902134E+04  0.00000000000E+00 0.  1.
          2   -1    0    0  501    0  0.00000000000E+00 -0.00000000000E+00 -0.52846052761E+03  0.52846052761E+03  0.00000000000E+00 0. -1.
         23    2    1    2    0    0  0.21839788912E+03  0.21493010729E+03 -0.28173491249E+03  0.42618961931E+03  0.91490118049E+02 0.  0.
        254    2    1    2    0    0 -0.21839788912E+03 -0.21493010729E+03  0.11540645982E+04  0.15030611217E+04  0.91292663973E+03 0.  0.
         23    2    4    4    0    0 -0.35760993487E+03  0.26519574571E+03  0.56432242991E+03  0.72464563021E+03  0.91857691154E+02 0.  0.
         23    2    4    4    0    0  0.13921204576E+03 -0.48012585299E+03  0.58974216834E+03  0.77841549145E+03  0.90741522013E+02 0.  0.
          1    1    3    3  502    0  0.11078355395E+03  0.16782073331E+03 -0.19553001691E+03  0.28047955695E+03  0.00000000000E+00 0. -1.
         -1    1    3    3    0  502  0.10761433517E+03  0.47109373979E+02 -0.86204895582E+02  0.14571006236E+03  0.00000000000E+00 0.  1.
         13    1    5    5    0    0 -0.48411162367E+02  0.18657388431E+01  0.58989569769E+02  0.76334074729E+02  0.00000000000E+00 0.  1.
        -13    1    5    5    0    0 -0.30919877251E+03  0.26333000686E+03  0.50533286014E+03  0.64831155548E+03  0.00000000000E+00 0. -1.
          4    1    6    6  503    0  0.10919369992E+03 -0.36912766057E+03  0.39023292110E+03  0.54814252400E+03  0.00000000000E+00 0. -1.
         -4    1    6    6    0  503  0.30018345839E+02 -0.11099819242E+03  0.19950924723E+03  0.23027296745E+03  0.00000000000E+00 0.  1.
<mgrwt>
<rscale>  0 0.17207700E+04</rscale>
<asrwt>0</asrwt>
<pdfrwt beam="1">  1        2 0.81301620E-01 0.17207700E+04</pdfrwt>
<pdfrwt beam="2">  1       -2 0.21550618E+00 0.17207700E+04</pdfrwt>
<totfact> 0.57833802E+00</totfact>
</mgrwt>
</event>
<event>
12    3  0.4773567E-008  0.1094150E+04  0.7818608E-02  0.9210913E-01
          1   -1    0    0  501    0  0.00000000000E+00  0.00000000000E+00  0.24810162954E+04  0.24810162954E+04  0.00000000000E+00 0. -1.
         -1   -1    0    0    0  501 -0.00000000000E+00 -0.00000000000E+00 -0.12063238591E+03  0.12063238591E+03  0.00000000000E+00 0.  1.
         23    2    1    2    0    0 -0.41113463831E+02  0.84441321343E+02  0.97874583922E+02  0.16356126106E+03  0.91390362100E+02 0.  0.
        254    2    1    2    0    0  0.41113463831E+02 -0.84441321343E+02  0.22625093256E+04  0.24380874203E+04  0.90360454119E+03 0.  0.
         23    2    4    4    0    0 -0.18398134938E+03 -0.42473854103E+03  0.95196431708E+03  0.10624158344E+04  0.90771024820E+02 0.  0.
         23    2    4    4    0    0  0.22509481321E+03  0.34029721969E+03  0.13105450085E+04  0.13756715859E+04  0.92055528357E+02 0.  0.
          2    1    3    3  502    0  0.31981807661E+01 -0.18249634573E+02  0.84527870157E+01  0.20364850370E+02  0.00000000000E+00 0. -1.
         -2    1    3    3    0  502 -0.44311644597E+02  0.10269095592E+03  0.89421796906E+02  0.14319641069E+03  0.00000000000E+00 0.  1.
         13    1    5    5    0    0  0.64909921642E+01 -0.22224967016E+02  0.25216911222E+02  0.34234116751E+02  0.00000000000E+00 0.  1.
        -13    1    5    5    0    0 -0.19047234154E+03 -0.40251357402E+03  0.92674740586E+03  0.10281817176E+04  0.00000000000E+00 0. -1.
          2    1    6    6  503    0  0.19479803515E+03  0.29294147768E+03  0.99992395917E+03  0.10600042019E+04  0.00000000000E+00 0. -1.
         -2    1    6    6    0  503  0.30296778061E+02  0.47355742011E+02  0.31062104932E+03  0.31566738404E+03  0.00000000000E+00 0.  1.
<mgrwt>
<rscale>  0 0.10941497E+04</rscale>
<asrwt>0</asrwt>
<pdfrwt beam="1">  1        1 0.38169478E+00 0.10941497E+04</pdfrwt>
<pdfrwt beam="2">  1       -1 0.18558830E-01 0.10941497E+04</pdfrwt>
<totfact> 0.32546834E+01</totfact>
</mgrwt>
</event>
<event>
12    3  0.4773567E-008  0.1629573E+04  0.7818608E-02  0.8802583E-01
          1   -1    0    0  501    0  0.00000000000E+00  0.00000000000E+00  0.34494954654E+04  0.34494954654E+04  0.00000000000E+00 0. -1.
         -1   -1    0    0    0  501 -0.00000000000E+00 -0.00000000000E+00 -0.19245633884E+03  0.19245633884E+03  0.00000000000E+00 0.  1.
         23    2    1    2    0    0  0.36461084213E+03  0.42446834938E+03  0.98317432203E+03  0.11357475515E+04  0.10087768551E+03 0.  0.
        254    2    1    2    0    0 -0.36461084213E+03 -0.42446834938E+03  0.22738648045E+04  0.25062042527E+04  0.89301968696E+03 0.  0.
         23    2    4    4    0    0 -0.38407693570E+03 -0.38438664634E+03  0.23271570124E+04  0.23914769780E+04  0.90742434836E+02 0.  0.
         23    2    4    4    0    0  0.19466093572E+02 -0.40081703044E+02 -0.53292207898E+02  0.11472727471E+03  0.91306168589E+02 0.  0.
          2    1    3    3  502    0  0.18902499950E+03  0.23874803251E+03  0.63064801118E+03  0.70031991794E+03  0.00000000000E+00 0. -1.
         -2    1    3    3    0  502  0.17558584263E+03  0.18572031687E+03  0.35252631085E+03  0.43542763357E+03  0.00000000000E+00 0.  1.
         13    1    5    5    0    0 -0.25135380531E+02 -0.95082908545E+01  0.20603676659E+03  0.20778196297E+03  0.00000000000E+00 0.  1.
        -13    1    5    5    0    0 -0.35894155517E+03 -0.37487835548E+03  0.21211202458E+04  0.21836950150E+04  0.00000000000E+00 0. -1.
          1    1    6    6  503    0  0.51726615178E+02 -0.29060924641E+02 -0.54572411745E+02  0.80612208644E+02  0.00000000000E+00 0. -1.
         -1    1    6    6    0  503 -0.32260521607E+02 -0.11020778402E+02  0.12802038462E+01  0.34115066068E+02  0.00000000000E+00 0.  1.
<mgrwt>
<rscale>  0 0.16295733E+04</rscale>
<asrwt>0</asrwt>
<pdfrwt beam="1">  1        1 0.53069156E+00 0.16295733E+04</pdfrwt>
<pdfrwt beam="2">  1       -1 0.29608670E-01 0.16295733E+04</pdfrwt>
<totfact> 0.27602698E+00</totfact>
</mgrwt>
</event>
<event>
12    3  0.4773567E-008  0.1407130E+04  0.7818608E-02  0.8948674E-01
         -2   -1    0    0    0  501 -0.00000000000E+00  0.00000000000E+00  0.87097130857E+03  0.87097130857E+03  0.00000000000E+00 0.  1.
          2   -1    0    0  501    0  0.00000000000E+00 -0.00000000000E+00 -0.56833505214E+03  0.56833505214E+03  0.00000000000E+00 0. -1.
         23    2    1    2    0    0 -0.13865425314E+03 -0.33515425379E+03 -0.16241184523E+03  0.40766306058E+03  0.90874571477E+02 0.  0.
        254    2    1    2    0    0  0.13865425314E+03  0.33515425379E+03  0.46504810166E+03  0.10316433001E+04  0.84644242929E+03 0.  0.
         23    2    4    4    0    0  0.16444675598E+03  0.37912222690E+03 -0.11727350507E+03  0.44028759178E+03  0.96559256406E+02 0.  0.
         23    2    4    4    0    0 -0.25792502846E+02 -0.43967973105E+02  0.58232160673E+03  0.59135570835E+03  0.89468901140E+02 0.  0.
          4    1    3    3  502    0 -0.12054403616E+03 -0.30723752793E+03 -0.17314357184E+03  0.37269888609E+03  0.00000000000E+00 0. -1.
         -4    1    3    3    0  502 -0.18110216978E+02 -0.27916725859E+02  0.10731726607E+02  0.34964174489E+02  0.00000000000E+00 0.  1.
         13    1    5    5    0    0  0.45682176942E+02  0.48727804124E+02  0.85343612070E+01  0.67335692661E+02  0.00000000000E+00 0. -1.
        -13    1    5    5    0    0  0.11876457904E+03  0.33039442278E+03 -0.12580786628E+03  0.37295189912E+03  0.00000000000E+00 0.  1.
          1    1    6    6  503    0 -0.53458081212E+02 -0.30426917955E+01  0.30974843730E+03  0.31434235927E+03  0.00000000000E+00 0. -1.
         -1    1    6    6    0  503  0.27665578366E+02 -0.40925281310E+02  0.27257316944E+03  0.27701334909E+03  0.00000000000E+00 0.  1.
<mgrwt>
<rscale>  0 0.14071297E+04</rscale>
<asrwt>0</asrwt>
<pdfrwt beam="1">  1        2 0.87436162E-01 0.14071297E+04</pdfrwt>
<pdfrwt beam="2">  1       -2 0.13399559E+00 0.14071297E+04</pdfrwt>
<totfact> 0.20698885E+01</totfact>
</mgrwt>
</event>
<event>
12    3  0.4773567E-008  0.2233621E+04  0.7818608E-02  0.8504563E-01
         -1   -1    0    0    0  501 -0.00000000000E+00  0.00000000000E+00  0.86089814227E+03  0.86089814227E+03  0.00000000000E+00 0.  1.
          1   -1    0    0  501    0  0.00000000000E+00 -0.00000000000E+00 -0.14487964240E+04  0.14487964240E+04  0.00000000000E+00 0. -1.
         23    2    1    2    0    0 -0.71000720541E+03  0.55328399640E+03  0.60588837768E+01  0.90460997258E+03  0.89716665152E+02 0.  0.
        254    2    1    2    0    0  0.71000720541E+03 -0.55328399640E+03 -0.59395716551E+03  0.14050845937E+04  0.90069095064E+03 0.  0.
         23    2    4    4    0    0 -0.15366382010E+03  0.47911213666E+02 -0.21429763553E+03  0.28272015359E+03  0.89995303471E+02 0.  0.
         23    2    4    4    0    0  0.86367102552E+03 -0.60119521007E+03 -0.37965952998E+03  0.11223644401E+04  0.90538703242E+02 0.  0.
          4    1    3    3  502    0 -0.19804899382E+03  0.14199220856E+03  0.40354818014E+02  0.24700951921E+03  0.00000000000E+00 0. -1.
         -4    1    3    3    0  502 -0.51195821159E+03  0.41129178784E+03 -0.34295934237E+02  0.65760045337E+03  0.00000000000E+00 0.  1.
         13    1    5    5    0    0 -0.30820990863E+02  0.53046006424E+02 -0.75988583791E+02  0.97663079728E+02  0.00000000000E+00 0.  1.
        -13    1    5    5    0    0 -0.12284282924E+03 -0.51347927580E+01 -0.13830905174E+03  0.18505707386E+03  0.00000000000E+00 0. -1.
          1    1    6    6  503    0  0.23262634551E+03 -0.12615696202E+03 -0.67905360752E+02  0.27320639398E+03  0.00000000000E+00 0. -1.
         -1    1    6    6    0  503  0.63104468000E+03 -0.47503824805E+03 -0.31175416923E+03  0.84915804612E+03  0.00000000000E+00 0.  1.
<mgrwt>
<rscale>  0 0.22336214E+04</rscale>
<asrwt>0</asrwt>
<pdfrwt beam="1">  1        1 0.22289176E+00 0.22336214E+04</pdfrwt>
<pdfrwt beam="2">  1       -1 0.13244587E+00 0.22336214E+04</pdfrwt>
<totfact> 0.31226195E+00</totfact>
</mgrwt>
</event>
<event>
12    3  0.4773567E-008  0.2378009E+04  0.7818608E-02  0.8447783E-01
          1   -1    0    0  501    0  0.00000000000E+00  0.00000000000E+00  0.10639420424E+04  0.10639420424E+04  0.00000000000E+00 0. -1.
         -1   -1    0    0    0  501 -0.00000000000E+00 -0.00000000000E+00 -0.13287670544E+04  0.13287670544E+04  0.00000000000E+00 0.  1.
         23    2    1    2    0    0  0.97047850426E+03 -0.20249794278E+03 -0.17660522920E+02  0.99594194596E+03  0.93565600515E+02 0.  0.
        254    2    1    2    0    0 -0.97047850426E+03  0.20249794278E+03 -0.24716448917E+03  0.13967671508E+04  0.95238345475E+03 0.  0.
         23    2    4    4    0    0 -0.18840221062E+03 -0.95648169810E+02  0.31075069133E+03  0.38671558266E+03  0.91318039577E+02 0.  0.
         23    2    4    4    0    0 -0.78207629364E+03  0.29814611259E+03 -0.55791518051E+03  0.10100515682E+04  0.91653631720E+02 0.  0.
          1    1    3    3  502    0  0.72978441220E+03 -0.11372005659E+03 -0.28832541024E+02  0.73915414833E+03  0.00000000000E+00 0. -1.
         -1    1    3    3    0  502  0.24069409206E+03 -0.88777886187E+02  0.11172018104E+02  0.25678779764E+03  0.00000000000E+00 0.  1.
         13    1    5    5    0    0 -0.13804856949E+02 -0.20787051940E+02  0.31081633616E+01  0.25146297604E+02  0.00000000000E+00 0. -1.
        -13    1    5    5    0    0 -0.17459735367E+03 -0.74861117870E+02  0.30764252797E+03  0.36156928506E+03  0.00000000000E+00 0.  1.
          4    1    6    6  503    0 -0.33237040913E+03  0.17516811501E+03 -0.24296129175E+03  0.44741943037E+03  0.00000000000E+00 0. -1.
         -4    1    6    6    0  503 -0.44970588451E+03  0.12297799758E+03 -0.31495388875E+03  0.56263213781E+03  0.00000000000E+00 0.  1.
<mgrwt>
<rscale>  0 0.23780085E+04</rscale>
<asrwt>0</asrwt>
<pdfrwt beam="1">  1        1 0.16368339E+00 0.23780085E+04</pdfrwt>
<pdfrwt beam="2">  1       -1 0.20442570E+00 0.23780085E+04</pdfrwt>
<totfact> 0.17011228E+00</totfact>
</mgrwt>
</event>
<event>
12    3  0.4773567E-008  0.1724529E+04  0.7818608E-02  0.8747497E-01
         -1   -1    0    0    0  501 -0.00000000000E+00  0.00000000000E+00  0.52888042874E+03  0.52888042874E+03  0.00000000000E+00 0.  1.
          1   -1    0    0  501    0  0.00000000000E+00 -0.00000000000E+00 -0.14057999166E+04  0.14057999166E+04  0.00000000000E+00 0. -1.
         23    2    1    2    0    0 -0.15880642861E+03  0.14293558364E+01  0.32127953407E+03  0.37082763193E+03  0.95242158539E+02 0.  0.
        254    2    1    2    0    0  0.15880642861E+03 -0.14293558364E+01 -0.11981990220E+04  0.15638527134E+04  0.99233708401E+03 0.  0.
         23    2    4    4    0    0 -0.28918675946E+02  0.19702237219E+03  0.95285652881E+02  0.23874848935E+03  0.90925137105E+02 0.  0.
         23    2    4    4    0    0  0.18772510455E+03 -0.19845172803E+03 -0.12934846748E+04  0.13251042241E+04  0.90414586498E+02 0.  0.
          1    1    3    3  502    0 -0.31822985713E+02 -0.39555110397E+02  0.72247437790E+02  0.88300631059E+02  0.00000000000E+00 0. -1.
         -1    1    3    3    0  502 -0.12698344290E+03  0.40984466234E+02  0.24903209628E+03  0.28252700087E+03  0.00000000000E+00 0.  1.
         13    1    5    5    0    0 -0.13677918440E+01 -0.99306675157E+01  0.28472033332E+01  0.10420920240E+02  0.00000000000E+00 0. -1.
        -13    1    5    5    0    0 -0.27550884102E+02  0.20695303971E+03  0.92438449547E+02  0.22832756911E+03  0.00000000000E+00 0.  1.
          2    1    6    6  503    0  0.44158566461E+02 -0.67260230205E+02 -0.58133785823E+03  0.58687956428E+03  0.00000000000E+00 0. -1.
         -2    1    6    6    0  503  0.14356653809E+03 -0.13119149782E+03 -0.71214681660E+03  0.73822465982E+03  0.00000000000E+00 0.  1.
<mgrwt>
<rscale>  0 0.17245290E+04</rscale>
<asrwt>0</asrwt>
<pdfrwt beam="1">  1        1 0.21627691E+00 0.17245290E+04</pdfrwt>
<pdfrwt beam="2">  1       -1 0.81366221E-01 0.17245290E+04</pdfrwt>
<totfact> 0.10873771E+01</totfact>
</mgrwt>
</event>
<event>
12    3  0.4773567E-008  0.1589397E+04  0.7818608E-02  0.8827088E-01
          1   -1    0    0  501    0  0.00000000000E+00  0.00000000000E+00  0.15433793424E+04  0.15433793424E+04  0.00000000000E+00 0. -1.
         -1   -1    0    0    0  501 -0.00000000000E+00 -0.00000000000E+00 -0.40919664969E+03  0.40919664969E+03  0.00000000000E+00 0.  1.
         23    2    1    2    0    0 -0.29118607596E+03  0.43212855285E+03  0.28674935557E+03  0.60156494307E+03  0.90170786820E+02 0.  0.
        254    2    1    2    0    0  0.29118607596E+03 -0.43212855285E+03  0.84743333714E+03  0.13510110490E+04  0.91409144872E+03 0.  0.
         23    2    4    4    0    0  0.33477522996E+03 -0.68546385191E+03  0.53298998557E+03  0.93500913902E+03  0.90711732869E+02 0.  0.
         23    2    4    4    0    0 -0.43589154000E+02  0.25333529905E+03  0.31444335157E+03  0.41600190998E+03  0.90023217396E+02 0.  0.
          4    1    3    3  502    0 -0.21653439991E+03  0.29932597930E+03  0.24605770051E+03  0.44387788885E+03  0.00000000000E+00 0. -1.
         -4    1    3    3    0  502 -0.74651676050E+02  0.13280257355E+03  0.40691655055E+02  0.15768705423E+03  0.00000000000E+00 0.  1.
         13    1    5    5    0    0  0.24521412653E+02 -0.12680275517E+03  0.93148126908E+02  0.15923822388E+03  0.00000000000E+00 0.  1.
        -13    1    5    5    0    0  0.31025381730E+03 -0.55866109674E+03  0.43984185866E+03  0.77577091515E+03  0.00000000000E+00 0. -1.
          2    1    6    6  503    0 -0.67068658679E+02  0.13050330123E+03  0.18323949513E+03  0.23474673413E+03  0.00000000000E+00 0. -1.
         -2    1    6    6    0  503  0.23479504679E+02  0.12283199782E+03  0.13120385644E+03  0.18125517586E+03  0.00000000000E+00 0.  1.
<mgrwt>
<rscale>  0 0.15893969E+04</rscale>
<asrwt>0</asrwt>
<pdfrwt beam="1">  1        1 0.23744297E+00 0.15893969E+04</pdfrwt>
<pdfrwt beam="2">  1       -1 0.62953332E-01 0.15893969E+04</pdfrwt>
<totfact> 0.15003261E+01</totfact>
</mgrwt>
</event>
<event>
12    3  0.4773567E-008  0.2064286E+04  0.7818608E-02  0.8577141E-01
          1   -1    0    0  501    0  0.00000000000E+00  0.00000000000E+00  0.56156769473E+03  0.56156769473E+03  0.00000000000E+00 0. -1.
         -1   -1    0    0    0  501 -0.00000000000E+00 -0.00000000000E+00 -0.18970455792E+04  0.18970455792E+04  0.00000000000E+00 0.  1.
         23    2    1    2    0    0  0.50839903695E+03  0.33277494216E+03  0.12609467709E+03  0.63147799766E+03  0.11685825188E+03 0.  0.
        254    2    1    2    0    0 -0.50839903695E+03 -0.33277494216E+03 -0.14615725615E+04  0.18271352762E+04  0.91269941499E+03 0.  0.
         23    2    4    4    0    0 -0.27049287088E+03 -0.30398643252E+03 -0.15094029081E+04  0.15659650852E+04  0.91517018627E+02 0.  0.
         23    2    4    4    0    0 -0.23790616607E+03 -0.28788509640E+02  0.47830346563E+02  0.26117019105E+03  0.92162923655E+02 0.  0.
          2    1    3    3  502    0  0.51002875740E+03  0.32820530231E+03  0.13499005078E+03  0.62134561047E+03  0.00000000000E+00 0. -1.
         -2    1    3    3    0  502 -0.16297204469E+01  0.45696398568E+01 -0.88953736892E+01  0.10132387193E+02  0.00000000000E+00 0.  1.
         13    1    5    5    0    0 -0.25145181503E+03 -0.23555756711E+03 -0.12978417753E+04  0.13427988146E+04  0.00000000000E+00 0.  1.
        -13    1    5    5    0    0 -0.19041055855E+02 -0.68428865417E+02 -0.21156113282E+03  0.22316627064E+03  0.00000000000E+00 0. -1.
          3    1    6    6  503    0 -0.65959409256E+02  0.32941149442E+02  0.19806107467E+02  0.76341632737E+02  0.00000000000E+00 0. -1.
         -3    1    6    6    0  503 -0.17194675681E+03 -0.61729659082E+02  0.28024239096E+02  0.18482855831E+03  0.00000000000E+00 0.  1.
<mgrwt>
<rscale>  0 0.20642863E+04</rscale>
<asrwt>0</asrwt>
<pdfrwt beam="1">  1        1 0.86395029E-01 0.20642863E+04</pdfrwt>
<pdfrwt beam="2">  1       -1 0.29185317E+00 0.20642863E+04</pdfrwt>
<totfact> 0.12963616E+00</totfact>
</mgrwt>
</event>
<event>
12    3  0.4773567E-008  0.1437696E+04  0.7818608E-02  0.8926975E-01
         -2   -1    0    0    0  501 -0.00000000000E+00  0.00000000000E+00  0.44599993272E+03  0.44599993272E+03  0.00000000000E+00 0.  1.
          2   -1    0    0  501    0  0.00000000000E+00 -0.00000000000E+00 -0.11586159491E+04  0.11586159491E+04  0.00000000000E+00 0. -1.
         23    2    1    2    0    0  0.18817915952E+02 -0.19173812553E+03  0.21361078071E+03  0.30132189148E+03  0.89708939938E+02 0.  0.
        254    2    1    2    0    0 -0.18817915952E+02  0.19173812553E+03 -0.92622679712E+03  0.13032939904E+04  0.89641593187E+03 0.  0.
         23    2    4    4    0    0 -0.32214826717E+03  0.38379608176E+03 -0.70628489807E+03  0.87067045492E+03  0.90275940434E+02 0.  0.
         23    2    4    4    0    0  0.30333035122E+03 -0.19205795622E+03 -0.21994189905E+03  0.43262353546E+03  0.99464184288E+02 0.  0.
          3    1    3    3  502    0  0.50194858657E+02 -0.10019596171E+03  0.86496059292E+02  0.14156384726E+03  0.00000000000E+00 0. -1.
         -3    1    3    3    0  502 -0.31376942704E+02 -0.91542163827E+02  0.12711472142E+03  0.15975804422E+03  0.00000000000E+00 0.  1.
         13    1    5    5    0    0 -0.21509954713E+03  0.28340305008E+03 -0.43254675558E+03  0.56007303071E+03  0.00000000000E+00 0.  1.
        -13    1    5    5    0    0 -0.10704872004E+03  0.10039303168E+03 -0.27373814249E+03  0.31059742421E+03  0.00000000000E+00 0. -1.
          2    1    6    6  503    0  0.49253296010E+02 -0.33603635308E+02 -0.85870668608E+02  0.10454120336E+03  0.00000000000E+00 0. -1.
         -2    1    6    6    0  503  0.25407705521E+03 -0.15845432091E+03 -0.13407123045E+03  0.32808233210E+03  0.00000000000E+00 0.  1.
<mgrwt>
<rscale>  0 0.14376963E+04</rscale>
<asrwt>0</asrwt>
<pdfrwt beam="1">  1        2 0.17824860E+00 0.14376963E+04</pdfrwt>
<pdfrwt beam="2">  1       -2 0.68615375E-01 0.14376963E+04</pdfrwt>
<totfact> 0.37811295E+01</totfact>
</mgrwt>
</event>
<event>
12    3  0.4773567E-008  0.2628754E+04  0.7818608E-02  0.8358499E-01
          1   -1    0    0  501    0  0.00000000000E+00  0.00000000000E+00  0.10449282239E+04  0.10449282239E+04  0.00000000000E+00 0. -1.
         -1   -1    0    0    0  501 -0.00000000000E+00 -0.00000000000E+00 -0.16533068564E+04  0.16533068564E+04  0.00000000000E+00 0.  1.
         23    2    1    2    0    0 -0.10552266423E+04  0.48811113193E+03 -0.29651607556E+03  0.12033224866E+04  0.91145378723E+02 0.  0.
        254    2    1    2    0    0  0.10552266423E+04 -0.48811113193E+03 -0.31186255692E+03  0.14949125937E+04  0.88642521660E+03 0.  0.
         23    2    4    4    0    0  0.29681668849E+03  0.18712424484E+03  0.12713355596E+03  0.38458664038E+03  0.92888714785E+02 0.  0.
         23    2    4    4    0    0  0.75840995382E+03 -0.67523537678E+03 -0.43899611288E+03  0.11103259533E+04  0.94750532338E+02 0.  0.
          1    1    3    3  502    0 -0.71192720193E+02  0.23233149720E+02 -0.41141777757E+02  0.85444885929E+02  0.00000000000E+00 0. -1.
         -1    1    3    3    0  502 -0.98403392211E+03  0.46487798221E+03 -0.25537429780E+03  0.11178776007E+04  0.00000000000E+00 0.  1.
         13    1    5    5    0    0  0.24314435369E+03  0.15180503767E+03  0.14008743425E+03  0.31904299934E+03  0.00000000000E+00 0.  1.
        -13    1    5    5    0    0  0.53672334796E+02  0.35319207170E+02 -0.12953878289E+02  0.65543641037E+02  0.00000000000E+00 0. -1.
          2    1    6    6  503    0  0.25965787901E+03 -0.29223803164E+03 -0.16126620165E+03  0.42288540891E+03  0.00000000000E+00 0. -1.
         -2    1    6    6    0  503  0.49875207481E+03 -0.38299734513E+03 -0.27772991123E+03  0.68744054441E+03  0.00000000000E+00 0.  1.
<mgrwt>
<rscale>  0 0.26287541E+04</rscale>
<asrwt>0</asrwt>
<pdfrwt beam="1">  1        1 0.16075819E+00 0.26287541E+04</pdfrwt>
<pdfrwt beam="2">  1       -1 0.25435490E+00 0.26287541E+04</pdfrwt>
<totfact> 0.80107088E-01</totfact>
</mgrwt>
</event>
<event>
12    3  0.4773567E-008  0.1435866E+04  0.7818608E-02  0.8928259E-01
          2   -1    0    0  501    0  0.00000000000E+00  0.00000000000E+00  0.66136233728E+03  0.66136233728E+03  0.00000000000E+00 0. -1.
         -2   -1    0    0    0  501 -0.00000000000E+00 -0.00000000000E+00 -0.77934224885E+03  0.77934224885E+03  0.00000000000E+00 0.  1.
         23    2    1    2    0    0  0.10075109403E+03 -0.27670098534E+03  0.27328981373E+03  0.41153384268E+03  0.89210779327E+02 0.  0.
        254    2    1    2    0    0 -0.10075109403E+03  0.27670098534E+03 -0.39126972530E+03  0.10291707435E+04  0.90519953767E+03 0.  0.
         23    2    4    4    0    0  0.27444958411E+03  0.14846279563E+03  0.14415719228E+03  0.35601447797E+03  0.92742851672E+02 0.  0.
         23    2    4    4    0    0 -0.37520067815E+03  0.12823818971E+03 -0.53542691758E+03  0.67315626548E+03  0.96108228036E+02 0.  0.
          1    1    3    3  502    0  0.10558336793E+03 -0.25337930119E+03  0.27380835920E+03  0.38771114947E+03  0.00000000000E+00 0. -1.
         -1    1    3    3    0  502 -0.48322738922E+01 -0.23321684145E+02 -0.51854547449E+00  0.23822693209E+02  0.00000000000E+00 0.  1.
         13    1    5    5    0    0  0.24612586441E+03  0.97112071825E+02  0.10104781155E+03  0.28323021704E+03  0.00000000000E+00 0.  1.
        -13    1    5    5    0    0  0.28323719702E+02  0.51350723804E+02  0.43109380727E+02  0.72784260933E+02  0.00000000000E+00 0. -1.
          4    1    6    6  503    0 -0.16844937657E+03  0.10818585079E+03 -0.25645112891E+03  0.32534067114E+03  0.00000000000E+00 0. -1.
         -4    1    6    6    0  503 -0.20675130157E+03  0.20052338925E+02 -0.27897578867E+03  0.34781559433E+03  0.00000000000E+00 0.  1.
<mgrwt>
<rscale>  0 0.14358657E+04</rscale>
<asrwt>0</asrwt>
<pdfrwt beam="1">  1        2 0.10174805E+00 0.14358657E+04</pdfrwt>
<pdfrwt beam="2">  1       -2 0.11989881E+00 0.14358657E+04</pdfrwt>
<totfact> 0.22727761E+01</totfact>
</mgrwt>
</event>
<event>
12    3  0.4773567E-008  0.1147280E+04  0.7818608E-02  0.9160297E-01
         -2   -1    0    0    0  501 -0.00000000000E+00  0.00000000000E+00  0.38625936057E+03  0.38625936057E+03  0.00000000000E+00 0.  1.
          2   -1    0    0  501    0  0.00000000000E+00 -0.00000000000E+00 -0.85192149204E+03  0.85192149204E+03  0.00000000000E+00 0. -1.
         23    2    1    2    0    0 -0.99576482090E+02  0.16568850893E+03 -0.12162039050E+03  0.24623980641E+03  0.92056314822E+02 0.  0.
        254    2    1    2    0    0  0.99576482090E+02 -0.16568850893E+03 -0.34404174097E+03  0.99194104620E+03  0.91006272412E+03 0.  0.
         23    2    4    4    0    0 -0.39818288879E+02  0.28331346085E+03 -0.41221525786E+03  0.50877870443E+03  0.84156627996E+02 0.  0.
         23    2    4    4    0    0  0.13939477097E+03 -0.44900196979E+03  0.68173516896E+02  0.48316234177E+03  0.88116678621E+02 0.  0.
          4    1    3    3  502    0 -0.34967090839E+02  0.16085343352E+02 -0.61487189566E+02  0.72540403867E+02  0.00000000000E+00 0. -1.
         -4    1    3    3    0  502 -0.64609391250E+02  0.14960316558E+03 -0.60133200935E+02  0.17369940255E+03  0.00000000000E+00 0.  1.
         13    1    5    5    0    0  0.21347922406E+02  0.14604455649E+03 -0.19207366447E+03  0.24223343877E+03  0.00000000000E+00 0.  1.
        -13    1    5    5    0    0 -0.61166211285E+02  0.13726890436E+03 -0.22014159339E+03  0.26654526566E+03  0.00000000000E+00 0. -1.
          2    1    6    6  503    0 -0.11471348505E+02 -0.27850003567E+02  0.11446297221E+02  0.32221611619E+02  0.00000000000E+00 0.  1.
         -2    1    6    6    0  503  0.15086611947E+03 -0.42115196622E+03  0.56727219674E+02  0.45094073015E+03  0.00000000000E+00 0. -1.
<mgrwt>
<rscale>  0 0.11472797E+04</rscale>
<asrwt>0</asrwt>
<pdfrwt beam="1">  1        2 0.13106484E+00 0.11472797E+04</pdfrwt>
<pdfrwt beam="2">  1       -2 0.59424518E-01 0.11472797E+04</pdfrwt>
<totfact> 0.82823638E+01</totfact>
</mgrwt>
</event>
<event>
12    3  0.4773567E-008  0.2033832E+04  0.7818608E-02  0.8590964E-01
          1   -1    0    0  501    0  0.00000000000E+00  0.00000000000E+00  0.80307823769E+03  0.80307823769E+03  0.00000000000E+00 0. -1.
         -1   -1    0    0    0  501 -0.00000000000E+00 -0.00000000000E+00 -0.12876931968E+04  0.12876931968E+04  0.00000000000E+00 0.  1.
         23    2    1    2    0    0 -0.76546571396E+03  0.20867660474E+02  0.87561497273E+02  0.77599147267E+03  0.90125087249E+02 0.  0.
        254    2    1    2    0    0  0.76546571396E+03 -0.20867660474E+02 -0.57217645639E+03  0.13147799618E+04  0.90271104583E+03 0.  0.
         23    2    4    4    0    0  0.64506243503E+03 -0.33519335908E+03 -0.12045680952E+03  0.74390018783E+03  0.10206622081E+03 0.  0.
         23    2    4    4    0    0  0.12040327893E+03  0.31432569861E+03 -0.45171964687E+03  0.57087977399E+03  0.92495851835E+02 0.  0.
          2    1    3    3  502    0 -0.17040087354E+03 -0.21580417718E+01  0.57011733831E+02  0.17969822660E+03  0.00000000000E+00 0. -1.
         -2    1    3    3    0  502 -0.59506484042E+03  0.23025702245E+02  0.30549763442E+02  0.59629324607E+03  0.00000000000E+00 0.  1.
         13    1    5    5    0    0  0.25114944283E+03 -0.10130154621E+03 -0.87510658291E+02  0.28459824527E+03  0.00000000000E+00 0.  1.
        -13    1    5    5    0    0  0.39391299220E+03 -0.23389181288E+03 -0.32946151231E+02  0.45930194256E+03  0.00000000000E+00 0. -1.
          1    1    6    6  503    0  0.10329087338E+03  0.31057764920E+03 -0.44433098211E+03  0.55186728692E+03  0.00000000000E+00 0. -1.
         -1    1    6    6    0  503  0.17112405547E+02  0.37480494143E+01 -0.73886647542E+01  0.19012487077E+02  0.00000000000E+00 0.  1.
<mgrwt>
<rscale>  0 0.20338322E+04</rscale>
<asrwt>0</asrwt>
<pdfrwt beam="1">  1        1 0.12355050E+00 0.20338322E+04</pdfrwt>
<pdfrwt beam="2">  1       -1 0.19810665E+00 0.20338322E+04</pdfrwt>
<totfact> 0.31521895E+00</totfact>
</mgrwt>
</event>
<event>
12    3  0.4773567E-008  0.1187795E+04  0.7818608E-02  0.9123607E-01
          1   -1    0    0  501    0  0.00000000000E+00  0.00000000000E+00  0.18728163254E+03  0.18728163254E+03  0.00000000000E+00 0. -1.
         -1   -1    0    0    0  501 -0.00000000000E+00 -0.00000000000E+00 -0.18833357903E+04  0.18833357903E+04  0.00000000000E+00 0.  1.
         23    2    1    2    0    0  0.12122476394E+03  0.21057957273E+03 -0.23617813882E+03  0.34532946351E+03  0.66581718703E+02 0.  0.
        254    2    1    2    0    0 -0.12122476394E+03 -0.21057957273E+03 -0.14598760190E+04  0.17252879594E+04  0.88675890302E+03 0.  0.
         23    2    4    4    0    0  0.24173209682E+03  0.19102911400E+03 -0.29004835646E+03  0.43308990345E+03  0.92262052653E+02 0.  0.
         23    2    4    4    0    0 -0.36295686076E+03 -0.40160868674E+03 -0.11698276625E+04  0.12921980559E+04  0.90839615032E+02 0.  0.
          1    1    3    3  502    0  0.12401468798E+03  0.20547215505E+03 -0.23913825572E+03  0.33880016925E+03  0.00000000000E+00 0. -1.
         -1    1    3    3    0  502 -0.27899240348E+01  0.51074176859E+01  0.29601168961E+01  0.65292942633E+01  0.00000000000E+00 0.  1.
         13    1    5    5    0    0  0.48962649138E+02  0.59023024836E+02 -0.27087537837E+02  0.81331378800E+02  0.00000000000E+00 0. -1.
        -13    1    5    5    0    0  0.19276944768E+03  0.13200608917E+03 -0.26296081862E+03  0.35175852465E+03  0.00000000000E+00 0.  1.
          3    1    6    6  503    0 -0.13042058610E+02 -0.53603798983E+02 -0.10708818490E+03  0.12046303127E+03  0.00000000000E+00 0. -1.
         -3    1    6    6    0  503 -0.34991480215E+03 -0.34800488775E+03 -0.10627394776E+04  0.11717350246E+04  0.00000000000E+00 0.  1.
<mgrwt>
<rscale>  0 0.11877949E+04</rscale>
<asrwt>0</asrwt>
<pdfrwt beam="1">  1        1 0.28812559E-01 0.11877949E+04</pdfrwt>
<pdfrwt beam="2">  1       -1 0.28974396E+00 0.11877949E+04</pdfrwt>
<totfact> 0.62171162E+00</totfact>
</mgrwt>
</event>
<event>
12    3  0.4773567E-008  0.1597006E+04  0.7818608E-02  0.8822389E-01
         -1   -1    0    0    0  501 -0.00000000000E+00  0.00000000000E+00  0.59646643836E+03  0.59646643836E+03  0.00000000000E+00 0.  1.
          1   -1    0    0  501    0  0.00000000000E+00 -0.00000000000E+00 -0.10689743552E+04  0.10689743552E+04  0.00000000000E+00 0. -1.
         23    2    1    2    0    0 -0.17827438577E+03 -0.62039736132E+02 -0.69125251398E+03  0.72263555455E+03  0.93495567431E+02 0.  0.
        254    2    1    2    0    0  0.17827438577E+03  0.62039736132E+02  0.21874459718E+03  0.94280523898E+03  0.89744182785E+03 0.  0.
         23    2    4    4    0    0 -0.14178687246E+03  0.29244733275E+03  0.37948552875E+03  0.50726372908E+03  0.87625707865E+02 0.  0.
         23    2    4    4    0    0  0.32006125823E+03 -0.23040759662E+03 -0.16074093157E+03  0.43554150989E+03  0.91279187999E+02 0.  0.
          3    1    3    3  502    0 -0.18876266448E+03 -0.57454162565E+02 -0.67056886410E+03  0.69899565507E+03  0.00000000000E+00 0. -1.
         -3    1    3    3    0  502  0.10488278708E+02 -0.45855735671E+01 -0.20683649878E+02  0.23639899481E+02  0.00000000000E+00 0.  1.
         13    1    5    5    0    0 -0.14840315413E+03  0.24445530321E+03  0.34323047370E+03  0.44675390261E+03  0.00000000000E+00 0.  1.
        -13    1    5    5    0    0  0.66162816773E+01  0.47992029544E+02  0.36255055054E+02  0.60509826475E+02  0.00000000000E+00 0. -1.
          3    1    6    6  503    0  0.15715387968E+02 -0.25483884568E+02  0.90151089253E+01  0.31267778632E+02  0.00000000000E+00 0. -1.
         -3    1    6    6    0  503  0.30434587026E+03 -0.20492371205E+03 -0.16975604049E+03  0.40427373126E+03  0.00000000000E+00 0.  1.
<mgrwt>
<rscale>  0 0.15970064E+04</rscale>
<asrwt>0</asrwt>
<pdfrwt beam="1">  1        1 0.16445759E+00 0.15970064E+04</pdfrwt>
<pdfrwt beam="2">  1       -1 0.91764068E-01 0.15970064E+04</pdfrwt>
<totfact> 0.14866277E+01</totfact>
</mgrwt>
</event>
<event>
12    3  0.4773567E-008  0.2084058E+04  0.7818608E-02  0.8568299E-01
         -1   -1    0    0    0  501 -0.00000000000E+00  0.00000000000E+00  0.66606424297E+03  0.66606424297E+03  0.00000000000E+00 0.  1.
          1   -1    0    0  501    0  0.00000000000E+00 -0.00000000000E+00 -0.16302099538E+04  0.16302099538E+04  0.00000000000E+00 0. -1.
         23    2    1    2    0    0  0.33225796119E+02 -0.72363558380E+03  0.83565899497E+02  0.73490720935E+03  0.91394393241E+02 0.  0.
        254    2    1    2    0    0 -0.33225796119E+02  0.72363558380E+03 -0.10477116104E+04  0.15613669875E+04  0.90300323332E+03 0.  0.
         23    2    4    4    0    0 -0.22815294312E+03  0.59671584053E+03 -0.11269133423E+04  0.12987167960E+04  0.92779714703E+02 0.  0.
         23    2    4    4    0    0  0.19492714700E+03  0.12691974328E+03  0.79201731913E+02  0.26265019145E+03  0.92773891049E+02 0.  0.
          4    1    3    3  502    0 -0.20319207231E+02 -0.44923240073E+02  0.44788608199E+01  0.49507856704E+02  0.00000000000E+00 0. -1.
         -4    1    3    3    0  502  0.53545003350E+02 -0.67871234373E+03  0.79087038677E+02  0.68539935264E+03  0.00000000000E+00 0.  1.
         13    1    5    5    0    0 -0.10496046265E+03  0.39732600685E+03 -0.73363018952E+03  0.84089114005E+03  0.00000000000E+00 0.  1.
        -13    1    5    5    0    0 -0.12319248047E+03  0.19938983368E+03 -0.39328315275E+03  0.45782565596E+03  0.00000000000E+00 0. -1.
          3    1    6    6  503    0  0.19631489689E+03  0.94928200183E+02  0.64396020449E+02  0.22737139086E+03  0.00000000000E+00 0. -1.
         -3    1    6    6    0  503 -0.13877498920E+01  0.31991543092E+02  0.14805711464E+02  0.35278800591E+02  0.00000000000E+00 0.  1.
<mgrwt>
<rscale>  0 0.20840581E+04</rscale>
<asrwt>0</asrwt>
<pdfrwt beam="1">  1        1 0.25080153E+00 0.20840581E+04</pdfrwt>
<pdfrwt beam="2">  1       -1 0.10247142E+00 0.20840581E+04</pdfrwt>
<totfact> 0.44138562E+00</totfact>
</mgrwt>
</event>
<event>
12    3  0.4773567E-008  0.1553699E+04  0.7818608E-02  0.8849508E-01
         -2   -1    0    0    0  501 -0.00000000000E+00  0.00000000000E+00  0.54601487759E+03  0.54601487759E+03  0.00000000000E+00 0. -1.
          2   -1    0    0  501    0  0.00000000000E+00 -0.00000000000E+00 -0.11052723564E+04  0.11052723564E+04  0.00000000000E+00 0.  1.
         23    2    1    2    0    0  0.73101998220E+02 -0.49045661774E+03 -0.34724087596E+03  0.61209221435E+03  0.90493408041E+02 0.  0.
        254    2    1    2    0    0 -0.73101998220E+02  0.49045661774E+03 -0.21201660289E+03  0.10391950197E+04  0.88830380671E+03 0.  0.
         23    2    4    4    0    0 -0.37499706017E+03  0.33883241337E+03  0.15042164773E+03  0.53539931821E+03  0.92712234097E+02 0.  0.
         23    2    4    4    0    0  0.30189506195E+03  0.15162420437E+03 -0.36243825062E+03  0.50379570148E+03  0.91203593901E+02 0.  0.
          4    1    3    3  502    0  0.71353586887E+02 -0.18992299857E+03 -0.12488958308E+03  0.23824249770E+03  0.00000000000E+00 0. -1.
         -4    1    3    3    0  502  0.17484113327E+01 -0.30053361917E+03 -0.22235129288E+03  0.37384971665E+03  0.00000000000E+00 0.  1.
         13    1    5    5    0    0 -0.29403088690E+03  0.23180073901E+03  0.14364148853E+03  0.40102197232E+03  0.00000000000E+00 0.  1.
        -13    1    5    5    0    0 -0.80966173268E+02  0.10703167435E+03  0.67801591956E+01  0.13437734589E+03  0.00000000000E+00 0. -1.
          3    1    6    6  503    0  0.58815333129E+01  0.20753336573E+02 -0.47655142165E+02  0.52309712174E+02  0.00000000000E+00 0. -1.
         -3    1    6    6    0  503  0.29601352863E+03  0.13087086780E+03 -0.31478310845E+03  0.45148598931E+03  0.00000000000E+00 0.  1.
<mgrwt>
<rscale>  0 0.15536990E+04</rscale>
<asrwt>0</asrwt>
<pdfrwt beam="1">  1        2 0.17004190E+00 0.15536990E+04</pdfrwt>
<pdfrwt beam="2">  1       -2 0.84002289E-01 0.15536990E+04</pdfrwt>
<totfact> 0.25760239E+01</totfact>
</mgrwt>
</event>
<event>
12    3  0.4773567E-008  0.3004532E+04  0.7818608E-02  0.8242438E-01
         -1   -1    0    0    0  501 -0.00000000000E+00  0.00000000000E+00  0.11286738075E+04  0.11286738075E+04  0.00000000000E+00 0.  1.
          1   -1    0    0  501    0  0.00000000000E+00 -0.00000000000E+00 -0.19995173116E+04  0.19995173116E+04  0.00000000000E+00 0. -1.
         23    2    1    2    0    0 -0.59554608233E+01  0.32065470373E+03  0.98589798703E+03  0.10406709307E+04  0.90256515261E+02 0.  0.
        254    2    1    2    0    0  0.59554608233E+01 -0.32065470373E+03 -0.18567414911E+04  0.20875201885E+04  0.89855253928E+03 0.  0.
         23    2    4    4    0    0 -0.81550108446E+02 -0.86216948774E+02  0.52482329687E+02  0.15976280549E+03  0.93198587150E+02 0.  0.
         23    2    4    4    0    0  0.87505569270E+02 -0.23443775496E+03 -0.19092238208E+04  0.19277573830E+04  0.92166393274E+02 0.  0.
          2    1    3    3  502    0 -0.41283016836E+02  0.85974143383E+02  0.25817948972E+03  0.27523170188E+03  0.00000000000E+00 0. -1.
         -2    1    3    3    0  502  0.35327556013E+02  0.23468056035E+03  0.72771849731E+03  0.76543922878E+03  0.00000000000E+00 0.  1.
         13    1    5    5    0    0  0.71690751470E+01 -0.56997105028E+02  0.18133351957E+02  0.60240219731E+02  0.00000000000E+00 0. -1.
        -13    1    5    5    0    0 -0.88719183593E+02 -0.29219843745E+02  0.34348977731E+02  0.99522585764E+02  0.00000000000E+00 0.  1.
          3    1    6    6  503    0  0.31572166421E+02 -0.12165594611E+03 -0.12736063030E+04  0.12797929465E+04  0.00000000000E+00 0. -1.
         -3    1    6    6    0  503  0.55933402848E+02 -0.11278180885E+03 -0.63561751782E+03  0.64796443646E+03  0.00000000000E+00 0.  1.
<mgrwt>
<rscale>  0 0.30045318E+04</rscale>
<asrwt>0</asrwt>
<pdfrwt beam="1">  1        1 0.30761804E+00 0.30045318E+04</pdfrwt>
<pdfrwt beam="2">  1       -1 0.17364213E+00 0.30045318E+04</pdfrwt>
<totfact> 0.58708414E-01</totfact>
</mgrwt>
</event>
<event>
12    3  0.4773567E-008  0.1744257E+04  0.7818608E-02  0.8736518E-01
          1   -1    0    0  501    0  0.00000000000E+00  0.00000000000E+00  0.16859620933E+04  0.16859620933E+04  0.00000000000E+00 0. -1.
         -1   -1    0    0    0  501 -0.00000000000E+00 -0.00000000000E+00 -0.45114168334E+03  0.45114168334E+03  0.00000000000E+00 0.  1.
         23    2    1    2    0    0  0.22262854510E+03  0.15295456351E+03 -0.25098823738E+03  0.37972089925E+03  0.90743035164E+02 0.  0.
        254    2    1    2    0    0 -0.22262854510E+03 -0.15295456351E+03  0.14858086473E+04  0.17573828774E+04  0.89878177196E+03 0.  0.
         23    2    4    4    0    0 -0.32688787679E+03  0.26549012412E+03  0.10612149745E+04  0.11453864454E+04  0.91608936810E+02 0.  0.
         23    2    4    4    0    0  0.10425933170E+03 -0.41844468764E+03  0.42459367286E+03  0.61199643195E+03  0.91070746328E+02 0.  0.
          2    1    3    3  502    0  0.41451607742E+01 -0.86519532349E+01  0.28715743426E+00  0.95979743704E+01  0.00000000000E+00 0. -1.
         -2    1    3    3    0  502  0.21848338432E+03  0.16160651675E+03 -0.25127539482E+03  0.37012292488E+03  0.00000000000E+00 0.  1.
         13    1    5    5    0    0 -0.32374564932E+03  0.23465206636E+03  0.97735537951E+03  0.10559812383E+04  0.00000000000E+00 0.  1.
        -13    1    5    5    0    0 -0.31422274772E+01  0.30838057759E+02  0.83859594953E+02  0.89405207150E+02  0.00000000000E+00 0. -1.
          4    1    6    6  503    0  0.14473897009E+02 -0.80267575749E+01  0.30172940427E+01  0.16823394281E+02  0.00000000000E+00 0. -1.
         -4    1    6    6    0  503  0.89785434689E+02 -0.41041793006E+03  0.42157637882E+03  0.59517303767E+03  0.00000000000E+00 0.  1.
<mgrwt>
<rscale>  0 0.17442566E+04</rscale>
<asrwt>0</asrwt>
<pdfrwt beam="1">  1        1 0.25937878E+00 0.17442566E+04</pdfrwt>
<pdfrwt beam="2">  1       -1 0.69406414E-01 0.17442566E+04</pdfrwt>
<totfact> 0.96987398E+00</totfact>
</mgrwt>
</event>
<event>
12    3  0.4773567E-008  0.4033838E+04  0.7818608E-02  0.7997755E-01
         -2   -1    0    0    0  501 -0.00000000000E+00  0.00000000000E+00  0.13763356340E+04  0.13763356340E+04  0.00000000000E+00 0.  1.
          2   -1    0    0  501    0  0.00000000000E+00 -0.00000000000E+00 -0.29556469180E+04  0.29556469180E+04  0.00000000000E+00 0. -1.
         23    2    1    2    0    0  0.13769747165E+04 -0.19416076881E+03 -0.21820726682E+04  0.25891128470E+04  0.91139624675E+02 0.  0.
        254    2    1    2    0    0 -0.13769747165E+04  0.19416076881E+03  0.60276138424E+03  0.17428697050E+04  0.86053224715E+03 0.  0.
         23    2    4    4    0    0 -0.16719934327E+03  0.33125021154E+03  0.29757828645E+03  0.48448709944E+03  0.92155249045E+02 0.  0.
         23    2    4    4    0    0 -0.12097753732E+04 -0.13708944273E+03  0.30518309779E+03  0.12583826056E+04  0.89666548419E+02 0.  0.
          3    1    3    3  502    0  0.11260597197E+04 -0.13295694311E+03 -0.17303009789E+04  0.20687265451E+04  0.00000000000E+00 0. -1.
         -3    1    3    3    0  502  0.25091499684E+03 -0.61203825692E+02 -0.45177168931E+03  0.52038630188E+03  0.00000000000E+00 0.  1.
         13    1    5    5    0    0 -0.15760535162E+03  0.22522176862E+03  0.19863053649E+03  0.33914360077E+03  0.00000000000E+00 0. -1.
        -13    1    5    5    0    0 -0.95939916511E+01  0.10602844291E+03  0.98947749966E+02  0.14534349867E+03  0.00000000000E+00 0.  1.
          1    1    6    6  503    0 -0.49146469793E+03 -0.86008840335E+02  0.91800480404E+02  0.50730897699E+03  0.00000000000E+00 0. -1.
         -1    1    6    6    0  503 -0.71831067531E+03 -0.51080602396E+02  0.21338261738E+03  0.75107362862E+03  0.00000000000E+00 0.  1.
<mgrwt>
<rscale>  0 0.40338380E+04</rscale>
<asrwt>0</asrwt>
<pdfrwt beam="1">  1        2 0.45471491E+00 0.40338380E+04</pdfrwt>
<pdfrwt beam="2">  1       -2 0.21174395E+00 0.40338380E+04</pdfrwt>
<totfact> 0.16284160E-01</totfact>
</mgrwt>
</event>
<event>
12    3  0.4773567E-008  0.2189692E+04  0.7818608E-02  0.8522731E-01
          1   -1    0    0  501    0  0.00000000000E+00  0.00000000000E+00  0.11975715547E+04  0.11975715547E+04  0.00000000000E+00 0. -1.
         -1   -1    0    0    0  501 -0.00000000000E+00 -0.00000000000E+00 -0.10009321516E+04  0.10009321516E+04  0.00000000000E+00 0.  1.
         23    2    1    2    0    0  0.24555747682E+03 -0.29099205949E+03 -0.74208270372E+03  0.83902253851E+03  0.91089120452E+02 0.  0.
        254    2    1    2    0    0 -0.24555747682E+03  0.29099205949E+03  0.93872210678E+03  0.13594811678E+04  0.90665042814E+03 0.  0.
         23    2    4    4    0    0 -0.12456039538E+03 -0.13477042036E+03 -0.98476307421E+02  0.22821212980E+03  0.93299703967E+02 0.  0.
         23    2    4    4    0    0 -0.12099708145E+03  0.42576247986E+03  0.10371984142E+04  0.11312690380E+04  0.89861577122E+02 0.  0.
          4    1    3    3  502    0  0.37506171089E+02 -0.67109180997E+02 -0.23177374199E+03  0.24419136455E+03  0.00000000000E+00 0. -1.
         -4    1    3    3    0  502  0.20805130574E+03 -0.22388287850E+03 -0.51030896173E+03  0.59483117396E+03  0.00000000000E+00 0.  1.
         13    1    5    5    0    0 -0.10850524816E+03 -0.14905517471E+03 -0.87327859104E+02  0.20400242391E+03  0.00000000000E+00 0. -1.
        -13    1    5    5    0    0 -0.16055147223E+02  0.14284754348E+02 -0.11148448317E+02  0.24209705884E+02  0.00000000000E+00 0.  1.
          4    1    6    6  503    0 -0.12286864509E+03  0.42922699078E+03  0.10169209007E+04  0.11106127281E+04  0.00000000000E+00 0. -1.
         -4    1    6    6    0  503  0.18715636409E+01 -0.34645109210E+01  0.20277513480E+02  0.20656309915E+02  0.00000000000E+00 0.  1.
<mgrwt>
<rscale>  0 0.21896921E+04</rscale>
<asrwt>0</asrwt>
<pdfrwt beam="1">  1        1 0.18424178E+00 0.21896921E+04</pdfrwt>
<pdfrwt beam="2">  1       -1 0.15398956E+00 0.21896921E+04</pdfrwt>
<totfact> 0.31813036E+00</totfact>
</mgrwt>
</event>
<event>
12    3  0.4773567E-008  0.1980843E+04  0.7818608E-02  0.8615630E-01
         -1   -1    0    0    0  501 -0.00000000000E+00  0.00000000000E+00  0.86076681360E+03  0.86076681360E+03  0.00000000000E+00 0.  1.
          1   -1    0    0  501    0  0.00000000000E+00 -0.00000000000E+00 -0.11396061936E+04  0.11396061936E+04  0.00000000000E+00 0. -1.
         23    2    1    2    0    0 -0.60854916608E+03 -0.37970618696E+03  0.19634982097E+03  0.74920355432E+03  0.90795581684E+02 0.  0.
        254    2    1    2    0    0  0.60854916608E+03  0.37970618696E+03 -0.47518920094E+03  0.12511694529E+04  0.90835639873E+03 0.  0.
         23    2    4    4    0    0  0.78011011382E+01 -0.46383385636E+02  0.21472003583E+03  0.23808861680E+03  0.91483441254E+02 0.  0.
         23    2    4    4    0    0  0.60074806494E+03  0.42608957260E+03 -0.68990923677E+03  0.10130808360E+04  0.88923922445E+02 0.  0.
          3    1    3    3  502    0 -0.51814201057E+02 -0.10955047119E+02  0.30582181746E+02  0.61155493040E+02  0.00000000000E+00 0. -1.
         -3    1    3    3    0  502 -0.55673496502E+03 -0.36875113984E+03  0.16576763923E+03  0.68804806128E+03  0.00000000000E+00 0.  1.
         13    1    5    5    0    0 -0.10155803417E+01 -0.64536536901E+02  0.84586641204E+02  0.10639969863E+03  0.00000000000E+00 0.  1.
        -13    1    5    5    0    0  0.88166814799E+01  0.18153151265E+02  0.13013339463E+03  0.13168891817E+03  0.00000000000E+00 0. -1.
          1    1    6    6  503    0  0.57883972291E+03  0.38598826512E+03 -0.65538382920E+03  0.95580873045E+03  0.00000000000E+00 0. -1.
         -1    1    6    6    0  503  0.21908342032E+02  0.40101307473E+02 -0.34525407564E+02  0.57272105593E+02  0.00000000000E+00 0.  1.
<mgrwt>
<rscale>  0 0.19808434E+04</rscale>
<asrwt>0</asrwt>
<pdfrwt beam="1">  1        1 0.17532403E+00 0.19808434E+04</pdfrwt>
<pdfrwt beam="2">  1       -1 0.13242566E+00 0.19808434E+04</pdfrwt>
<totfact> 0.53246117E+00</totfact>
</mgrwt>
</event>
<event>
12    3  0.4773567E-008  0.1161744E+04  0.7818608E-02  0.9147017E-01
         -1   -1    0    0    0  501 -0.00000000000E+00  0.00000000000E+00  0.51225340576E+03  0.51225340576E+03  0.00000000000E+00 0.  1.
          1   -1    0    0  501    0  0.00000000000E+00 -0.00000000000E+00 -0.65868187549E+03  0.65868187549E+03  0.00000000000E+00 0. -1.
         23    2    1    2    0    0 -0.23673849617E+02  0.22972203207E+03 -0.10876412913E+03  0.27054372174E+03  0.89619230169E+02 0.  0.
        254    2    1    2    0    0  0.23673849617E+02 -0.22972203207E+03 -0.37664340599E+02  0.90039155951E+03  0.86945597629E+03 0.  0.
         23    2    4    4    0    0  0.10910238128E+02  0.31957583774E+03 -0.79428776041E+02  0.34178088340E+03  0.90870745748E+02 0.  0.
         23    2    4    4    0    0  0.12763611490E+02 -0.54929786981E+03  0.41764435442E+02  0.55861067611E+03  0.91709104458E+02 0.  0.
          4    1    3    3  502    0  0.13305223348E+02  0.19340625079E+03 -0.99451238106E+02  0.21788427106E+03  0.00000000000E+00 0. -1.
         -4    1    3    3    0  502 -0.36979072965E+02  0.36315781271E+02 -0.93128910207E+01  0.52659450680E+02  0.00000000000E+00 0.  1.
         13    1    5    5    0    0 -0.26712799457E+02  0.80663683180E+02  0.62390221324E+01  0.85200521338E+02  0.00000000000E+00 0. -1.
        -13    1    5    5    0    0  0.37623037585E+02  0.23891215456E+03 -0.85667798174E+02  0.25658036206E+03  0.00000000000E+00 0.  1.
          1    1    6    6  503    0  0.22190189317E+02 -0.30603570019E+02  0.86248401880E+01  0.38773326760E+02  0.00000000000E+00 0. -1.
         -1    1    6    6    0  503 -0.94265778270E+01 -0.51869429979E+03  0.33139595254E+02  0.51983734935E+03  0.00000000000E+00 0.  1.
<mgrwt>
<rscale>  0 0.11617436E+04</rscale>
<asrwt>0</asrwt>
<pdfrwt beam="1">  1        1 0.10133567E+00 0.11617436E+04</pdfrwt>
<pdfrwt beam="2">  1       -1 0.78808216E-01 0.11617436E+04</pdfrwt>
<totfact> 0.47749166E+01</totfact>
</mgrwt>
</event>
<event>
12    3  0.4773567E-008  0.4014880E+04  0.7818608E-02  0.8001552E-01
         -1   -1    0    0    0  501 -0.00000000000E+00  0.00000000000E+00  0.17755613275E+04  0.17755613275E+04  0.00000000000E+00 0.  1.
          1   -1    0    0  501    0  0.00000000000E+00 -0.00000000000E+00 -0.22696006193E+04  0.22696006193E+04  0.00000000000E+00 0. -1.
         23    2    1    2    0    0 -0.13476672350E+04  0.47338647397E+03  0.10362191945E+04  0.17670919263E+04  0.92530681361E+02 0.  0.
        254    2    1    2    0    0  0.13476672350E+04 -0.47338647397E+03 -0.15302584863E+04  0.22780700205E+04  0.89867138221E+03 0.  0.
         23    2    4    4    0    0  0.14365428994E+04 -0.46077447369E+03 -0.12204151956E+04  0.19427512755E+04  0.94343261704E+02 0.  0.
         23    2    4    4    0    0 -0.88875664393E+02 -0.12612000281E+02 -0.30984329063E+03  0.33531874501E+03  0.91530594513E+02 0.  0.
          4    1    3    3  502    0 -0.15947154095E+03  0.88461742786E+02  0.13592483099E+03  0.22744716307E+03  0.00000000000E+00 0. -1.
         -4    1    3    3    0  502 -0.11881956941E+04  0.38492473118E+03  0.90029436350E+03  0.15396447633E+04  0.00000000000E+00 0.  1.
         13    1    5    5    0    0  0.89782392975E+03 -0.28915693705E+03 -0.82112693021E+03  0.12505794571E+04  0.00000000000E+00 0. -1.
        -13    1    5    5    0    0  0.53871896969E+03 -0.17161753664E+03 -0.39928826543E+03  0.69217181834E+03  0.00000000000E+00 0.  1.
          1    1    6    6  503    0 -0.86195233100E+02  0.24086704598E+02 -0.24393081301E+03  0.25983077009E+03  0.00000000000E+00 0. -1.
         -1    1    6    6    0  503 -0.26804312930E+01 -0.36698704878E+02 -0.65912477622E+02  0.75487974922E+02  0.00000000000E+00 0.  1.
<mgrwt>
<rscale>  0 0.40148799E+04</rscale>
<asrwt>0</asrwt>
<pdfrwt beam="1">  1        1 0.34916933E+00 0.40148799E+04</pdfrwt>
<pdfrwt beam="2">  1       -1 0.27316328E+00 0.40148799E+04</pdfrwt>
<totfact> 0.75228958E-02</totfact>
</mgrwt>
</event>
<event>
12    3  0.4773567E-008  0.2970984E+04  0.7818608E-02  0.8252065E-01
          2   -1    0    0  501    0  0.00000000000E+00  0.00000000000E+00  0.22266712070E+04  0.22266712070E+04  0.00000000000E+00 0. -1.
         -2   -1    0    0    0  501 -0.00000000000E+00 -0.00000000000E+00 -0.99102485406E+03  0.99102485406E+03  0.00000000000E+00 0.  1.
         23    2    1    2    0    0  0.11589538680E+04  0.62869260018E+03  0.86475104266E+03  0.15794405021E+04  0.91703218245E+02 0.  0.
        254    2    1    2    0    0 -0.11589538680E+04 -0.62869260018E+03  0.37089531031E+03  0.16382555589E+04  0.89882673049E+03 0.  0.
         23    2    4    4    0    0 -0.41691073384E+03 -0.71758373745E+03  0.10955231753E+03  0.84188566470E+03  0.89603470345E+02 0.  0.
         23    2    4    4    0    0 -0.74204313421E+03  0.88891137273E+02  0.26134299278E+03  0.79636989425E+03  0.85878992135E+02 0.  0.
          1    1    3    3  502    0  0.11324260618E+03  0.78261225310E+02  0.11993362293E+03  0.18257267361E+03  0.00000000000E+00 0. -1.
         -1    1    3    3    0  502  0.10457112619E+04  0.55043137487E+03  0.74481741973E+03  0.13968678285E+04  0.00000000000E+00 0.  1.
         13    1    5    5    0    0 -0.39235146866E+03 -0.61716993273E+03  0.98226983343E+02  0.73789358384E+03  0.00000000000E+00 0.  1.
        -13    1    5    5    0    0 -0.24559265181E+02 -0.10041380472E+03  0.11325334189E+02  0.10399208085E+03  0.00000000000E+00 0. -1.
          3    1    6    6  503    0 -0.78558212705E+02 -0.12683433907E+02  0.43500761794E+02  0.90689462209E+02  0.00000000000E+00 0. -1.
         -3    1    6    6    0  503 -0.66348492150E+03  0.10157457118E+03  0.21784223099E+03  0.70568043205E+03  0.00000000000E+00 0.  1.
<mgrwt>
<rscale>  0 0.29709840E+04</rscale>
<asrwt>0</asrwt>
<pdfrwt beam="1">  1        2 0.34256480E+00 0.29709840E+04</pdfrwt>
<pdfrwt beam="2">  1       -2 0.15246536E+00 0.29709840E+04</pdfrwt>
<totfact> 0.12279252E+00</totfact>
</mgrwt>
</event>
<event>
12    3  0.4773567E-008  0.1165962E+04  0.7818608E-02  0.9143183E-01
         -1   -1    0    0    0  501 -0.00000000000E+00  0.00000000000E+00  0.56122935259E+03  0.56122935259E+03  0.00000000000E+00 0.  1.
          1   -1    0    0  501    0  0.00000000000E+00 -0.00000000000E+00 -0.60557565620E+03  0.60557565620E+03  0.00000000000E+00 0. -1.
         23    2    1    2    0    0 -0.84440560552E+01  0.19641598871E+03 -0.10066277531E+03  0.23846291123E+03  0.89894510379E+02 0.  0.
        254    2    1    2    0    0  0.84440560552E+01 -0.19641598871E+03  0.56316471704E+02  0.92834209757E+03  0.90553683659E+03 0.  0.
         23    2    4    4    0    0  0.40621747088E+03  0.60806827153E+02  0.13141585878E+03  0.43998571736E+03  0.87219261981E+02 0.  0.
         23    2    4    4    0    0 -0.39777341483E+03 -0.25722281586E+03 -0.75099387081E+02  0.48835638021E+03  0.92004182533E+02 0.  0.
          1    1    3    3  502    0  0.27344773600E+02  0.16785438465E+03 -0.73926037229E+02  0.18543972085E+03  0.00000000000E+00 0. -1.
         -1    1    3    3    0  502 -0.35788829656E+02  0.28561604056E+02 -0.26736738084E+02  0.53023190377E+02  0.00000000000E+00 0.  1.
         13    1    5    5    0    0  0.26412775266E+02  0.16683875652E+02 -0.92362169129E+01  0.32577509219E+02  0.00000000000E+00 0. -1.
        -13    1    5    5    0    0  0.37980469562E+03  0.44122951500E+02  0.14065207570E+03  0.40740820814E+03  0.00000000000E+00 0.  1.
          3    1    6    6  503    0 -0.11108230080E+03 -0.94727475700E+02  0.14903131237E+02  0.14674697791E+03  0.00000000000E+00 0. -1.
         -3    1    6    6    0  503 -0.28669111403E+03 -0.16249534016E+03 -0.90002518317E+02  0.34160940230E+03  0.00000000000E+00 0.  1.
<mgrwt>
<rscale>  0 0.11659620E+04</rscale>
<asrwt>0</asrwt>
<pdfrwt beam="1">  1        1 0.93165486E-01 0.11659620E+04</pdfrwt>
<pdfrwt beam="2">  1       -1 0.86342977E-01 0.11659620E+04</pdfrwt>
<totfact> 0.44383224E+01</totfact>
</mgrwt>
</event>
<event>
12    3  0.4773567E-008  0.1345753E+04  0.7818608E-02  0.8994050E-01
         -1   -1    0    0    0  501 -0.00000000000E+00  0.00000000000E+00  0.13907301700E+04  0.13907301700E+04  0.00000000000E+00 0.  1.
          1   -1    0    0  501    0  0.00000000000E+00 -0.00000000000E+00 -0.32555739662E+03  0.32555739662E+03  0.00000000000E+00 0. -1.
         23    2    1    2    0    0 -0.22373131594E+03 -0.23096702933E+03  0.52711524131E+03  0.62428848921E+03  0.92109553071E+02 0.  0.
        254    2    1    2    0    0  0.22373131594E+03  0.23096702933E+03  0.53805753204E+03  0.10919990774E+04  0.89417817400E+03 0.  0.
         23    2    4    4    0    0  0.25529223522E+03 -0.25426877060E+03  0.15144124936E+02  0.37211525117E+03  0.91726128053E+02 0.  0.
         23    2    4    4    0    0 -0.31560919287E+02  0.48523579993E+03  0.52291340711E+03  0.71988382621E+03  0.91347790051E+02 0.  0.
          1    1    3    3  502    0 -0.30420197991E+02 -0.56299044042E+02  0.52112651599E+02  0.82526960822E+02  0.00000000000E+00 0. -1.
         -1    1    3    3    0  502 -0.19331111794E+03 -0.17466798529E+03  0.47500258972E+03  0.54176152839E+03  0.00000000000E+00 0.  1.
         13    1    5    5    0    0  0.57771116072E+02 -0.71106609075E+02  0.43184694120E+02  0.10128459662E+03  0.00000000000E+00 0.  1.
        -13    1    5    5    0    0  0.19752111915E+03 -0.18316216153E+03 -0.28040569183E+02  0.27083065455E+03  0.00000000000E+00 0. -1.
          3    1    6    6  503    0 -0.60602013755E+02  0.29574684005E+03  0.34370100265E+03  0.45745948093E+03  0.00000000000E+00 0. -1.
         -3    1    6    6    0  503  0.29041094468E+02  0.18948895988E+03  0.17921240446E+03  0.26242434528E+03  0.00000000000E+00 0.  1.
<mgrwt>
<rscale>  0 0.13457526E+04</rscale>
<asrwt>0</asrwt>
<pdfrwt beam="1">  1        1 0.50085754E-01 0.13457526E+04</pdfrwt>
<pdfrwt beam="2">  1       -1 0.21395848E+00 0.13457526E+04</pdfrwt>
<totfact> 0.93234487E+00</totfact>
</mgrwt>
</event>
<event>
12    3  0.4773567E-008  0.1090677E+04  0.7818608E-02  0.9214326E-01
         -2   -1    0    0    0  501 -0.00000000000E+00  0.00000000000E+00  0.29975330466E+03  0.29975330466E+03  0.00000000000E+00 0.  1.
          2   -1    0    0  501    0  0.00000000000E+00 -0.00000000000E+00 -0.99213019142E+03  0.99213019142E+03  0.00000000000E+00 0. -1.
         23    2    1    2    0    0 -0.18653296907E+02  0.36369178076E+01 -0.30359045966E+03  0.31744211598E+03  0.90780819248E+02 0.  0.
        254    2    1    2    0    0  0.18653296907E+02 -0.36369178076E+01 -0.38878642709E+03  0.97444138009E+03  0.89331962067E+03 0.  0.
         23    2    4    4    0    0  0.13582865118E+03 -0.31892240795E+03 -0.49350565239E+03  0.61022432514E+03  0.93085838204E+02 0.  0.
         23    2    4    4    0    0 -0.11717535428E+03  0.31528549015E+03  0.10471922530E+03  0.36421705495E+03  0.92482122710E+02 0.  0.
          4    1    3    3  502    0 -0.52790589368E+01 -0.42288873313E+02 -0.17852716350E+03  0.18354336103E+03  0.00000000000E+00 0. -1.
         -4    1    3    3    0  502 -0.13374237971E+02  0.45925791121E+02 -0.12506329616E+03  0.13389875496E+03  0.00000000000E+00 0.  1.
         13    1    5    5    0    0 -0.65451226532E+00 -0.47586155212E+02 -0.11815661071E+03  0.12738074897E+03  0.00000000000E+00 0. -1.
        -13    1    5    5    0    0  0.13648316345E+03 -0.27133625274E+03 -0.37534904169E+03  0.48284357617E+03  0.00000000000E+00 0.  1.
          1    1    6    6  503    0 -0.10640349865E+02  0.10540022082E+03  0.68289679569E+02  0.12603929518E+03  0.00000000000E+00 0. -1.
         -1    1    6    6    0  503 -0.10653500441E+03  0.20988526933E+03  0.36429545730E+02  0.23817775977E+03  0.00000000000E+00 0.  1.
<mgrwt>
<rscale>  0 0.10906774E+04</rscale>
<asrwt>0</asrwt>
<pdfrwt beam="1">  1        2 0.15263541E+00 0.10906774E+04</pdfrwt>
<pdfrwt beam="2">  1       -2 0.46115893E-01 0.10906774E+04</pdfrwt>
<totfact> 0.11282799E+02</totfact>
</mgrwt>
</event>
<event>
12    3  0.4773567E-008  0.1533927E+04  0.7818608E-02  0.8862200E-01
         -2   -1    0    0    0  501 -0.00000000000E+00  0.00000000000E+00  0.47010139660E+03  0.47010139660E+03  0.00000000000E+00 0.  1.
          2   -1    0    0  501    0  0.00000000000E+00 -0.00000000000E+00 -0.12512903892E+04  0.12512903892E+04  0.00000000000E+00 0. -1.
         23    2    1    2    0    0  0.28974844245E+03  0.40377845091E+03 -0.25772828793E+03  0.56800223439E+03  0.95976406212E+02 0.  0.
        254    2    1    2    0    0 -0.28974844245E+03 -0.40377845091E+03 -0.52346070467E+03  0.11533895514E+04  0.89961388975E+03 0.  0.
         23    2    4    4    0    0 -0.27664701543E+03 -0.63139140851E+03 -0.57598309113E+03  0.90271267526E+03  0.89134566379E+02 0.  0.
         23    2    4    4    0    0 -0.13101427023E+02  0.22761295760E+03  0.52522386459E+02  0.25067687614E+03  0.90005495921E+02 0.  0.
          1    1    3    3  502    0  0.14931402948E+03  0.16985368183E+03 -0.69714952097E+02  0.23665402421E+03  0.00000000000E+00 0. -1.
         -1    1    3    3    0  502  0.14043441297E+03  0.23392476909E+03 -0.18801333583E+03  0.33134821018E+03  0.00000000000E+00 0.  1.
         13    1    5    5    0    0 -0.22041993488E+03 -0.45960591278E+03 -0.37774153020E+03  0.63443770884E+03  0.00000000000E+00 0. -1.
        -13    1    5    5    0    0 -0.56227080547E+02 -0.17178549573E+03 -0.19824156093E+03  0.26827496642E+03  0.00000000000E+00 0.  1.
          3    1    6    6  503    0  0.13835172436E+02  0.13102975617E+03 -0.10615607697E+02  0.13218509797E+03  0.00000000000E+00 0. -1.
         -3    1    6    6    0  503 -0.26936599458E+02  0.96583201432E+02  0.63137994156E+02  0.11849177818E+03  0.00000000000E+00 0.  1.
<mgrwt>
<rscale>  0 0.15339275E+04</rscale>
<asrwt>0</asrwt>
<pdfrwt beam="1">  1        2 0.19250622E+00 0.15339275E+04</pdfrwt>
<pdfrwt beam="2">  1       -2 0.72323291E-01 0.15339275E+04</pdfrwt>
<totfact> 0.29447051E+01</totfact>
</mgrwt>
</event>
<event>
12    3  0.4773567E-008  0.1913527E+04  0.7818608E-02  0.8648152E-01
          2   -1    0    0  501    0  0.00000000000E+00  0.00000000000E+00  0.25535906164E+04  0.25535906164E+04  0.00000000000E+00 0. -1.
         -2   -1    0    0    0  501 -0.00000000000E+00 -0.00000000000E+00 -0.35847424700E+03  0.35847424700E+03  0.00000000000E+00 0.  1.
         23    2    1    2    0    0  0.87604248870E+02  0.31883244181E+03 -0.15340863905E+03  0.37581624786E+03  0.91515087555E+02 0.  0.
        254    2    1    2    0    0 -0.87604248870E+02 -0.31883244181E+03  0.23485250085E+04  0.25362486156E+04  0.89869833322E+03 0.  0.
         23    2    4    4    0    0  0.37047177262E+02  0.27116246827E+03  0.38988020381E+03  0.48492224374E+03  0.90782330928E+02 0.  0.
         23    2    4    4    0    0 -0.12465142613E+03 -0.58999491008E+03  0.19586448047E+04  0.20513263718E+04  0.89545747725E+02 0.  0.
          3    1    3    3  502    0 -0.28696429792E+01  0.92031170886E+02 -0.99502205875E+01  0.92611976305E+02  0.00000000000E+00 0. -1.
         -3    1    3    3    0  502  0.90473891849E+02  0.22680127093E+03 -0.14345841847E+03  0.28320427156E+03  0.00000000000E+00 0.  1.
         13    1    5    5    0    0  0.57444664756E+02  0.13805714123E+03  0.24580615414E+03  0.28771570893E+03  0.00000000000E+00 0. -1.
        -13    1    5    5    0    0 -0.20397487493E+02  0.13310532704E+03  0.14407404967E+03  0.19720653481E+03  0.00000000000E+00 0.  1.
          3    1    6    6  503    0 -0.13554336147E+03 -0.55154847785E+03  0.18635311584E+04  0.19481596712E+04  0.00000000000E+00 0. -1.
         -3    1    6    6    0  503  0.10891935339E+02 -0.38446432226E+02  0.95113646282E+02  0.10316670061E+03  0.00000000000E+00 0.  1.
<mgrwt>
<rscale>  0 0.19135271E+04</rscale>
<asrwt>0</asrwt>
<pdfrwt beam="1">  1        2 0.39286008E+00 0.19135271E+04</pdfrwt>
<pdfrwt beam="2">  1       -2 0.55149886E-01 0.19135271E+04</pdfrwt>
<totfact> 0.93791757E+00</totfact>
</mgrwt>
</event>
<event>
12    3  0.4773567E-008  0.1465972E+04  0.7818608E-02  0.8907402E-01
         -2   -1    0    0    0  501 -0.00000000000E+00  0.00000000000E+00  0.64802020207E+03  0.64802020207E+03  0.00000000000E+00 0.  1.
          2   -1    0    0  501    0  0.00000000000E+00 -0.00000000000E+00 -0.82909263576E+03  0.82909263576E+03  0.00000000000E+00 0. -1.
         23    2    1    2    0    0 -0.11278473398E+03 -0.39755329892E+02  0.38346046160E+03  0.41189296050E+03  0.91175670101E+02 0.  0.
        254    2    1    2    0    0  0.11278473398E+03  0.39755329892E+02 -0.56453289530E+03  0.10652198773E+04  0.89537428750E+03 0.  0.
         23    2    4    4    0    0 -0.37134959569E+03  0.95594593125E+02 -0.34492430760E+03  0.52349315684E+03  0.89629564494E+02 0.  0.
         23    2    4    4    0    0  0.48413432967E+03 -0.55839263233E+02 -0.21960858770E+03  0.54172672049E+03  0.87953598096E+02 0.  0.
          4    1    3    3  502    0 -0.18925505658E+01 -0.20645849338E+02  0.12427511108E+02  0.24171799165E+02  0.00000000000E+00 0. -1.
         -4    1    3    3    0  502 -0.11089218342E+03 -0.19109480554E+02  0.37103295050E+03  0.38772116133E+03  0.00000000000E+00 0.  1.
         13    1    5    5    0    0 -0.10579975875E+03  0.49743258849E+02 -0.15346887025E+03  0.19292660493E+03  0.00000000000E+00 0.  1.
        -13    1    5    5    0    0 -0.26554983694E+03  0.45851334276E+02 -0.19145543735E+03  0.33056655191E+03  0.00000000000E+00 0. -1.
          3    1    6    6  503    0  0.21881812531E+03 -0.14032385995E+02 -0.14532304417E+03  0.26305335388E+03  0.00000000000E+00 0. -1.
         -3    1    6    6    0  503  0.26531620436E+03 -0.41806877237E+02 -0.74285543530E+02  0.27867336661E+03  0.00000000000E+00 0.  1.
<mgrwt>
<rscale>  0 0.14659724E+04</rscale>
<asrwt>0</asrwt>
<pdfrwt beam="1">  1        2 0.12755271E+00 0.14659724E+04</pdfrwt>
<pdfrwt beam="2">  1       -2 0.99695415E-01 0.14659724E+04</pdfrwt>
<totfact> 0.26465992E+01</totfact>
</mgrwt>
</event>
<event>
12    3  0.4773567E-008  0.2738255E+04  0.7818608E-02  0.8322698E-01
         -2   -1    0    0    0  501 -0.00000000000E+00  0.00000000000E+00  0.10817543247E+04  0.10817543247E+04  0.00000000000E+00 0.  1.
          2   -1    0    0  501    0  0.00000000000E+00 -0.00000000000E+00 -0.17328423156E+04  0.17328423156E+04  0.00000000000E+00 0. -1.
         23    2    1    2    0    0  0.53702123141E+03 -0.85171341005E+03 -0.99668159161E+03  0.14195625909E+04  0.89309677845E+02 0.  0.
        254    2    1    2    0    0 -0.53702123141E+03  0.85171341005E+03  0.34559360080E+03  0.13950340494E+04  0.90159720842E+03 0.  0.
         23    2    4    4    0    0 -0.15811163986E+02  0.80603741601E+03  0.13135610158E+03  0.82209614492E+03  0.92958792839E+02 0.  0.
         23    2    4    4    0    0 -0.52121006743E+03  0.45675994043E+02  0.21423749923E+03  0.57293790448E+03  0.92811128067E+02 0.  0.
          4    1    3    3  502    0  0.10829960903E+03 -0.19780775950E+03 -0.27352933361E+03  0.35450671556E+03  0.00000000000E+00 0.  1.
         -4    1    3    3    0  502  0.42872162239E+03 -0.65390565055E+03 -0.72315225801E+03  0.10650558753E+04  0.00000000000E+00 0. -1.
         13    1    5    5    0    0 -0.31856975452E+02  0.23316309799E+03  0.71114318126E+02  0.24583967009E+03  0.00000000000E+00 0. -1.
        -13    1    5    5    0    0  0.16045811467E+02  0.57287431802E+03  0.60241783451E+02  0.57625647484E+03  0.00000000000E+00 0.  1.
          4    1    6    6  503    0 -0.24277507149E+03 -0.16782317044E+02  0.70119182570E+02  0.25325497284E+03  0.00000000000E+00 0. -1.
         -4    1    6    6    0  503 -0.27843499593E+03  0.62458311086E+02  0.14411831666E+03  0.31968293164E+03  0.00000000000E+00 0.  1.
<mgrwt>
<rscale>  0 0.27382547E+04</rscale>
<asrwt>0</asrwt>
<pdfrwt beam="1">  1        2 0.26659112E+00 0.27382547E+04</pdfrwt>
<pdfrwt beam="2">  1       -2 0.16642374E+00 0.27382547E+04</pdfrwt>
<totfact> 0.18595232E+00</totfact>
</mgrwt>
</event>
<event>
12    3  0.4773567E-008  0.2177186E+04  0.7818608E-02  0.8527984E-01
          1   -1    0    0  501    0  0.00000000000E+00  0.00000000000E+00  0.37109838401E+04  0.37109838401E+04  0.00000000000E+00 0. -1.
         -1   -1    0    0    0  501 -0.00000000000E+00 -0.00000000000E+00 -0.31933181709E+03  0.31933181709E+03  0.00000000000E+00 0.  1.
         23    2    1    2    0    0 -0.83485705323E+03 -0.22084860486E+03  0.18945511563E+04  0.20840663700E+04  0.90819297686E+02 0.  0.
        254    2    1    2    0    0  0.83485705323E+03  0.22084860486E+03  0.14971008666E+04  0.19462492872E+04  0.89488260536E+03 0.  0.
         23    2    4    4    0    0  0.22223239862E+03  0.19753141059E+03 -0.15563209255E+02  0.31150748823E+03  0.91590417488E+02 0.  0.
         23    2    4    4    0    0  0.61262465461E+03  0.23317194279E+02  0.15126640759E+04  0.16347417990E+04  0.91517669155E+02 0.  0.
          2    1    3    3  502    0 -0.67650797381E+01 -0.36982774735E+01  0.49280318230E+02  0.49879788742E+02  0.00000000000E+00 0.  1.
         -2    1    3    3    0  502 -0.82809197349E+03 -0.21715032739E+03  0.18452708381E+04  0.20341865812E+04  0.00000000000E+00 0. -1.
         13    1    5    5    0    0  0.22016041198E+03  0.15781690924E+03 -0.78335115619E+01  0.27099473749E+03  0.00000000000E+00 0.  1.
        -13    1    5    5    0    0  0.20719866410E+01  0.39714501347E+02 -0.77296976933E+01  0.40512750737E+02  0.00000000000E+00 0. -1.
          2    1    6    6  503    0  0.39768053015E+03  0.52239616210E+02  0.91963403088E+03  0.10032973300E+04  0.00000000000E+00 0. -1.
         -2    1    6    6    0  503  0.21494412447E+03 -0.28922421931E+02  0.59303004501E+03  0.63144446899E+03  0.00000000000E+00 0.  1.
<mgrwt>
<rscale>  0 0.21771865E+04</rscale>
<asrwt>0</asrwt>
<pdfrwt beam="1">  1        1 0.57092056E+00 0.21771865E+04</pdfrwt>
<pdfrwt beam="2">  1       -1 0.49127974E-01 0.21771865E+04</pdfrwt>
<totfact> 0.64329959E-01</totfact>
</mgrwt>
</event>
<event>
12    3  0.4773567E-008  0.1107245E+04  0.7818608E-02  0.9198159E-01
         -2   -1    0    0    0  501 -0.00000000000E+00  0.00000000000E+00  0.19915783746E+03  0.19915783746E+03  0.00000000000E+00 0.  1.
          2   -1    0    0  501    0  0.00000000000E+00 -0.00000000000E+00 -0.15389709801E+04  0.15389709801E+04  0.00000000000E+00 0. -1.
         23    2    1    2    0    0 -0.99081921413E+01 -0.12128145083E+03 -0.47630804589E+02  0.15923442957E+03  0.90992018474E+02 0.  0.
        254    2    1    2    0    0  0.99081921413E+01  0.12128145083E+03 -0.12921823380E+04  0.15788943880E+04  0.89909116949E+03 0.  0.
         23    2    4    4    0    0 -0.20161703875E+03 -0.27589733100E+03 -0.22683834537E+03  0.41928277713E+03  0.87026689595E+02 0.  0.
         23    2    4    4    0    0  0.21152523089E+03  0.39717878183E+03 -0.10653439927E+04  0.11596116109E+04  0.85131411632E+02 0.  0.
          4    1    3    3  502    0 -0.22765343871E+02 -0.78239380008E+02 -0.71463756381E+02  0.10838233224E+03  0.00000000000E+00 0. -1.
         -4    1    3    3    0  502  0.12857151730E+02 -0.43042070825E+02  0.23832951792E+02  0.50852097327E+02  0.00000000000E+00 0.  1.
         13    1    5    5    0    0 -0.48078376641E+02 -0.19385732920E+02 -0.49568391157E+02  0.71724210300E+02  0.00000000000E+00 0.  1.
        -13    1    5    5    0    0 -0.15353866211E+03 -0.25651159808E+03 -0.17726995422E+03  0.34755856684E+03  0.00000000000E+00 0. -1.
          2    1    6    6  503    0  0.16553058845E+03  0.35991792126E+03 -0.96432005575E+03  0.10425231200E+04  0.00000000000E+00 0. -1.
         -2    1    6    6    0  503  0.45994642442E+02  0.37260860568E+02 -0.10102393693E+03  0.11708849088E+03  0.00000000000E+00 0.  1.
<mgrwt>
<rscale>  0 0.11072455E+04</rscale>
<asrwt>0</asrwt>
<pdfrwt beam="1">  1        2 0.23676478E+00 0.11072455E+04</pdfrwt>
<pdfrwt beam="2">  1       -2 0.30639666E-01 0.11072455E+04</pdfrwt>
<totfact> 0.11797626E+02</totfact>
</mgrwt>
</event>
<event>
12    3  0.4773567E-008  0.1708938E+04  0.7818608E-02  0.8756283E-01
         -1   -1    0    0    0  501 -0.00000000000E+00  0.00000000000E+00  0.97879950598E+03  0.97879950598E+03  0.00000000000E+00 0.  1.
          1   -1    0    0  501    0  0.00000000000E+00 -0.00000000000E+00 -0.74593145208E+03  0.74593145208E+03  0.00000000000E+00 0. -1.
         23    2    1    2    0    0 -0.25724674091E+02 -0.35393865173E+03 -0.42188616934E+03  0.55862009630E+03  0.90189489796E+02 0.  0.
        254    2    1    2    0    0  0.25724674091E+02  0.35393865173E+03  0.65475422324E+03  0.11661108618E+04  0.89731662249E+03 0.  0.
         23    2    4    4    0    0 -0.16259886464E+03 -0.10147964636E+03  0.62927467986E+03  0.66405530395E+03  0.90809220818E+02 0.  0.
         23    2    4    4    0    0  0.18832353873E+03  0.45541829809E+03  0.25479543386E+02  0.50205555781E+03  0.92406680052E+02 0.  0.
          2    1    3    3  502    0 -0.15030466602E+02 -0.53855509243E+02 -0.12219915971E+03  0.13438365018E+03  0.00000000000E+00 0. -1.
         -2    1    3    3    0  502 -0.10694207489E+02 -0.30008314249E+03 -0.29968700963E+03  0.42423644612E+03  0.00000000000E+00 0.  1.
         13    1    5    5    0    0 -0.72599787491E+02 -0.83198680102E+02  0.24138271395E+03  0.26543994445E+03  0.00000000000E+00 0.  1.
        -13    1    5    5    0    0 -0.89999077148E+02 -0.18280966257E+02  0.38789196591E+03  0.39861535950E+03  0.00000000000E+00 0. -1.
          2    1    6    6  503    0 -0.98330404381E+01  0.32152936406E+02 -0.34971772965E+01  0.33804293408E+02  0.00000000000E+00 0. -1.
         -2    1    6    6    0  503  0.19815657917E+03  0.42326536169E+03  0.28976720683E+02  0.46825126440E+03  0.00000000000E+00 0.  1.
<mgrwt>
<rscale>  0 0.17089381E+04</rscale>
<asrwt>0</asrwt>
<pdfrwt beam="1">  1        1 0.11475868E+00 0.17089381E+04</pdfrwt>
<pdfrwt beam="2">  1       -1 0.15058454E+00 0.17089381E+04</pdfrwt>
<totfact> 0.81101448E+00</totfact>
</mgrwt>
</event>
<event>
12    3  0.4773567E-008  0.1960209E+04  0.7818608E-02  0.8625453E-01
         -2   -1    0    0    0  501 -0.00000000000E+00  0.00000000000E+00  0.63070060527E+03  0.63070060527E+03  0.00000000000E+00 0.  1.
          2   -1    0    0  501    0  0.00000000000E+00 -0.00000000000E+00 -0.15230765399E+04  0.15230765399E+04  0.00000000000E+00 0. -1.
         23    2    1    2    0    0  0.69009443607E+03 -0.94909356300E+02  0.78742823806E+01  0.70262790360E+03  0.91574286656E+02 0.  0.
        254    2    1    2    0    0 -0.69009443607E+03  0.94909356300E+02 -0.90025021699E+03  0.14511492416E+04  0.90008085830E+03 0.  0.
         23    2    4    4    0    0 -0.75043089837E+03 -0.19594997731E+03 -0.44278908835E+03  0.89790269171E+03  0.92866248961E+02 0.  0.
         23    2    4    4    0    0  0.60336462290E+02  0.29085933361E+03 -0.45746112864E+03  0.55324654985E+03  0.92581964067E+02 0.  0.
          3    1    3    3  502    0  0.86297958722E+02  0.18392691246E+02 -0.40158972198E+00  0.88237123962E+02  0.00000000000E+00 0. -1.
         -3    1    3    3    0  502  0.60379647735E+03 -0.11330204755E+03  0.82758721026E+01  0.61439077964E+03  0.00000000000E+00 0.  1.
         13    1    5    5    0    0 -0.15134822376E+00  0.20659216787E+01  0.24988120212E+01  0.32457665019E+01  0.00000000000E+00 0.  1.
        -13    1    5    5    0    0 -0.75027955014E+03 -0.19801589899E+03 -0.44528790037E+03  0.89465692521E+03  0.00000000000E+00 0. -1.
          1    1    6    6  503    0  0.34878170380E+02  0.24587643807E+03 -0.31133044078E+03  0.39824408711E+03  0.00000000000E+00 0. -1.
         -1    1    6    6    0  503  0.25458291911E+02  0.44982895546E+02 -0.14613068787E+03  0.15500246274E+03  0.00000000000E+00 0.  1.
<mgrwt>
<rscale>  0 0.19602095E+04</rscale>
<asrwt>0</asrwt>
<pdfrwt beam="1">  1        2 0.23431947E+00 0.19602095E+04</pdfrwt>
<pdfrwt beam="2">  1       -2 0.97030861E-01 0.19602095E+04</pdfrwt>
<totfact> 0.10183978E+01</totfact>
</mgrwt>
</event>
<event>
12    3  0.4773567E-008  0.2175739E+04  0.7818608E-02  0.8528594E-01
         -1   -1    0    0    0  501 -0.00000000000E+00  0.00000000000E+00  0.10496493352E+04  0.10496493352E+04  0.00000000000E+00 0.  1.
          1   -1    0    0  501    0  0.00000000000E+00 -0.00000000000E+00 -0.11274816077E+04  0.11274816077E+04  0.00000000000E+00 0. -1.
         23    2    1    2    0    0 -0.62510377734E+03  0.46257754566E+03  0.42384382037E+03  0.89043074610E+03  0.92144513354E+02 0.  0.
        254    2    1    2    0    0  0.62510377734E+03 -0.46257754566E+03 -0.50167609287E+03  0.12867001968E+04  0.89397191019E+03 0.  0.
         23    2    4    4    0    0  0.62498160506E+03 -0.27344566545E+03 -0.71123217525E+03  0.98981850375E+03  0.92276349334E+02 0.  0.
         23    2    4    4    0    0  0.12217228420E+00 -0.18913188021E+03  0.20955608238E+03  0.29688169309E+03  0.91946207053E+02 0.  0.
          1    1    3    3  502    0 -0.26897840444E+03  0.17512729563E+03  0.12841987091E+03  0.34570307342E+03  0.00000000000E+00 0. -1.
         -1    1    3    3    0  502 -0.35612537290E+03  0.28745025003E+03  0.29542394946E+03  0.54472767268E+03  0.00000000000E+00 0.  1.
         13    1    5    5    0    0  0.42517439010E+03 -0.18056269455E+03 -0.54100653032E+03  0.71138190483E+03  0.00000000000E+00 0. -1.
        -13    1    5    5    0    0  0.19980721495E+03 -0.92882970893E+02 -0.17022564493E+03  0.27843659892E+03  0.00000000000E+00 0.  1.
          3    1    6    6  503    0 -0.27283573873E+01 -0.17990129741E+03  0.21896001775E+03  0.28339973556E+03  0.00000000000E+00 0. -1.
         -3    1    6    6    0  503  0.28505296715E+01 -0.92305828012E+01 -0.94039353721E+01  0.13481957526E+02  0.00000000000E+00 0.  1.
<mgrwt>
<rscale>  0 0.21757392E+04</rscale>
<asrwt>0</asrwt>
<pdfrwt beam="1">  1        1 0.17345871E+00 0.21757392E+04</pdfrwt>
<pdfrwt beam="2">  1       -1 0.16148451E+00 0.21757392E+04</pdfrwt>
<totfact> 0.31460140E+00</totfact>
</mgrwt>
</event>
<event>
12    3  0.4773567E-008  0.1226847E+04  0.7818608E-02  0.9089677E-01
         -1   -1    0    0    0  501 -0.00000000000E+00  0.00000000000E+00  0.22443952191E+03  0.22443952191E+03  0.00000000000E+00 0.  1.
          1   -1    0    0  501    0  0.00000000000E+00 -0.00000000000E+00 -0.16765688248E+04  0.16765688248E+04  0.00000000000E+00 0. -1.
         23    2    1    2    0    0  0.12004714700E+03  0.24341966566E+03 -0.38733004812E+03  0.48136579373E+03  0.89576838865E+02 0.  0.
        254    2    1    2    0    0 -0.12004714700E+03 -0.24341966566E+03 -0.10647992548E+04  0.14196425530E+04  0.89884541173E+03 0.  0.
         23    2    4    4    0    0 -0.18837344089E+03  0.17481799115E+03 -0.92507647508E+03  0.96438633198E+03  0.90711792480E+02 0.  0.
         23    2    4    4    0    0  0.68326293896E+02 -0.41823765681E+03 -0.13972277971E+03  0.45525622103E+03  0.90247169534E+02 0.  0.
          1    1    3    3  502    0 -0.64413519581E+01  0.26252852037E+01 -0.38005854398E+02  0.38637133770E+02  0.00000000000E+00 0. -1.
         -1    1    3    3    0  502  0.12648849895E+03  0.24079438046E+03 -0.34932419372E+03  0.44272865996E+03  0.00000000000E+00 0.  1.
         13    1    5    5    0    0 -0.18807331203E+02  0.33183624404E+02 -0.27860423247E+03  0.28120310629E+03  0.00000000000E+00 0. -1.
        -13    1    5    5    0    0 -0.16956610969E+03  0.14163436675E+03 -0.64647224262E+03  0.68318322569E+03  0.00000000000E+00 0.  1.
          2    1    6    6  503    0  0.83335839913E+02 -0.39909148130E+03 -0.13956951473E+03  0.43092751374E+03  0.00000000000E+00 0.  1.
         -2    1    6    6    0  503 -0.15009546016E+02 -0.19146175510E+02 -0.15326498314E+00  0.24328707291E+02  0.00000000000E+00 0. -1.
<mgrwt>
<rscale>  0 0.12268469E+04</rscale>
<asrwt>0</asrwt>
<pdfrwt beam="1">  1        1 0.25793368E+00 0.12268469E+04</pdfrwt>
<pdfrwt beam="2">  1       -1 0.34529156E-01 0.12268469E+04</pdfrwt>
<totfact> 0.38844768E+01</totfact>
</mgrwt>
</event>
<event>
12    3  0.4773567E-008  0.1955718E+04  0.7818608E-02  0.8627609E-01
          2   -1    0    0  501    0  0.00000000000E+00  0.00000000000E+00  0.24870036652E+04  0.24870036652E+04  0.00000000000E+00 0. -1.
         -2   -1    0    0    0  501 -0.00000000000E+00 -0.00000000000E+00 -0.38448184342E+03  0.38448184342E+03  0.00000000000E+00 0.  1.
         23    2    1    2    0    0 -0.37616680451E+03  0.88707567476E+02  0.18050316730E+04  0.18490319275E+04  0.10681400163E+03 0.  0.
        254    2    1    2    0    0  0.37616680451E+03 -0.88707567476E+02  0.29749014871E+03  0.10224535811E+04  0.89863253866E+03 0.  0.
         23    2    4    4    0    0 -0.25169752692E+03 -0.10918418387E+03  0.25494616019E+03  0.38630357189E+03  0.94657667376E+02 0.  0.
         23    2    4    4    0    0  0.62786433142E+03  0.20476616397E+02  0.42543988524E+02  0.63615000919E+03  0.90796105320E+02 0.  0.
          4    1    3    3  502    0 -0.23379727312E+03  0.85554375706E+02  0.13305606081E+04  0.13536514500E+04  0.00000000000E+00 0. -1.
         -4    1    3    3    0  502 -0.14236953139E+03  0.31531917696E+01  0.47447106490E+03  0.49538047753E+03  0.00000000000E+00 0.  1.
         13    1    5    5    0    0 -0.11936666379E+03 -0.67623256659E+02  0.18679246205E+03  0.23176006805E+03  0.00000000000E+00 0. -1.
        -13    1    5    5    0    0 -0.13233086313E+03 -0.41560927213E+02  0.68153698138E+02  0.15454350383E+03  0.00000000000E+00 0.  1.
          2    1    6    6  503    0  0.53500830665E+03 -0.68685695938E+01  0.14019819494E+02  0.53523604211E+03  0.00000000000E+00 0. -1.
         -2    1    6    6    0  503  0.92856024774E+02  0.27345185990E+02  0.28524169030E+02  0.10091396708E+03  0.00000000000E+00 0.  1.
<mgrwt>
<rscale>  0 0.19557175E+04</rscale>
<asrwt>0</asrwt>
<pdfrwt beam="1">  1        2 0.38261594E+00 0.19557175E+04</pdfrwt>
<pdfrwt beam="2">  1       -2 0.59151054E-01 0.19557175E+04</pdfrwt>
<totfact> 0.88205943E+00</totfact>
</mgrwt>
</event>
<event>
12    3  0.4773567E-008  0.1580062E+04  0.7818608E-02  0.8832891E-01
         -1   -1    0    0    0  501 -0.00000000000E+00  0.00000000000E+00  0.13554672127E+04  0.13554672127E+04  0.00000000000E+00 0.  1.
          1   -1    0    0  501    0  0.00000000000E+00 -0.00000000000E+00 -0.46046754314E+03  0.46046754314E+03  0.00000000000E+00 0. -1.
         23    2    1    2    0    0  0.71169367615E+01 -0.13353160293E+00 -0.30194926805E+03  0.31515166819E+03  0.89980802770E+02 0.  0.
        254    2    1    2    0    0 -0.71169367615E+01  0.13353160293E+00  0.11969489376E+04  0.15007830876E+04  0.90532449890E+03 0.  0.
         23    2    4    4    0    0  0.42305457307E+03  0.12130348669E+03  0.57908812264E+03  0.73310066194E+03  0.91672346292E+02 0.  0.
         23    2    4    4    0    0 -0.43017150983E+03 -0.12116995509E+03  0.61786081496E+03  0.76768242571E+03  0.88626374117E+02 0.  0.
          1    1    3    3  502    0  0.26900908032E+02  0.29103587239E+02 -0.24473412342E+03  0.24792230398E+03  0.00000000000E+00 0. -1.
         -1    1    3    3    0  502 -0.19783971270E+02 -0.29237118842E+02 -0.57215144633E+02  0.67229364215E+02  0.00000000000E+00 0.  1.
         13    1    5    5    0    0  0.33489236758E+03  0.10385394773E+03  0.39449837596E+03  0.52779494973E+03  0.00000000000E+00 0. -1.
        -13    1    5    5    0    0  0.88162205484E+02  0.17449538958E+02  0.18458974669E+03  0.20530571221E+03  0.00000000000E+00 0.  1.
          4    1    6    6  503    0 -0.31071787241E+03 -0.53978083947E+02  0.38727921233E+03  0.49944410907E+03  0.00000000000E+00 0. -1.
         -4    1    6    6    0  503 -0.11945363742E+03 -0.67191871140E+02  0.23058160263E+03  0.26823831663E+03  0.00000000000E+00 0.  1.
<mgrwt>
<rscale>  0 0.15800616E+04</rscale>
<asrwt>0</asrwt>
<pdfrwt beam="1">  1        1 0.70841161E-01 0.15800616E+04</pdfrwt>
<pdfrwt beam="2">  1       -1 0.20853342E+00 0.15800616E+04</pdfrwt>
<totfact> 0.62733025E+00</totfact>
</mgrwt>
</event>
<event>
12    3  0.4773567E-008  0.1847913E+04  0.7818608E-02  0.8681227E-01
         -2   -1    0    0    0  501 -0.00000000000E+00  0.00000000000E+00  0.59470607035E+03  0.59470607035E+03  0.00000000000E+00 0.  1.
          2   -1    0    0  501    0  0.00000000000E+00 -0.00000000000E+00 -0.14354909074E+04  0.14354909074E+04  0.00000000000E+00 0. -1.
         23    2    1    2    0    0 -0.10123828737E+03  0.48208091680E+03 -0.86751039659E+03  0.10017624735E+04  0.91118406307E+02 0.  0.
        254    2    1    2    0    0  0.10123828737E+03 -0.48208091680E+03  0.26725559492E+02  0.10284345043E+04  0.90239241624E+03 0.  0.
         23    2    4    4    0    0  0.47150641836E+03 -0.40948264062E+03  0.81665177696E+02  0.63644426972E+03  0.91639356659E+02 0.  0.
         23    2    4    4    0    0 -0.37026813100E+03 -0.72598276186E+02 -0.54939618203E+02  0.39199023456E+03  0.90933952983E+02 0.  0.
          1    1    3    3  502    0 -0.93808138727E+02  0.45709983952E+03 -0.85205511511E+03  0.97146186202E+03  0.00000000000E+00 0. -1.
         -1    1    3    3    0  502 -0.74301486394E+01  0.24981077283E+02 -0.15455281486E+02  0.30300611493E+02  0.00000000000E+00 0.  1.
         13    1    5    5    0    0  0.20384473102E+02 -0.72574537962E+01 -0.12139936855E+02  0.24810792936E+02  0.00000000000E+00 0. -1.
        -13    1    5    5    0    0  0.45112194526E+03 -0.40222518682E+03  0.93805114551E+02  0.61163347679E+03  0.00000000000E+00 0.  1.
          3    1    6    6  503    0 -0.78666285541E+02 -0.28548194090E+02 -0.49090582951E+02  0.97022003696E+02  0.00000000000E+00 0. -1.
         -3    1    6    6    0  503 -0.29160184546E+03 -0.44050082096E+02 -0.58490352518E+01  0.29496823087E+03  0.00000000000E+00 0.  1.
<mgrwt>
<rscale>  0 0.18479125E+04</rscale>
<asrwt>0</asrwt>
<pdfrwt beam="1">  1        2 0.22084475E+00 0.18479125E+04</pdfrwt>
<pdfrwt beam="2">  1       -2 0.91493242E-01 0.18479125E+04</pdfrwt>
<totfact> 0.13214195E+01</totfact>
</mgrwt>
</event>
<event>
12    3  0.4773567E-008  0.1567751E+04  0.7818608E-02  0.8840609E-01
         -2   -1    0    0    0  501 -0.00000000000E+00  0.00000000000E+00  0.18829150996E+03  0.18829150996E+03  0.00000000000E+00 0. -1.
          2   -1    0    0  501    0  0.00000000000E+00 -0.00000000000E+00 -0.32633474201E+04  0.32633474201E+04  0.00000000000E+00 0.  1.
         23    2    1    2    0    0 -0.66080897358E+02 -0.43502318792E+03 -0.43402539141E+03  0.62482301872E+03  0.91727342275E+02 0.  0.
        254    2    1    2    0    0  0.66080897358E+02  0.43502318792E+03 -0.26410305187E+04  0.28268159113E+04  0.90677127032E+03 0.  0.
         23    2    4    4    0    0 -0.40234530277E+03  0.24318004323E+03 -0.15081925530E+04  0.15826642682E+04  0.95724253694E+02 0.  0.
         23    2    4    4    0    0  0.46842620013E+03  0.19184314468E+03 -0.11328379657E+04  0.12441516431E+04  0.91457954518E+02 0.  0.
          3    1    3    3  502    0  0.64297704500E+01 -0.14834951255E+03 -0.10165062093E+03  0.17994934998E+03  0.00000000000E+00 0. -1.
         -3    1    3    3    0  502 -0.72510667808E+02 -0.28667367536E+03 -0.33237477048E+03  0.44487366874E+03  0.00000000000E+00 0.  1.
         13    1    5    5    0    0 -0.15676807996E+03  0.43024308774E+02 -0.54222835555E+03  0.56607323873E+03  0.00000000000E+00 0. -1.
        -13    1    5    5    0    0 -0.24557722281E+03  0.20015573446E+03 -0.96596419743E+03  0.10165910294E+04  0.00000000000E+00 0.  1.
          2    1    6    6  503    0  0.23959750943E+02  0.41962273343E+01 -0.11787022697E+03  0.12035392970E+03  0.00000000000E+00 0. -1.
         -2    1    6    6    0  503  0.44446644918E+03  0.18764691735E+03 -0.10149677387E+04  0.11237977134E+04  0.00000000000E+00 0.  1.
<mgrwt>
<rscale>  0 0.15677508E+04</rscale>
<asrwt>0</asrwt>
<pdfrwt beam="1">  1        2 0.50205344E+00 0.15677508E+04</pdfrwt>
<pdfrwt beam="2">  1       -2 0.28967925E-01 0.15677508E+04</pdfrwt>
<totfact> 0.12512774E+01</totfact>
</mgrwt>
</event>
<event>
12    3  0.4773567E-008  0.5405858E+04  0.7818608E-02  0.7768778E-01
         -2   -1    0    0    0  501 -0.00000000000E+00  0.00000000000E+00  0.28320975372E+04  0.28320975372E+04  0.00000000000E+00 0.  1.
          2   -1    0    0  501    0  0.00000000000E+00 -0.00000000000E+00 -0.25796521389E+04  0.25796521389E+04  0.00000000000E+00 0. -1.
         23    2    1    2    0    0 -0.19671174599E+04  0.14654690227E+04 -0.82202360090E+03  0.25886302796E+04  0.90185178233E+02 0.  0.
        254    2    1    2    0    0  0.19671174599E+04 -0.14654690227E+04  0.10744689992E+04  0.28231193965E+04  0.89351493509E+03 0.  0.
         23    2    4    4    0    0  0.68063992416E+03 -0.79448269935E+03  0.63285883309E+02  0.10521434429E+04  0.92343139555E+02 0.  0.
         23    2    4    4    0    0  0.12864775358E+04 -0.67098632334E+03  0.10111831159E+04  0.17709759537E+04  0.92830159204E+02 0.  0.
          2    1    3    3  502    0 -0.51693813953E+01  0.11071100965E+02 -0.64401259752E+01  0.13811842859E+02  0.00000000000E+00 0.  1.
         -2    1    3    3    0  502 -0.19619480785E+04  0.14543979217E+04 -0.81558347492E+03  0.25748184367E+04  0.00000000000E+00 0. -1.
         13    1    5    5    0    0  0.15596549098E+03 -0.21776508480E+03 -0.16727032314E+02  0.26837783095E+03  0.00000000000E+00 0. -1.
        -13    1    5    5    0    0  0.52467443318E+03 -0.57671761455E+03  0.80012915623E+02  0.78376561192E+03  0.00000000000E+00 0.  1.
          2    1    6    6  503    0  0.70335092979E+03 -0.41840168828E+03  0.57592806020E+03  0.10007275522E+04  0.00000000000E+00 0. -1.
         -2    1    6    6    0  503  0.58312660599E+03 -0.25258463506E+03  0.43525505567E+03  0.77024840147E+03  0.00000000000E+00 0.  1.
<mgrwt>
<rscale>  0 0.54058585E+04</rscale>
<asrwt>0</asrwt>
<pdfrwt beam="1">  1        2 0.39686956E+00 0.54058585E+04</pdfrwt>
<pdfrwt beam="2">  1       -2 0.43570731E+00 0.54058585E+04</pdfrwt>
<totfact> 0.95436498E-03</totfact>
</mgrwt>
</event>
<event>
12    3  0.4773567E-008  0.1469983E+04  0.7818608E-02  0.8904663E-01
          1   -1    0    0  501    0  0.00000000000E+00  0.00000000000E+00  0.30190143326E+04  0.30190143326E+04  0.00000000000E+00 0. -1.
         -1   -1    0    0    0  501 -0.00000000000E+00 -0.00000000000E+00 -0.17893672326E+03  0.17893672326E+03  0.00000000000E+00 0.  1.
         23    2    1    2    0    0  0.23354672622E+01 -0.24299020715E+01  0.18821920274E+04  0.18844126884E+04  0.91394711566E+02 0.  0.
        254    2    1    2    0    0 -0.23354672622E+01  0.24299020715E+01  0.95788558190E+03  0.13135383674E+04  0.89879190911E+03 0.  0.
         23    2    4    4    0    0 -0.31897353991E+01  0.36824489265E+03  0.12556999511E+03  0.39973459167E+03  0.91681212510E+02 0.  0.
         23    2    4    4    0    0  0.85426813691E+00 -0.36581499058E+03  0.83231558679E+03  0.91380377577E+03  0.92015039457E+02 0.  0.
          2    1    3    3  502    0  0.27364773544E+02  0.66043100347E+00  0.17244617281E+04  0.17246789610E+04  0.00000000000E+00 0. -1.
         -2    1    3    3    0  502 -0.25029306282E+02 -0.30903330750E+01  0.15773029935E+03  0.15973372739E+03  0.00000000000E+00 0.  1.
         13    1    5    5    0    0 -0.17594778992E+02  0.29110465413E+03  0.60621591644E+02  0.29786989321E+03  0.00000000000E+00 0. -1.
        -13    1    5    5    0    0  0.14405043593E+02  0.77140238516E+02  0.64948403464E+02  0.10186469846E+03  0.00000000000E+00 0.  1.
          3    1    6    6  503    0  0.25012822575E+02 -0.29104808020E+03  0.71739177614E+03  0.77458736547E+03  0.00000000000E+00 0. -1.
         -3    1    6    6    0  503 -0.24158554438E+02 -0.74766910378E+02  0.11492381065E+03  0.13921641029E+03  0.00000000000E+00 0.  1.
<mgrwt>
<rscale>  0 0.14699830E+04</rscale>
<asrwt>0</asrwt>
<pdfrwt beam="1">  1        1 0.46446371E+00 0.14699830E+04</pdfrwt>
<pdfrwt beam="2">  1       -1 0.27528729E-01 0.14699830E+04</pdfrwt>
<totfact> 0.67030549E+00</totfact>
</mgrwt>
</event>
<event>
12    3  0.4773567E-008  0.2402912E+04  0.7818608E-02  0.8438414E-01
         -2   -1    0    0    0  501 -0.00000000000E+00  0.00000000000E+00  0.18852850321E+04  0.18852850321E+04  0.00000000000E+00 0.  1.
          2   -1    0    0  501    0  0.00000000000E+00 -0.00000000000E+00 -0.76566459070E+03  0.76566459070E+03  0.00000000000E+00 0. -1.
         23    2    1    2    0    0 -0.29937657403E+03  0.43025810964E+03 -0.49507026388E+03  0.72693526701E+03  0.92692730270E+02 0.  0.
        254    2    1    2    0    0  0.29937657403E+03 -0.43025810964E+03  0.16146907053E+04  0.19240143558E+04  0.90545943784E+03 0.  0.
         23    2    4    4    0    0  0.27338896217E+03 -0.52646889806E+02  0.32304145982E+02  0.29450774944E+03  0.90432499625E+02 0.  0.
         23    2    4    4    0    0  0.25987611855E+02 -0.37761121984E+03  0.15823865593E+04  0.16295066064E+04  0.89883078329E+02 0.  0.
          1    1    3    3  502    0 -0.20177343881E+03  0.34385187043E+03 -0.33685631357E+03  0.52193754933E+03  0.00000000000E+00 0. -1.
         -1    1    3    3    0  502 -0.97603135223E+02  0.86406239217E+02 -0.15821395031E+03  0.20499771768E+03  0.00000000000E+00 0.  1.
         13    1    5    5    0    0  0.25505334574E+03 -0.63286207061E+02  0.49256639060E+02  0.26736411440E+03  0.00000000000E+00 0. -1.
        -13    1    5    5    0    0  0.18335616433E+02  0.10639317255E+02 -0.16952493078E+02  0.27143635040E+02  0.00000000000E+00 0.  1.
          4    1    6    6  503    0 -0.27997686758E+02 -0.23287774034E+03  0.95637614240E+03  0.98471886250E+03  0.00000000000E+00 0.  1.
         -4    1    6    6    0  503  0.53985298613E+02 -0.14473347950E+03  0.62601041691E+03  0.64478774386E+03  0.00000000000E+00 0. -1.
<mgrwt>
<rscale>  0 0.24029116E+04</rscale>
<asrwt>0</asrwt>
<pdfrwt beam="1">  1        2 0.11779455E+00 0.24029116E+04</pdfrwt>
<pdfrwt beam="2">  1       -2 0.29004385E+00 0.24029116E+04</pdfrwt>
<totfact> 0.12001933E+00</totfact>
</mgrwt>
</event>
<event>
12    3  0.4773567E-008  0.1863438E+04  0.7818608E-02  0.8673273E-01
         -2   -1    0    0    0  501 -0.00000000000E+00  0.00000000000E+00  0.79703754643E+03  0.79703754643E+03  0.00000000000E+00 0.  1.
          2   -1    0    0  501    0  0.00000000000E+00 -0.00000000000E+00 -0.10891581452E+04  0.10891581452E+04  0.00000000000E+00 0. -1.
         23    2    1    2    0    0  0.30182205299E+03 -0.42336441618E+03 -0.60185084955E+03  0.80061499976E+03  0.91792985479E+02 0.  0.
        254    2    1    2    0    0 -0.30182205299E+03  0.42336441618E+03  0.30973025074E+03  0.10855806919E+04  0.90123172928E+03 0.  0.
         23    2    4    4    0    0 -0.57917116056E+03  0.32403446326E+03  0.37905490185E+03  0.77000750598E+03  0.93762327383E+02 0.  0.
         23    2    4    4    0    0  0.27734910757E+03  0.99329952916E+02 -0.69324651114E+02  0.31557318593E+03  0.89395533487E+02 0.  0.
          3    1    3    3  502    0  0.19083404578E+03 -0.30081402904E+03 -0.46634237207E+03  0.58684062665E+03  0.00000000000E+00 0. -1.
         -3    1    3    3    0  502  0.11098800721E+03 -0.12255038714E+03 -0.13550847748E+03  0.21377437311E+03  0.00000000000E+00 0.  1.
         13    1    5    5    0    0  0.36129234751E+01  0.48869278113E+00  0.25855188015E+01  0.44695574886E+01  0.00000000000E+00 0.  1.
        -13    1    5    5    0    0 -0.58278408404E+03  0.32354577048E+03  0.37646938305E+03  0.76553794849E+03  0.00000000000E+00 0. -1.
          3    1    6    6  503    0  0.18867877113E+03  0.57401137314E+02 -0.87607248247E+02  0.21579990544E+03  0.00000000000E+00 0. -1.
         -3    1    6    6    0  503  0.88670336438E+02  0.41928815602E+02  0.18282597134E+02  0.99773280491E+02  0.00000000000E+00 0.  1.
<mgrwt>
<rscale>  0 0.18634376E+04</rscale>
<asrwt>0</asrwt>
<pdfrwt beam="1">  1        2 0.16756279E+00 0.18634376E+04</pdfrwt>
<pdfrwt beam="2">  1       -2 0.12262116E+00 0.18634376E+04</pdfrwt>
<totfact> 0.10457626E+01</totfact>
</mgrwt>
</event>
<event>
12    3  0.4773567E-008  0.2947423E+04  0.7818608E-02  0.8258906E-01
          2   -1    0    0  501    0  0.00000000000E+00  0.00000000000E+00  0.26126257647E+04  0.26126257647E+04  0.00000000000E+00 0.  1.
         -2   -1    0    0    0  501 -0.00000000000E+00 -0.00000000000E+00 -0.83128059290E+03  0.83128059290E+03  0.00000000000E+00 0. -1.
         23    2    1    2    0    0  0.21072907651E+03  0.16248465846E+03 -0.72078750595E+03  0.77293170228E+03  0.84147369132E+02 0.  0.
        254    2    1    2    0    0 -0.21072907651E+03 -0.16248465846E+03  0.25021326778E+04  0.26709746553E+04  0.89589601203E+03 0.  0.
         23    2    4    4    0    0  0.10150753241E+03 -0.25951297124E+03  0.22703554189E+03  0.37078262869E+03  0.91015707884E+02 0.  0.
         23    2    4    4    0    0 -0.31223660891E+03  0.97028312780E+02  0.22750971359E+04  0.23001920266E+04  0.88939239652E+02 0.  0.
          1    1    3    3  502    0  0.13763819082E+03  0.13839291923E+03 -0.58686208257E+03  0.61846905793E+03  0.00000000000E+00 0. -1.
         -1    1    3    3    0  502  0.73090885687E+02  0.24091739228E+02 -0.13392542338E+03  0.15446264434E+03  0.00000000000E+00 0.  1.
         13    1    5    5    0    0 -0.55035751925E+01 -0.54297053402E+01  0.32382605745E+02  0.33292704828E+02  0.00000000000E+00 0. -1.
        -13    1    5    5    0    0  0.10701110760E+03 -0.25408326590E+03  0.19465293615E+03  0.33748992386E+03  0.00000000000E+00 0.  1.
          3    1    6    6  503    0 -0.17090573919E+03  0.55191477826E+02  0.15420804158E+04  0.15525034234E+04  0.00000000000E+00 0. -1.
         -3    1    6    6    0  503 -0.14133086973E+03  0.41836834954E+02  0.73301672011E+03  0.74768860327E+03  0.00000000000E+00 0.  1.
<mgrwt>
<rscale>  0 0.29474227E+04</rscale>
<asrwt>0</asrwt>
<pdfrwt beam="1">  1        2 0.40194242E+00 0.29474227E+04</pdfrwt>
<pdfrwt beam="2">  1       -2 0.12788932E+00 0.29474227E+04</pdfrwt>
<totfact> 0.11638823E+00</totfact>
</mgrwt>
</event>
<event>
12    3  0.4773567E-008  0.2281082E+04  0.7818608E-02  0.8485418E-01
         -1   -1    0    0    0  501 -0.00000000000E+00  0.00000000000E+00  0.18770534594E+04  0.18770534594E+04  0.00000000000E+00 0.  1.
          1   -1    0    0  501    0  0.00000000000E+00 -0.00000000000E+00 -0.69301900185E+03  0.69301900185E+03  0.00000000000E+00 0. -1.
         23    2    1    2    0    0  0.23814981952E+03 -0.11355559355E+03  0.15491423438E+04  0.15741462725E+04  0.92110131833E+02 0.  0.
        254    2    1    2    0    0 -0.23814981952E+03  0.11355559355E+03 -0.36510788632E+03  0.99592618871E+03  0.88823138615E+03 0.  0.
         23    2    4    4    0    0 -0.48425503495E+02  0.30170698642E+03  0.19147532129E+03  0.37177146346E+03  0.90438306814E+02 0.  0.
         23    2    4    4    0    0 -0.18972431602E+03 -0.18815139287E+03 -0.55658320761E+03  0.62415472525E+03  0.91585977790E+02 0.  0.
          3    1    3    3  502    0  0.15599622144E+03 -0.35845275554E+02  0.73792230458E+03  0.75508213624E+03  0.00000000000E+00 0. -1.
         -3    1    3    3    0  502  0.82153598084E+02 -0.77710317998E+02  0.81122003925E+03  0.81906413625E+03  0.00000000000E+00 0.  1.
         13    1    5    5    0    0  0.13772368200E+02  0.17354651995E+03  0.12649394414E+03  0.21519477367E+03  0.00000000000E+00 0. -1.
        -13    1    5    5    0    0 -0.62197871695E+02  0.12816046647E+03  0.64981377151E+02  0.15657668979E+03  0.00000000000E+00 0.  1.
          1    1    6    6  503    0 -0.35040303670E+02 -0.11731574605E+02 -0.29762063236E+02  0.47447161475E+02  0.00000000000E+00 0. -1.
         -1    1    6    6    0  503 -0.15468401235E+03 -0.17641981826E+03 -0.52682114437E+03  0.57670756377E+03  0.00000000000E+00 0.  1.
<mgrwt>
<rscale>  0 0.22810819E+04</rscale>
<asrwt>0</asrwt>
<pdfrwt beam="1">  1        1 0.10661831E+00 0.22810819E+04</pdfrwt>
<pdfrwt beam="2">  1       -1 0.28877745E+00 0.22810819E+04</pdfrwt>
<totfact> 0.97806886E-01</totfact>
</mgrwt>
</event>
<event>
12    3  0.4773567E-008  0.2324947E+04  0.7818608E-02  0.8468149E-01
         -1   -1    0    0    0  501 -0.00000000000E+00  0.00000000000E+00  0.11896723497E+04  0.11896723497E+04  0.00000000000E+00 0.  1.
          1   -1    0    0  501    0  0.00000000000E+00 -0.00000000000E+00 -0.11358964642E+04  0.11358964642E+04  0.00000000000E+00 0. -1.
         23    2    1    2    0    0 -0.60060487674E+03  0.63391767225E+03 -0.43773193772E+03  0.98095668772E+03  0.89938538560E+02 0.  0.
        254    2    1    2    0    0  0.60060487674E+03 -0.63391767225E+03  0.49150782318E+03  0.13446121262E+04  0.89656232159E+03 0.  0.
         23    2    4    4    0    0 -0.49851924395E+02  0.13348295676E+03  0.25672869696E+03  0.30747280042E+03  0.91252315291E+02 0.  0.
         23    2    4    4    0    0  0.65045680114E+03 -0.76740062901E+03  0.23477912622E+03  0.10371393258E+04  0.92406533309E+02 0.  0.
          4    1    3    3  502    0 -0.59939755131E+03  0.63677894344E+03 -0.43459957291E+03  0.97654576754E+03  0.00000000000E+00 0. -1.
         -4    1    3    3    0  502 -0.12073254296E+01 -0.28612711901E+01 -0.31323648007E+01  0.44109201717E+01  0.00000000000E+00 0.  1.
         13    1    5    5    0    0 -0.47869192357E+02  0.71582859241E+02  0.21809148799E+03  0.23447699769E+03  0.00000000000E+00 0.  1.
        -13    1    5    5    0    0 -0.19827320379E+01  0.61900097518E+02  0.38637208971E+02  0.72995802729E+02  0.00000000000E+00 0. -1.
          1    1    6    6  503    0  0.34710496013E+02 -0.17170172256E+02  0.17798207230E+02  0.42619356276E+02  0.00000000000E+00 0. -1.
         -1    1    6    6    0  503  0.61574630512E+03 -0.75023045676E+03  0.21698091899E+03  0.99451996950E+03  0.00000000000E+00 0.  1.
<mgrwt>
<rscale>  0 0.23249470E+04</rscale>
<asrwt>0</asrwt>
<pdfrwt beam="1">  1        1 0.17475330E+00 0.23249470E+04</pdfrwt>
<pdfrwt beam="2">  1       -1 0.18302651E+00 0.23249470E+04</pdfrwt>
<totfact> 0.21279856E+00</totfact>
</mgrwt>
</event>
<event>
12    3  0.4773567E-008  0.1629203E+04  0.7818608E-02  0.8802805E-01
          2   -1    0    0  501    0  0.00000000000E+00  0.00000000000E+00  0.10158104749E+04  0.10158104749E+04  0.00000000000E+00 0. -1.
         -2   -1    0    0    0  501 -0.00000000000E+00 -0.00000000000E+00 -0.65324777261E+03  0.65324777261E+03  0.00000000000E+00 0.  1.
         23    2    1    2    0    0 -0.34019090034E+03 -0.44181625381E+03  0.11206342031E+03  0.58310541448E+03  0.12853895683E+03 0.  0.
        254    2    1    2    0    0  0.34019090034E+03  0.44181625381E+03  0.25049928202E+03  0.10859528331E+04  0.89755903125E+03 0.  0.
         23    2    4    4    0    0 -0.83720638277E+02  0.58187935458E+03  0.82733961801E+02  0.60015696835E+03  0.88038342004E+02 0.  0.
         23    2    4    4    0    0  0.42391153862E+03 -0.14006310077E+03  0.16776532022E+03  0.48579586473E+03  0.92378324022E+02 0.  0.
          2    1    3    3  502    0 -0.17827081802E+03 -0.30205322589E+03  0.23262472333E+02  0.35150786399E+03  0.00000000000E+00 0.  1.
         -2    1    3    3    0  502 -0.16192008232E+03 -0.13976302792E+03  0.88800947982E+02  0.23159755049E+03  0.00000000000E+00 0. -1.
         13    1    5    5    0    0 -0.93655473578E+02  0.35630611789E+03  0.43258905004E+02  0.37094033245E+03  0.00000000000E+00 0. -1.
        -13    1    5    5    0    0  0.99348353002E+01  0.22557323669E+03  0.39475056797E+02  0.22921663590E+03  0.00000000000E+00 0.  1.
          3    1    6    6  503    0  0.41723767732E+03 -0.14894519502E+03  0.15619204876E+03  0.46975302722E+03  0.00000000000E+00 0. -1.
         -3    1    6    6    0  503  0.66738613001E+01  0.88820942474E+01  0.11573271460E+02  0.16042837503E+02  0.00000000000E+00 0.  1.
<mgrwt>
<rscale>  0 0.16292034E+04</rscale>
<asrwt>0</asrwt>
<pdfrwt beam="1">  1        2 0.15627853E+00 0.16292034E+04</pdfrwt>
<pdfrwt beam="2">  1       -2 0.10049966E+00 0.16292034E+04</pdfrwt>
<totfact> 0.19222004E+01</totfact>
</mgrwt>
</event>
<event>
12    3  0.4773567E-008  0.2581321E+04  0.7818608E-02  0.8374574E-01
          2   -1    0    0  501    0  0.00000000000E+00  0.00000000000E+00  0.13635569344E+04  0.13635569344E+04  0.00000000000E+00 0. -1.
         -2   -1    0    0    0  501 -0.00000000000E+00 -0.00000000000E+00 -0.12216610413E+04  0.12216610413E+04  0.00000000000E+00 0.  1.
         23    2    1    2    0    0  0.10179581210E+04 -0.10919677407E+03 -0.41712006518E+03  0.11093054510E+04  0.91688403476E+02 0.  0.
        254    2    1    2    0    0 -0.10179581210E+04  0.10919677407E+03  0.55901595826E+03  0.14759125247E+04  0.90424347799E+03 0.  0.
         23    2    4    4    0    0  0.94262520323E+02  0.11135520716E+03 -0.80327113956E+02  0.18987667277E+03  0.91188270779E+02 0.  0.
         23    2    4    4    0    0 -0.11122206413E+04 -0.21584330901E+01  0.63934307221E+03  0.12860358519E+04  0.89940173038E+02 0.  0.
          1    1    3    3  502    0  0.32776885262E+03 -0.72596483462E+02 -0.15974112007E+03  0.37177936414E+03  0.00000000000E+00 0. -1.
         -1    1    3    3    0  502  0.69018926833E+03 -0.36600290606E+02 -0.25737894511E+03  0.73752608684E+03  0.00000000000E+00 0.  1.
         13    1    5    5    0    0  0.29078764361E+02 -0.12743041340E+02 -0.17670775401E+02  0.36334775940E+02  0.00000000000E+00 0. -1.
        -13    1    5    5    0    0  0.65183755962E+02  0.12409824850E+03 -0.62656338555E+02  0.15354189683E+03  0.00000000000E+00 0.  1.
          2    1    6    6  503    0 -0.10595695481E+03 -0.16780469365E+02  0.86542002089E+02  0.13783315476E+03  0.00000000000E+00 0. -1.
         -2    1    6    6    0  503 -0.10062636865E+04  0.14622036274E+02  0.55280107013E+03  0.11482026972E+04  0.00000000000E+00 0.  1.
<mgrwt>
<rscale>  0 0.25813209E+04</rscale>
<asrwt>0</asrwt>
<pdfrwt beam="1">  1        2 0.20977799E+00 0.25813209E+04</pdfrwt>
<pdfrwt beam="2">  1       -2 0.18794785E+00 0.25813209E+04</pdfrwt>
<totfact> 0.21529066E+00</totfact>
</mgrwt>
</event>
<event>
12    3  0.4773567E-008  0.1633762E+04  0.7818608E-02  0.8800071E-01
         -1   -1    0    0    0  501 -0.00000000000E+00  0.00000000000E+00  0.29725627063E+03  0.29725627063E+03  0.00000000000E+00 0.  1.
          1   -1    0    0  501    0  0.00000000000E+00 -0.00000000000E+00 -0.22448468999E+04  0.22448468999E+04  0.00000000000E+00 0. -1.
         23    2    1    2    0    0  0.22856056531E+03  0.30469347058E+03 -0.19662193462E+02  0.39199067651E+03  0.90509919847E+02 0.  0.
        254    2    1    2    0    0 -0.22856056531E+03 -0.30469347058E+03 -0.19279284358E+04  0.21501124940E+04  0.87235178701E+03 0.  0.
         23    2    4    4    0    0 -0.54281185912E+03 -0.23274406223E+03 -0.10123887912E+04  0.11752763547E+04  0.86769421565E+02 0.  0.
         23    2    4    4    0    0  0.31425129382E+03 -0.71949408351E+02 -0.91553964460E+03  0.97483613929E+03  0.90344145337E+02 0.  0.
          1    1    3    3  502    0  0.33787192945E+02  0.10447974691E+03 -0.24992198209E+02  0.11261528268E+03  0.00000000000E+00 0. -1.
         -1    1    3    3    0  502  0.19477337236E+03  0.20021372367E+03  0.53300047470E+01  0.27937539383E+03  0.00000000000E+00 0.  1.
         13    1    5    5    0    0 -0.11159222024E+03 -0.69923809791E+02 -0.17015434588E+03  0.21516194881E+03  0.00000000000E+00 0. -1.
        -13    1    5    5    0    0 -0.43121963888E+03 -0.16282025244E+03 -0.84223444529E+03  0.96011440589E+03  0.00000000000E+00 0.  1.
          1    1    6    6  503    0  0.65883995476E+00  0.22606105516E+00 -0.71986103643E+02  0.71989473477E+02  0.00000000000E+00 0. -1.
         -1    1    6    6    0  503  0.31359245386E+03 -0.72175469406E+02 -0.84355354096E+03  0.90284666581E+03  0.00000000000E+00 0.  1.
<mgrwt>
<rscale>  0 0.16337623E+04</rscale>
<asrwt>0</asrwt>
<pdfrwt beam="1">  1        1 0.34536104E+00 0.16337623E+04</pdfrwt>
<pdfrwt beam="2">  1       -1 0.45731737E-01 0.16337623E+04</pdfrwt>
<totfact> 0.92395397E+00</totfact>
</mgrwt>
</event>
<event>
12    3  0.4773567E-008  0.1726655E+04  0.7818608E-02  0.8746306E-01
          2   -1    0    0  501    0  0.00000000000E+00  0.00000000000E+00  0.20947682905E+04  0.20947682905E+04  0.00000000000E+00 0. -1.
         -2   -1    0    0    0  501 -0.00000000000E+00 -0.00000000000E+00 -0.35580760252E+03  0.35580760252E+03  0.00000000000E+00 0.  1.
         23    2    1    2    0    0  0.35501605862E+03  0.27940001964E+03  0.26927816721E+02  0.46369629515E+03  0.10093747555E+03 0.  0.
        254    2    1    2    0    0 -0.35501605862E+03 -0.27940001964E+03  0.17120328713E+04  0.19868795979E+04  0.90140624099E+03 0.  0.
         23    2    4    4    0    0  0.27678760723E+03  0.35747062105E+02  0.44094383423E+03  0.52994775792E+03  0.92325127771E+02 0.  0.
         23    2    4    4    0    0 -0.63180366585E+03 -0.31514708175E+03  0.12710890370E+04  0.14569318399E+04  0.92138433202E+02 0.  0.
          2    1    3    3  502    0  0.24844049293E+02  0.86526926671E+01  0.25599694864E+02  0.36707495866E+02  0.00000000000E+00 0. -1.
         -2    1    3    3    0  502  0.33017200933E+03  0.27074732697E+03  0.13281218572E+01  0.42698879928E+03  0.00000000000E+00 0.  1.
         13    1    5    5    0    0  0.16048803083E+03  0.47410430130E+01  0.17196673941E+03  0.23526887808E+03  0.00000000000E+00 0.  1.
        -13    1    5    5    0    0  0.11629957640E+03  0.31006019092E+02  0.26897709481E+03  0.29467887984E+03  0.00000000000E+00 0. -1.
          1    1    6    6  503    0 -0.62258853663E+03 -0.32142118190E+03  0.12463247037E+04  0.14297738734E+04  0.00000000000E+00 0. -1.
         -1    1    6    6    0  503 -0.92151292226E+01  0.62741001583E+01  0.24764333357E+02  0.27157966529E+02  0.00000000000E+00 0.  1.
<mgrwt>
<rscale>  0 0.17266551E+04</rscale>
<asrwt>0</asrwt>
<pdfrwt beam="1">  1        2 0.32227204E+00 0.17266551E+04</pdfrwt>
<pdfrwt beam="2">  1       -2 0.54739632E-01 0.17266551E+04</pdfrwt>
<totfact> 0.17641045E+01</totfact>
</mgrwt>
</event>
<event>
12    3  0.4773567E-008  0.1886984E+04  0.7818608E-02  0.8661363E-01
         -1   -1    0    0    0  501 -0.00000000000E+00  0.00000000000E+00  0.38820295504E+03  0.38820295504E+03  0.00000000000E+00 0.  1.
          1   -1    0    0  501    0  0.00000000000E+00 -0.00000000000E+00 -0.22930712546E+04  0.22930712546E+04  0.00000000000E+00 0. -1.
         23    2    1    2    0    0  0.35539216546E+03  0.43954496805E+03 -0.89697159128E+02  0.57949703247E+03  0.90927773924E+02 0.  0.
        254    2    1    2    0    0 -0.35539216546E+03 -0.43954496805E+03 -0.18151711404E+04  0.21017771772E+04  0.89616832304E+03 0.  0.
         23    2    4    4    0    0 -0.49933316165E+03 -0.34003329051E+03 -0.55318121307E+03  0.82442485970E+03  0.93330862152E+02 0.  0.
         23    2    4    4    0    0  0.14394099619E+03 -0.99511677548E+02 -0.12619899274E+04  0.12773523175E+04  0.91590293333E+02 0.  0.
          2    1    3    3  502    0 -0.89256148989E-03 -0.20147847797E+01 -0.62570034260E+01  0.65733895654E+01  0.00000000000E+00 0. -1.
         -2    1    3    3    0  502  0.35539305802E+03  0.44155975283E+03 -0.83440155702E+02  0.57292364290E+03  0.00000000000E+00 0.  1.
         13    1    5    5    0    0 -0.48456698416E+03 -0.31551963368E+03 -0.54515702113E+03  0.79470370520E+03  0.00000000000E+00 0.  1.
        -13    1    5    5    0    0 -0.14766177486E+02 -0.24513656825E+02 -0.80241919402E+01  0.29721154499E+02  0.00000000000E+00 0. -1.
          2    1    6    6  503    0  0.15167525091E+02 -0.53840238967E+02 -0.50922436184E+03  0.51228729814E+03  0.00000000000E+00 0. -1.
         -2    1    6    6    0  503  0.12877347110E+03 -0.45671438581E+02 -0.75276556552E+03  0.76506501933E+03  0.00000000000E+00 0.  1.
<mgrwt>
<rscale>  0 0.18869839E+04</rscale>
<asrwt>0</asrwt>
<pdfrwt beam="1">  1        1 0.35278020E+00 0.18869839E+04</pdfrwt>
<pdfrwt beam="2">  1       -1 0.59723531E-01 0.18869839E+04</pdfrwt>
<totfact> 0.50113982E+00</totfact>
</mgrwt>
</event>
<event>
12    3  0.4773567E-008  0.1430994E+04  0.7818608E-02  0.8931684E-01
          1   -1    0    0  501    0  0.00000000000E+00  0.00000000000E+00  0.60010699544E+03  0.60010699544E+03  0.00000000000E+00 0. -1.
         -1   -1    0    0    0  501 -0.00000000000E+00 -0.00000000000E+00 -0.85307437473E+03  0.85307437473E+03  0.00000000000E+00 0.  1.
         23    2    1    2    0    0 -0.36856188188E+03  0.42033715806E+00  0.20269995476E+03  0.43072573499E+03  0.92732678528E+02 0.  0.
        254    2    1    2    0    0  0.36856188188E+03 -0.42033715806E+00 -0.45566733405E+03  0.10224556352E+04  0.83782144228E+03 0.  0.
         23    2    4    4    0    0 -0.19790587542E+03  0.35172463029E+02  0.81366849212E+02  0.23576728719E+03  0.92530059317E+02 0.  0.
         23    2    4    4    0    0  0.56646775730E+03 -0.35592800187E+02 -0.53703418326E+03  0.78668834799E+03  0.91215543615E+02 0.  0.
          1    1    3    3  502    0 -0.34700851469E+03  0.43538311923E+01  0.15875960115E+03  0.38162609459E+03  0.00000000000E+00 0. -1.
         -1    1    3    3    0  502 -0.21553367192E+02 -0.39334940343E+01  0.43940353609E+02  0.49099640405E+02  0.00000000000E+00 0.  1.
         13    1    5    5    0    0 -0.13913106775E+03  0.65249203513E+02  0.69622598466E+02  0.16870749477E+03  0.00000000000E+00 0.  1.
        -13    1    5    5    0    0 -0.58774807661E+02 -0.30076740484E+02  0.11744250745E+02  0.67059792420E+02  0.00000000000E+00 0. -1.
          1    1    6    6  503    0  0.23229830566E+03 -0.58600340047E+02 -0.23715923481E+03  0.33710681589E+03  0.00000000000E+00 0. -1.
         -1    1    6    6    0  503  0.33416945164E+03  0.23007539860E+02 -0.29987494845E+03  0.44958153210E+03  0.00000000000E+00 0.  1.
<mgrwt>
<rscale>  0 0.14309939E+04</rscale>
<asrwt>0</asrwt>
<pdfrwt beam="1">  1        1 0.92324153E-01 0.14309939E+04</pdfrwt>
<pdfrwt beam="2">  1       -1 0.13124221E+00 0.14309939E+04</pdfrwt>
<totfact> 0.16492250E+01</totfact>
</mgrwt>
</event>
<event>
12    3  0.4773567E-008  0.2069100E+04  0.7818608E-02  0.8574979E-01
          2   -1    0    0  501    0  0.00000000000E+00  0.00000000000E+00  0.88839535910E+03  0.88839535910E+03  0.00000000000E+00 0. -1.
         -2   -1    0    0    0  501 -0.00000000000E+00 -0.00000000000E+00 -0.12047489727E+04  0.12047489727E+04  0.00000000000E+00 0.  1.
         23    2    1    2    0    0 -0.39838149980E+02 -0.81437294340E+03 -0.31652815503E+03  0.87907123769E+03  0.88237174037E+02 0.  0.
        254    2    1    2    0    0  0.39838149980E+02  0.81437294340E+03  0.17454143377E+00  0.12140730941E+04  0.89954604008E+03 0.  0.
         23    2    4    4    0    0 -0.36488871880E+03  0.67020961625E+03  0.58312567143E+02  0.77069257983E+03  0.90785407991E+02 0.  0.
         23    2    4    4    0    0  0.40472686878E+03  0.14416332715E+03 -0.58138025709E+02  0.44338051427E+03  0.92840439459E+02 0.  0.
          3    1    3    3  502    0  0.69365310865E+00 -0.26060767733E+03 -0.59983237779E+02  0.26742257095E+03  0.00000000000E+00 0. -1.
         -3    1    3    3    0  502 -0.40531803089E+02 -0.55376526607E+03 -0.25654491725E+03  0.61164866675E+03  0.00000000000E+00 0.  1.
         13    1    5    5    0    0 -0.28575187473E+03  0.58765509446E+03  0.38057539881E+02  0.65455406217E+03  0.00000000000E+00 0. -1.
        -13    1    5    5    0    0 -0.79136844062E+02  0.82554521790E+02  0.20255027262E+02  0.11613851766E+03  0.00000000000E+00 0.  1.
          3    1    6    6  503    0  0.31067327009E+03  0.70137179573E+02 -0.26580629361E+02  0.31959917797E+03  0.00000000000E+00 0. -1.
         -3    1    6    6    0  503  0.94053598690E+02  0.74026147576E+02 -0.31557396348E+02  0.12378133630E+03  0.00000000000E+00 0.  1.
<mgrwt>
<rscale>  0 0.20690997E+04</rscale>
<asrwt>0</asrwt>
<pdfrwt beam="1">  1        2 0.13667621E+00 0.20690997E+04</pdfrwt>
<pdfrwt beam="2">  1       -2 0.18534600E+00 0.20690997E+04</pdfrwt>
<totfact> 0.45953634E+00</totfact>
</mgrwt>
</event>
<event>
12    3  0.4773567E-008  0.2786131E+04  0.7818608E-02  0.8307587E-01
         -2   -1    0    0    0  501 -0.00000000000E+00  0.00000000000E+00  0.17182171740E+04  0.17182171740E+04  0.00000000000E+00 0.  1.
          2   -1    0    0  501    0  0.00000000000E+00 -0.00000000000E+00 -0.11294444484E+04  0.11294444484E+04  0.00000000000E+00 0. -1.
         23    2    1    2    0    0 -0.77877230925E+03  0.47196838778E+03  0.11369240661E+04  0.14598779360E+04  0.96988594173E+02 0.  0.
        254    2    1    2    0    0  0.77877230925E+03 -0.47196838778E+03 -0.54815134040E+03  0.13877836864E+04  0.89231900098E+03 0.  0.
         23    2    4    4    0    0 -0.97701066859E+02 -0.28434907730E+03 -0.34085918662E+03  0.46398498974E+03  0.93258722791E+02 0.  0.
         23    2    4    4    0    0  0.87647337611E+03 -0.18761931047E+03 -0.20729215378E+03  0.92379869664E+03  0.83829649974E+02 0.  0.
          3    1    3    3  502    0 -0.32913685698E+03  0.19084509244E+03  0.55132510661E+03  0.66985990558E+03  0.00000000000E+00 0. -1.
         -3    1    3    3    0  502 -0.44963545226E+03  0.28112329533E+03  0.58559895947E+03  0.79001803045E+03  0.00000000000E+00 0.  1.
         13    1    5    5    0    0 -0.40890845870E+01 -0.14794614825E+03 -0.18252924534E+03  0.23499299734E+03  0.00000000000E+00 0.  1.
        -13    1    5    5    0    0 -0.93611982272E+02 -0.13640292906E+03 -0.15832994127E+03  0.22899199240E+03  0.00000000000E+00 0. -1.
          4    1    6    6  503    0  0.84992307355E+03 -0.16622334287E+03 -0.20226636329E+03  0.88933183480E+03  0.00000000000E+00 0. -1.
         -4    1    6    6    0  503  0.26550302554E+02 -0.21395967596E+02 -0.50257904853E+01  0.34466861840E+02  0.00000000000E+00 0.  1.
<mgrwt>
<rscale>  0 0.27861305E+04</rscale>
<asrwt>0</asrwt>
<pdfrwt beam="1">  1        2 0.17376068E+00 0.27861305E+04</pdfrwt>
<pdfrwt beam="2">  1       -2 0.26434110E+00 0.27861305E+04</pdfrwt>
<totfact> 0.95539977E-01</totfact>
</mgrwt>
</event>
<event>
12    3  0.4773567E-008  0.2608369E+04  0.7818608E-02  0.8365364E-01
         -1   -1    0    0    0  501 -0.00000000000E+00  0.00000000000E+00  0.50453603287E+03  0.50453603287E+03  0.00000000000E+00 0.  1.
          1   -1    0    0  501    0  0.00000000000E+00 -0.00000000000E+00 -0.33712100139E+04  0.33712100139E+04  0.00000000000E+00 0. -1.
         23    2    1    2    0    0  0.62950679547E+03 -0.66144022559E+02 -0.26815423975E+04  0.27567464541E+04  0.91255384836E+02 0.  0.
        254    2    1    2    0    0 -0.62950679547E+03  0.66144022559E+02 -0.18513158356E+03  0.11189995927E+04  0.90400915261E+03 0.  0.
         23    2    4    4    0    0 -0.77314041753E+03 -0.34282218460E+02  0.85232618839E+02  0.78443503492E+03  0.95667909849E+02 0.  0.
         23    2    4    4    0    0  0.14363362206E+03  0.10042624102E+03 -0.27036420239E+03  0.33456455779E+03  0.90114339162E+02 0.  0.
          3    1    3    3  502    0  0.59534981247E+03 -0.76507541138E+02 -0.25861420513E+04  0.26548870998E+04  0.00000000000E+00 0. -1.
         -3    1    3    3    0  502  0.34156982999E+02  0.10363518579E+02 -0.95400346175E+02  0.10185935428E+03  0.00000000000E+00 0.  1.
         13    1    5    5    0    0 -0.50646951030E+03 -0.56986433769E+02  0.26030631166E+02  0.51032970936E+03  0.00000000000E+00 0.  1.
        -13    1    5    5    0    0 -0.26667090724E+03  0.22704215310E+02  0.59201987672E+02  0.27410532557E+03  0.00000000000E+00 0. -1.
          2    1    6    6  503    0  0.87095604409E+02  0.26398324688E+02 -0.19336410322E+03  0.21371053382E+03  0.00000000000E+00 0. -1.
         -2    1    6    6    0  503  0.56538017655E+02  0.74027916331E+02 -0.77000099177E+02  0.12085402397E+03  0.00000000000E+00 0.  1.
<mgrwt>
<rscale>  0 0.26083688E+04</rscale>
<asrwt>0</asrwt>
<pdfrwt beam="1">  1        1 0.51864770E+00 0.26083688E+04</pdfrwt>
<pdfrwt beam="2">  1       -1 0.77620927E-01 0.26083688E+04</pdfrwt>
<totfact> 0.46106491E-01</totfact>
</mgrwt>
</event>
<event>
12    3  0.4773567E-008  0.1922659E+04  0.7818608E-02  0.8643659E-01
          1   -1    0    0  501    0  0.00000000000E+00  0.00000000000E+00  0.12101197701E+04  0.12101197701E+04  0.00000000000E+00 0. -1.
         -1   -1    0    0    0  501 -0.00000000000E+00 -0.00000000000E+00 -0.76368867958E+03  0.76368867958E+03  0.00000000000E+00 0.  1.
         23    2    1    2    0    0 -0.52138213877E+03 -0.35501723182E+03 -0.27398713360E+03  0.69512374187E+03  0.10124967954E+03 0.  0.
        254    2    1    2    0    0  0.52138213877E+03  0.35501723182E+03  0.72041822410E+03  0.12786847078E+04  0.84744061432E+03 0.  0.
         23    2    4    4    0    0 -0.21696628858E+02  0.48203658053E+03  0.32864966575E+03  0.59125149828E+03  0.93475786963E+02 0.  0.
         23    2    4    4    0    0  0.54307876763E+03 -0.12701934870E+03  0.39176855835E+03  0.68743320951E+03  0.89517324773E+02 0.  0.
          3    1    3    3  502    0 -0.17165327646E+03 -0.16201779041E+03 -0.13655801952E+03  0.27269525926E+03  0.00000000000E+00 0. -1.
         -3    1    3    3    0  502 -0.34972886231E+03 -0.19299944142E+03 -0.13742911408E+03  0.42242848260E+03  0.00000000000E+00 0.  1.
         13    1    5    5    0    0 -0.90260469848E+01  0.42784427366E+03  0.25232130415E+03  0.49678791507E+03  0.00000000000E+00 0. -1.
        -13    1    5    5    0    0 -0.12670581873E+02  0.54192306864E+02  0.76328361600E+02  0.94463583209E+02  0.00000000000E+00 0.  1.
          1    1    6    6  503    0  0.51554606685E+03 -0.98517483787E+02  0.37041509003E+03  0.64241791739E+03  0.00000000000E+00 0. -1.
         -1    1    6    6    0  503  0.27532700776E+02 -0.28501864917E+02  0.21353468321E+02  0.45015292125E+02  0.00000000000E+00 0.  1.
<mgrwt>
<rscale>  0 0.19226594E+04</rscale>
<asrwt>0</asrwt>
<pdfrwt beam="1">  1        1 0.18617227E+00 0.19226594E+04</pdfrwt>
<pdfrwt beam="2">  1       -1 0.11749056E+00 0.19226594E+04</pdfrwt>
<totfact> 0.63949913E+00</totfact>
</mgrwt>
</event>
<event>
12    3  0.4773567E-008  0.1538120E+04  0.7818608E-02  0.8859492E-01
          1   -1    0    0  501    0  0.00000000000E+00  0.00000000000E+00  0.73349177516E+03  0.73349177516E+03  0.00000000000E+00 0. -1.
         -1   -1    0    0    0  501 -0.00000000000E+00 -0.00000000000E+00 -0.80635315679E+03  0.80635315679E+03  0.00000000000E+00 0.  1.
         23    2    1    2    0    0  0.44775203046E+03 -0.84067121285E+02 -0.21085663576E+03  0.51018703594E+03  0.91000709526E+02 0.  0.
        254    2    1    2    0    0 -0.44775203046E+03  0.84067121285E+02  0.13799525412E+03  0.10296578960E+04  0.91301891053E+03 0.  0.
         23    2    4    4    0    0 -0.67430104956E+03  0.13054239752E+03  0.27392805482E+03  0.74622770718E+03  0.10047879751E+03 0.  0.
         23    2    4    4    0    0  0.22654901910E+03 -0.46475276235E+02 -0.13593280070E+03  0.28343018883E+03  0.91490634928E+02 0.  0.
          2    1    3    3  502    0  0.26592797521E+03 -0.63756862210E+02 -0.17228600290E+03  0.32321060049E+03  0.00000000000E+00 0. -1.
         -2    1    3    3    0  502  0.18182405526E+03 -0.20310259074E+02 -0.38570632859E+02  0.18697643545E+03  0.00000000000E+00 0.  1.
         13    1    5    5    0    0 -0.58398832891E+03  0.13324294852E+03  0.26639040698E+03  0.65556075277E+03  0.00000000000E+00 0. -1.
        -13    1    5    5    0    0 -0.90312720647E+02 -0.27005510033E+01  0.75376478401E+01  0.90666954407E+02  0.00000000000E+00 0.  1.
          1    1    6    6  503    0  0.11082183403E+03 -0.10333265340E+02 -0.11564392747E+03  0.16050474520E+03  0.00000000000E+00 0. -1.
         -1    1    6    6    0  503  0.11572718507E+03 -0.36142010896E+02 -0.20288873230E+02  0.12292544363E+03  0.00000000000E+00 0.  1.
<mgrwt>
<rscale>  0 0.15381202E+04</rscale>
<asrwt>0</asrwt>
<pdfrwt beam="1">  1        1 0.11284489E+00 0.15381202E+04</pdfrwt>
<pdfrwt beam="2">  1       -1 0.12405433E+00 0.15381202E+04</pdfrwt>
<totfact> 0.13949429E+01</totfact>
</mgrwt>
</event>
<event>
12    3  0.4773567E-008  0.1581134E+04  0.7818608E-02  0.8832222E-01
         -2   -1    0    0    0  501 -0.00000000000E+00  0.00000000000E+00  0.18764936516E+03  0.18764936516E+03  0.00000000000E+00 0.  1.
          2   -1    0    0  501    0  0.00000000000E+00 -0.00000000000E+00 -0.33306614062E+04  0.33306614062E+04  0.00000000000E+00 0. -1.
         23    2    1    2    0    0  0.30643966275E+03 -0.13859667672E+03 -0.15057202703E+04  0.15455561231E+04  0.91847109995E+02 0.  0.
        254    2    1    2    0    0 -0.30643966275E+03  0.13859667672E+03 -0.16372917708E+04  0.19727546483E+04  0.10478178534E+04 0.  0.
         23    2    4    4    0    0 -0.41962156799E+03  0.52489789780E+03 -0.11385622558E+04  0.13252622174E+04  0.91628985703E+02 0.  0.
         23    2    4    4    0    0  0.11318190523E+03 -0.38630122108E+03 -0.49872951501E+03  0.64749243094E+03  0.92068137350E+02 0.  0.
          3    1    3    3  502    0  0.30483366917E+03 -0.12299046696E+03 -0.14734993757E+04  0.15097187258E+04  0.00000000000E+00 0. -1.
         -3    1    3    3    0  502  0.16059935798E+01 -0.15606209757E+02 -0.32220894619E+02  0.35837397344E+02  0.00000000000E+00 0.  1.
         13    1    5    5    0    0 -0.35709771855E+03  0.45845878595E+03 -0.91672821969E+03  0.10854003260E+04  0.00000000000E+00 0.  1.
        -13    1    5    5    0    0 -0.62523849433E+02  0.66439111846E+02 -0.22183403610E+03  0.23986189131E+03  0.00000000000E+00 0. -1.
          1    1    6    6  503    0 -0.72574654384E+00 -0.34987034855E+02 -0.90312880226E+02  0.96855746606E+02  0.00000000000E+00 0. -1.
         -1    1    6    6    0  503  0.11390765178E+03 -0.35131418622E+03 -0.40841663478E+03  0.55063668434E+03  0.00000000000E+00 0.  1.
<mgrwt>
<rscale>  0 0.15811344E+04</rscale>
<asrwt>0</asrwt>
<pdfrwt beam="1">  1        2 0.51240941E+00 0.15811344E+04</pdfrwt>
<pdfrwt beam="2">  1       -2 0.28869135E-01 0.15811344E+04</pdfrwt>
<totfact> 0.11350603E+01</totfact>
</mgrwt>
</event>
<event>
12    3  0.4773567E-008  0.1485788E+04  0.7818608E-02  0.8893959E-01
          1   -1    0    0  501    0  0.00000000000E+00  0.00000000000E+00  0.96464224299E+03  0.96464224299E+03  0.00000000000E+00 0. -1.
         -1   -1    0    0    0  501 -0.00000000000E+00 -0.00000000000E+00 -0.57212054298E+03  0.57212054298E+03  0.00000000000E+00 0.  1.
         23    2    1    2    0    0 -0.10974643677E+03 -0.16035926775E+01 -0.32696972752E+03  0.35565735312E+03  0.86810703382E+02 0.  0.
        254    2    1    2    0    0  0.10974643677E+03  0.16035926775E+01  0.71949142752E+03  0.11811054329E+04  0.93021249043E+03 0.  0.
         23    2    4    4    0    0 -0.23075783490E+02  0.12907690293E+02  0.91964385267E+03  0.92469265055E+03  0.92803997686E+02 0.  0.
         23    2    4    4    0    0  0.13282222026E+03 -0.11304097616E+02 -0.20015242514E+03  0.25641278230E+03  0.88977507377E+02 0.  0.
          1    1    3    3  502    0 -0.12001662998E+02  0.26178296951E+02 -0.29138945282E+02  0.40968540102E+02  0.00000000000E+00 0. -1.
         -1    1    3    3    0  502 -0.97744773769E+02 -0.27781889628E+02 -0.29783078224E+03  0.31468881302E+03  0.00000000000E+00 0.  1.
         13    1    5    5    0    0 -0.29564111230E+01 -0.21753921684E+02  0.75216298367E+03  0.75248330711E+03  0.00000000000E+00 0. -1.
        -13    1    5    5    0    0 -0.20119372367E+02  0.34661611977E+02  0.16748086900E+03  0.17220934344E+03  0.00000000000E+00 0.  1.
          1    1    6    6  503    0  0.37094236283E+02 -0.30141558968E+02 -0.12322185068E+03  0.13216701717E+03  0.00000000000E+00 0. -1.
         -1    1    6    6    0  503  0.95727983974E+02  0.18837461352E+02 -0.76930574469E+02  0.12424576514E+03  0.00000000000E+00 0.  1.
<mgrwt>
<rscale>  0 0.14857882E+04</rscale>
<asrwt>0</asrwt>
<pdfrwt beam="1">  1        1 0.14840650E+00 0.14857882E+04</pdfrwt>
<pdfrwt beam="2">  1       -1 0.88018545E-01 0.14857882E+04</pdfrwt>
<totfact> 0.19829276E+01</totfact>
</mgrwt>
</event>
<event>
12    3  0.4773567E-008  0.1521558E+04  0.7818608E-02  0.8870243E-01
         -1   -1    0    0    0  501 -0.00000000000E+00  0.00000000000E+00  0.15732225825E+04  0.15732225825E+04  0.00000000000E+00 0.  1.
          1   -1    0    0  501    0  0.00000000000E+00 -0.00000000000E+00 -0.36789737242E+03  0.36789737242E+03  0.00000000000E+00 0. -1.
         23    2    1    2    0    0  0.46676609941E+02  0.16773332654E+03  0.97187741680E+03  0.99144516575E+03  0.90025711173E+02 0.  0.
        254    2    1    2    0    0 -0.46676609941E+02 -0.16773332654E+03  0.23344779323E+03  0.94967478912E+03  0.90391988482E+03 0.  0.
         23    2    4    4    0    0  0.17815802004E+03 -0.41701535084E+03  0.35223134957E+03  0.58142863835E+03  0.91379729300E+02 0.  0.
         23    2    4    4    0    0 -0.22483462999E+03  0.24928202430E+03 -0.11878355634E+03  0.36824615077E+03  0.93827265857E+02 0.  0.
          1    1    3    3  502    0  0.13721830873E+02  0.23425054588E+00  0.19239141046E+02  0.23632352062E+02  0.00000000000E+00 0. -1.
         -1    1    3    3    0  502  0.32954779068E+02  0.16749907599E+03  0.95263827575E+03  0.96781281369E+03  0.00000000000E+00 0.  1.
         13    1    5    5    0    0  0.93242899215E+02 -0.32166643187E+03  0.25373626325E+03  0.42017332488E+03  0.00000000000E+00 0.  1.
        -13    1    5    5    0    0  0.84915120830E+02 -0.95348918967E+02  0.98495086324E+02  0.16125531347E+03  0.00000000000E+00 0. -1.
          4    1    6    6  503    0 -0.26323801710E+02  0.87869122936E+02 -0.19320538621E+02  0.93740111557E+02  0.00000000000E+00 0.  1.
         -4    1    6    6    0  503 -0.19851082828E+03  0.16141290137E+03 -0.99463017722E+02  0.27450603921E+03  0.00000000000E+00 0. -1.
<mgrwt>
<rscale>  0 0.15215577E+04</rscale>
<asrwt>0</asrwt>
<pdfrwt beam="1">  1        1 0.56599597E-01 0.15215577E+04</pdfrwt>
<pdfrwt beam="2">  1       -1 0.24203424E+00 0.15215577E+04</pdfrwt>
<totfact> 0.50923531E+00</totfact>
</mgrwt>
</event>
<event>
12    3  0.4773567E-008  0.1398274E+04  0.7818608E-02  0.8955069E-01
         -1   -1    0    0    0  501 -0.00000000000E+00  0.00000000000E+00  0.36933733517E+03  0.36933733517E+03  0.00000000000E+00 0.  1.
          1   -1    0    0  501    0  0.00000000000E+00 -0.00000000000E+00 -0.13234314245E+04  0.13234314245E+04  0.00000000000E+00 0. -1.
         23    2    1    2    0    0 -0.22936094257E+03  0.33607813347E+03 -0.22236420846E+03  0.47298839551E+03  0.93366092911E+02 0.  0.
        254    2    1    2    0    0  0.22936094257E+03 -0.33607813347E+03 -0.73172988086E+03  0.12197803642E+04  0.88706288642E+03 0.  0.
         23    2    4    4    0    0  0.93550722096E+02 -0.18144380343E+03 -0.90656021045E+03  0.93386505891E+03  0.92622576401E+02 0.  0.
         23    2    4    4    0    0  0.13581022048E+03 -0.15463433005E+03  0.17483032959E+03  0.28591530525E+03  0.93945333131E+02 0.  0.
          3    1    3    3  502    0 -0.71842114509E+02  0.10998391104E+03 -0.12329542903E+03  0.18016523784E+03  0.00000000000E+00 0. -1.
         -3    1    3    3    0  502 -0.15751882806E+03  0.22609422243E+03 -0.99068779428E+02  0.29282315767E+03  0.00000000000E+00 0.  1.
         13    1    5    5    0    0 -0.13122127693E+02  0.14735199713E+00 -0.68636725618E+02  0.69879983195E+02  0.00000000000E+00 0. -1.
        -13    1    5    5    0    0  0.10667284979E+03 -0.18159115542E+03 -0.83792348484E+03  0.86398507571E+03  0.00000000000E+00 0.  1.
          3    1    6    6  503    0  0.10739159883E+03 -0.11449329468E+03  0.73609457128E+02  0.17337826335E+03  0.00000000000E+00 0. -1.
         -3    1    6    6    0  503  0.28418621651E+02 -0.40141035367E+02  0.10122087246E+03  0.11253704190E+03  0.00000000000E+00 0.  1.
<mgrwt>
<rscale>  0 0.13982741E+04</rscale>
<asrwt>0</asrwt>
<pdfrwt beam="1">  1        1 0.20360483E+00 0.13982741E+04</pdfrwt>
<pdfrwt beam="2">  1       -1 0.56821128E-01 0.13982741E+04</pdfrwt>
<totfact> 0.26610632E+01</totfact>
</mgrwt>
</event>
<event>
12    3  0.4773567E-008  0.1391563E+04  0.7818608E-02  0.8959948E-01
          2   -1    0    0  501    0  0.00000000000E+00  0.00000000000E+00  0.80017865341E+03  0.80017865341E+03  0.00000000000E+00 0. -1.
         -2   -1    0    0    0  501 -0.00000000000E+00 -0.00000000000E+00 -0.60500477947E+03  0.60500477947E+03  0.00000000000E+00 0.  1.
         23    2    1    2    0    0  0.35386830713E+03  0.16780703240E+03  0.46935889208E+01  0.40162300988E+03  0.88865254048E+02 0.  0.
        254    2    1    2    0    0 -0.35386830713E+03 -0.16780703240E+03  0.19048028502E+03  0.10035604230E+04  0.90413981480E+03 0.  0.
         23    2    4    4    0    0  0.25402770840E+03 -0.10704107224E+02  0.24782587836E+03  0.36645430616E+03  0.90699713192E+02 0.  0.
         23    2    4    4    0    0 -0.60789601553E+03 -0.15710292517E+03 -0.57345593339E+02  0.63710611684E+03  0.91634012500E+02 0.  0.
          2    1    3    3  502    0  0.76886450282E+02  0.80159538617E+02  0.43586505011E+00  0.11107325442E+03  0.00000000000E+00 0. -1.
         -2    1    3    3    0  502  0.27698185685E+03  0.87647493779E+02  0.42577238707E+01  0.29054975547E+03  0.00000000000E+00 0.  1.
         13    1    5    5    0    0  0.48502092948E+02  0.72458610004E+01  0.73175276515E+01  0.49583280780E+02  0.00000000000E+00 0.  1.
        -13    1    5    5    0    0  0.20552561545E+03 -0.17949968224E+02  0.24050835071E+03  0.31687102538E+03  0.00000000000E+00 0. -1.
          3    1    6    6  503    0 -0.59568973542E+03 -0.14508826194E+03 -0.68111734899E+02  0.61687605973E+03  0.00000000000E+00 0. -1.
         -3    1    6    6    0  503 -0.12206280110E+02 -0.12014663229E+02  0.10766141559E+02  0.20230057111E+02  0.00000000000E+00 0.  1.
<mgrwt>
<rscale>  0 0.13915630E+04</rscale>
<asrwt>0</asrwt>
<pdfrwt beam="1">  1        2 0.12310441E+00 0.13915630E+04</pdfrwt>
<pdfrwt beam="2">  1       -2 0.93077659E-01 0.13915630E+04</pdfrwt>
<totfact> 0.32793959E+01</totfact>
</mgrwt>
</event>
<event>
12    3  0.4773567E-008  0.1628110E+04  0.7818608E-02  0.8803463E-01
          2   -1    0    0  501    0  0.00000000000E+00  0.00000000000E+00  0.14398817643E+04  0.14398817643E+04  0.00000000000E+00 0.  1.
         -2   -1    0    0    0  501 -0.00000000000E+00 -0.00000000000E+00 -0.46023586168E+03  0.46023586168E+03  0.00000000000E+00 0. -1.
         23    2    1    2    0    0 -0.33616172047E+02  0.92590102480E+02  0.97610035488E+03  0.98533670092E+03  0.91725336095E+02 0.  0.
        254    2    1    2    0    0  0.33616172047E+02 -0.92590102480E+02  0.35455476986E+01  0.91478092503E+03  0.90945510927E+03 0.  0.
         23    2    4    4    0    0 -0.37396634484E+03  0.40448464215E+02  0.19884885302E+03  0.43520922871E+03  0.91538522382E+02 0.  0.
         23    2    4    4    0    0  0.40758251689E+03 -0.13303856670E+03 -0.19530330532E+03  0.47957169631E+03  0.89570433370E+02 0.  0.
          1    1    3    3  502    0 -0.92568263501E+00  0.51811933018E+02  0.17443539187E+03  0.18196988550E+03  0.00000000000E+00 0. -1.
         -1    1    3    3    0  502 -0.32690489412E+02  0.40778169462E+02  0.80166496301E+03  0.80336681542E+03  0.00000000000E+00 0.  1.
         13    1    5    5    0    0 -0.29694734533E+03  0.67338774339E+01  0.18520541092E+03  0.35003444865E+03  0.00000000000E+00 0. -1.
        -13    1    5    5    0    0 -0.77018999510E+02  0.33714586782E+02  0.13643442097E+02  0.85174780068E+02  0.00000000000E+00 0.  1.
          3    1    6    6  503    0  0.34736207506E+03 -0.94927459568E+02 -0.19232941351E+03  0.40824286531E+03  0.00000000000E+00 0. -1.
         -3    1    6    6    0  503  0.60220441827E+02 -0.38111107127E+02 -0.29738918066E+01  0.71328831007E+02  0.00000000000E+00 0.  1.
<mgrwt>
<rscale>  0 0.16281096E+04</rscale>
<asrwt>0</asrwt>
<pdfrwt beam="1">  1        2 0.22152027E+00 0.16281096E+04</pdfrwt>
<pdfrwt beam="2">  1       -2 0.70805517E-01 0.16281096E+04</pdfrwt>
<totfact> 0.23818779E+01</totfact>
</mgrwt>
</event>
<event>
12    3  0.4773567E-008  0.1631307E+04  0.7818608E-02  0.8801543E-01
          2   -1    0    0  501    0  0.00000000000E+00  0.00000000000E+00  0.14988871627E+04  0.14988871627E+04  0.00000000000E+00 0. -1.
         -2   -1    0    0    0  501 -0.00000000000E+00 -0.00000000000E+00 -0.44385613959E+03  0.44385613959E+03  0.00000000000E+00 0.  1.
         23    2    1    2    0    0 -0.28812271196E+03  0.46633408124E+03  0.24506872493E+03  0.61122597910E+03  0.11426436502E+03 0.  0.
        254    2    1    2    0    0  0.28812271196E+03 -0.46633408124E+03  0.80996229813E+03  0.13315173231E+04  0.90355812485E+03 0.  0.
         23    2    4    4    0    0  0.27313882004E+03 -0.41321890848E+03  0.99608034988E+03  0.11169770761E+04  0.10053379379E+03 0.  0.
         23    2    4    4    0    0  0.14983891918E+02 -0.53115172761E+02 -0.18611805175E+03  0.21454024709E+03  0.91333727824E+02 0.  0.
          2    1    3    3  502    0 -0.27126786512E+03  0.35404347232E+03  0.20426884946E+03  0.49056987046E+03  0.00000000000E+00 0. -1.
         -2    1    3    3    0  502 -0.16854846831E+02  0.11229060892E+03  0.40799875472E+02  0.12065610864E+03  0.00000000000E+00 0.  1.
         13    1    5    5    0    0  0.17923743616E+03 -0.20437031449E+03  0.61487538562E+03  0.67228344008E+03  0.00000000000E+00 0. -1.
        -13    1    5    5    0    0  0.93901383880E+02 -0.20884859399E+03  0.38120496426E+03  0.44469363598E+03  0.00000000000E+00 0.  1.
          1    1    6    6  503    0  0.44961226757E+01 -0.70091284600E+02 -0.18069028949E+03  0.19386073355E+03  0.00000000000E+00 0. -1.
         -1    1    6    6    0  503  0.10487769242E+02  0.16976111839E+02 -0.54277622538E+01  0.20679513532E+02  0.00000000000E+00 0.  1.
<mgrwt>
<rscale>  0 0.16313066E+04</rscale>
<asrwt>0</asrwt>
<pdfrwt beam="1">  1        2 0.23059802E+00 0.16313066E+04</pdfrwt>
<pdfrwt beam="2">  1       -2 0.68285561E-01 0.16313066E+04</pdfrwt>
<totfact> 0.23860546E+01</totfact>
</mgrwt>
</event>
<event>
12    3  0.4773567E-008  0.1597071E+04  0.7818608E-02  0.8822350E-01
         -2   -1    0    0    0  501 -0.00000000000E+00  0.00000000000E+00  0.64365753029E+03  0.64365753029E+03  0.00000000000E+00 0.  1.
          2   -1    0    0  501    0  0.00000000000E+00 -0.00000000000E+00 -0.99068001412E+03  0.99068001412E+03  0.00000000000E+00 0. -1.
         23    2    1    2    0    0  0.55823986752E+02 -0.41724334899E+03  0.21721026036E+03  0.48251978417E+03  0.91851592975E+02 0.  0.
        254    2    1    2    0    0 -0.55823986752E+02  0.41724334899E+03 -0.56423274419E+03  0.11518177602E+04  0.91165631322E+03 0.  0.
         23    2    4    4    0    0  0.70142580190E+02  0.65593527275E+02 -0.72340921580E+03  0.73549792656E+03  0.91726845020E+02 0.  0.
         23    2    4    4    0    0 -0.12596656694E+03  0.35164982172E+03  0.15917647161E+03  0.41631983369E+03  0.91977615253E+02 0.  0.
          4    1    3    3  502    0  0.56202660811E+02 -0.12685779013E+03  0.90749661693E+02  0.16579245790E+03  0.00000000000E+00 0. -1.
         -4    1    3    3    0  502 -0.37867405919E+00 -0.29038555886E+03  0.12646059867E+03  0.31672732626E+03  0.00000000000E+00 0.  1.
         13    1    5    5    0    0  0.89608865988E+01  0.56280582587E+02 -0.51359256289E+03  0.51674473594E+03  0.00000000000E+00 0. -1.
        -13    1    5    5    0    0  0.61181693591E+02  0.93129446878E+01 -0.20981665290E+03  0.21875319062E+03  0.00000000000E+00 0.  1.
          2    1    6    6  503    0 -0.35506779226E+02  0.17288630952E+03  0.11649862613E+03  0.21147656438E+03  0.00000000000E+00 0. -1.
         -2    1    6    6    0  503 -0.90459787716E+02  0.17876351220E+03  0.42677845471E+02  0.20484326931E+03  0.00000000000E+00 0.  1.
<mgrwt>
<rscale>  0 0.15970706E+04</rscale>
<asrwt>0</asrwt>
<pdfrwt beam="1">  1        2 0.15241231E+00 0.15970706E+04</pdfrwt>
<pdfrwt beam="2">  1       -2 0.99024235E-01 0.15970706E+04</pdfrwt>
<totfact> 0.20713152E+01</totfact>
</mgrwt>
</event>
<event>
12    3  0.4773567E-008  0.1585208E+04  0.7818608E-02  0.8829687E-01
         -1   -1    0    0    0  501 -0.00000000000E+00  0.00000000000E+00  0.49204071983E+03  0.49204071983E+03  0.00000000000E+00 0.  1.
          1   -1    0    0  501    0  0.00000000000E+00 -0.00000000000E+00 -0.12767658326E+04  0.12767658326E+04  0.00000000000E+00 0. -1.
         23    2    1    2    0    0  0.27030653367E+03 -0.20738008006E+03  0.18741683106E+03  0.39873349769E+03  0.88267852930E+02 0.  0.
        254    2    1    2    0    0 -0.27030653367E+03  0.20738008006E+03 -0.97214194386E+03  0.13700730548E+04  0.90330952429E+03 0.  0.
         23    2    4    4    0    0 -0.56829948649E+03  0.70952728489E+02 -0.80303076723E+03  0.99053146982E+03  0.91080094162E+02 0.  0.
         23    2    4    4    0    0  0.29799295282E+03  0.13642735157E+03 -0.16911117662E+03  0.37954158496E+03  0.89671636898E+02 0.  0.
          2    1    3    3  502    0  0.46750526319E+02 -0.82064644940E+02  0.65444727359E+02  0.11490530884E+03  0.00000000000E+00 0. -1.
         -2    1    3    3    0  502  0.22355600735E+03 -0.12531543512E+03  0.12197210370E+03  0.28382818885E+03  0.00000000000E+00 0.  1.
         13    1    5    5    0    0 -0.41558547178E+03  0.92203628129E+02 -0.58487009616E+03  0.72338497549E+03  0.00000000000E+00 0.  1.
        -13    1    5    5    0    0 -0.15271401472E+03 -0.21250899639E+02 -0.21816067108E+03  0.26714649433E+03  0.00000000000E+00 0. -1.
          4    1    6    6  503    0  0.71370275609E+02  0.64804527552E+02 -0.81501338448E+02  0.12623712291E+03  0.00000000000E+00 0. -1.
         -4    1    6    6    0  503  0.22662267721E+03  0.71622824020E+02 -0.87609838175E+02  0.25330446205E+03  0.00000000000E+00 0.  1.
<mgrwt>
<rscale>  0 0.15852076E+04</rscale>
<asrwt>0</asrwt>
<pdfrwt beam="1">  1        1 0.19642551E+00 0.15852076E+04</pdfrwt>
<pdfrwt beam="2">  1       -1 0.75698572E-01 0.15852076E+04</pdfrwt>
<totfact> 0.15834573E+01</totfact>
</mgrwt>
</event>
<event>
12    3  0.4773567E-008  0.2327196E+04  0.7818608E-02  0.8467275E-01
          1   -1    0    0  501    0  0.00000000000E+00  0.00000000000E+00  0.99029714747E+03  0.99029714747E+03  0.00000000000E+00 0. -1.
         -1   -1    0    0    0  501 -0.00000000000E+00 -0.00000000000E+00 -0.13672264911E+04  0.13672264911E+04  0.00000000000E+00 0.  1.
         23    2    1    2    0    0 -0.37664854772E+03  0.86341871682E+03 -0.42536343962E+03  0.10377928440E+04  0.93401939725E+02 0.  0.
        254    2    1    2    0    0  0.37664854772E+03 -0.86341871682E+03  0.48434095964E+02  0.13197307945E+04  0.92303168925E+03 0.  0.
         23    2    4    4    0    0 -0.34420583644E+02 -0.83962346344E+03  0.20530107101E+03  0.86971841827E+03  0.90051431902E+02 0.  0.
         23    2    4    4    0    0  0.41106913137E+03 -0.23795253373E+02 -0.15686697504E+03  0.45001237626E+03  0.91432193936E+02 0.  0.
          4    1    3    3  502    0 -0.35902485516E+03  0.82619384848E+03 -0.38349520580E+03  0.97906266130E+03  0.00000000000E+00 0. -1.
         -4    1    3    3    0  502 -0.17623692565E+02  0.37224868339E+02 -0.41868233819E+02  0.58730182748E+02  0.00000000000E+00 0.  1.
         13    1    5    5    0    0 -0.14449538779E+02 -0.26142672413E+02 -0.22048495838E+01  0.29951458286E+02  0.00000000000E+00 0. -1.
        -13    1    5    5    0    0 -0.19971044865E+02 -0.81348079103E+03  0.20750592059E+03  0.83976695999E+03  0.00000000000E+00 0.  1.
          3    1    6    6  503    0  0.27460322725E+03 -0.58706988382E+02 -0.99447505109E+02  0.29789805164E+03  0.00000000000E+00 0. -1.
         -3    1    6    6    0  503  0.13646590412E+03  0.34911735009E+02 -0.57419469932E+02  0.15211432462E+03  0.00000000000E+00 0.  1.
<mgrwt>
<rscale>  0 0.23271962E+04</rscale>
<asrwt>0</asrwt>
<pdfrwt beam="1">  1        1 0.15235341E+00 0.23271962E+04</pdfrwt>
<pdfrwt beam="2">  1       -1 0.21034254E+00 0.23271962E+04</pdfrwt>
<totfact> 0.17755679E+00</totfact>
</mgrwt>
</event>
<event>
12    3  0.4773567E-008  0.1876977E+04  0.7818608E-02  0.8666402E-01
         -2   -1    0    0    0  501 -0.00000000000E+00  0.00000000000E+00  0.96662653580E+03  0.96662653580E+03  0.00000000000E+00 0.  1.
          2   -1    0    0  501    0  0.00000000000E+00 -0.00000000000E+00 -0.91116972883E+03  0.91116972883E+03  0.00000000000E+00 0. -1.
         23    2    1    2    0    0 -0.34783980787E+03  0.57716674933E+03 -0.25112951121E+03  0.72486249149E+03  0.90805350567E+02 0.  0.
        254    2    1    2    0    0  0.34783980787E+03 -0.57716674933E+03  0.30658631817E+03  0.11529337731E+04  0.88382528041E+03 0.  0.
         23    2    4    4    0    0  0.35952180984E+03 -0.12452900045E+03  0.51444025210E+03  0.64633369022E+03  0.91296563048E+02 0.  0.
         23    2    4    4    0    0 -0.11682001964E+02 -0.45263774888E+03 -0.20785393394E+03  0.50660008292E+03  0.91776823244E+02 0.  0.
          4    1    3    3  502    0 -0.14722407038E+03  0.32336904425E+03 -0.15249321478E+03  0.38664796163E+03  0.00000000000E+00 0. -1.
         -4    1    3    3    0  502 -0.20061573749E+03  0.25379770508E+03 -0.98636296432E+02  0.33821452986E+03  0.00000000000E+00 0.  1.
         13    1    5    5    0    0  0.16188715564E+03 -0.10425055240E+03  0.24775938996E+03  0.31378391315E+03  0.00000000000E+00 0.  1.
        -13    1    5    5    0    0  0.19763465420E+03 -0.20278448048E+02  0.26668086215E+03  0.33254977707E+03  0.00000000000E+00 0. -1.
          3    1    6    6  503    0  0.25817331297E+01 -0.44643371192E+03 -0.20096914550E+03  0.48958995285E+03  0.00000000000E+00 0. -1.
         -3    1    6    6    0  503 -0.14263735093E+02 -0.62040369574E+01 -0.68847884393E+01  0.17010130077E+02  0.00000000000E+00 0.  1.
<mgrwt>
<rscale>  0 0.18769772E+04</rscale>
<asrwt>0</asrwt>
<pdfrwt beam="1">  1        2 0.14017996E+00 0.18769772E+04</pdfrwt>
<pdfrwt beam="2">  1       -2 0.14871177E+00 0.18769772E+04</pdfrwt>
<totfact> 0.82867059E+00</totfact>
</mgrwt>
</event>
<event>
12    3  0.4773567E-008  0.4021879E+04  0.7818608E-02  0.8000147E-01
          1   -1    0    0  501    0  0.00000000000E+00  0.00000000000E+00  0.35033847283E+04  0.35033847283E+04  0.00000000000E+00 0. -1.
         -1   -1    0    0    0  501 -0.00000000000E+00 -0.00000000000E+00 -0.11542775902E+04  0.11542775902E+04  0.00000000000E+00 0.  1.
         23    2    1    2    0    0  0.80203946159E+03 -0.57489980661E+03  0.30093108527E+04  0.31682968437E+04  0.91520465933E+02 0.  0.
        254    2    1    2    0    0 -0.80203946159E+03  0.57489980661E+03 -0.66020371465E+03  0.14893654749E+04  0.89920158323E+03 0.  0.
         23    2    4    4    0    0 -0.68561154086E+01  0.47766975098E+03 -0.43517243861E+03  0.65232913096E+03  0.89122648390E+02 0.  0.
         23    2    4    4    0    0 -0.79518334618E+03  0.97230055628E+02 -0.22503127605E+03  0.83703634390E+03  0.90667127745E+02 0.  0.
          3    1    3    3  502    0  0.40048864108E+03 -0.31230953603E+03  0.14164372496E+04  0.15047334914E+04  0.00000000000E+00 0.  1.
         -3    1    3    3    0  502  0.40155082052E+03 -0.26259027058E+03  0.15928736031E+04  0.16635633523E+04  0.00000000000E+00 0. -1.
         13    1    5    5    0    0  0.17604494670E+02  0.37238038643E+03 -0.37428292693E+03  0.52826582307E+03  0.00000000000E+00 0. -1.
        -13    1    5    5    0    0 -0.24460610078E+02  0.10528936455E+03 -0.60889511677E+02  0.12406330789E+03  0.00000000000E+00 0.  1.
          2    1    6    6  503    0 -0.64706460096E+03  0.10472712742E+03 -0.15786013933E+03  0.67422562441E+03  0.00000000000E+00 0. -1.
         -2    1    6    6    0  503 -0.14811874523E+03 -0.74970717899E+01 -0.67171136718E+02  0.16281071949E+03  0.00000000000E+00 0.  1.
<mgrwt>
<rscale>  0 0.40218794E+04</rscale>
<asrwt>0</asrwt>
<pdfrwt beam="1">  1        1 0.53898226E+00 0.40218794E+04</pdfrwt>
<pdfrwt beam="2">  1       -1 0.17758117E+00 0.40218794E+04</pdfrwt>
<totfact> 0.41968901E-02</totfact>
</mgrwt>
</event>
<event>
12    3  0.4773567E-008  0.1568459E+04  0.7818608E-02  0.8840163E-01
         -2   -1    0    0    0  501 -0.00000000000E+00  0.00000000000E+00  0.48554644554E+03  0.48554644554E+03  0.00000000000E+00 0.  1.
          2   -1    0    0  501    0  0.00000000000E+00 -0.00000000000E+00 -0.12666461133E+04  0.12666461133E+04  0.00000000000E+00 0. -1.
         23    2    1    2    0    0  0.43427648952E+02  0.33053510657E+03 -0.70995232248E+03  0.78952400813E+03  0.90423679706E+02 0.  0.
        254    2    1    2    0    0 -0.43427648952E+02 -0.33053510657E+03 -0.71147345280E+02  0.96266855071E+03  0.90029404997E+03 0.  0.
         23    2    4    4    0    0 -0.27730893605E+03 -0.22923698934E+03 -0.39401720181E+03  0.54132005134E+03  0.91257872879E+02 0.  0.
         23    2    4    4    0    0  0.23388128710E+03 -0.10129811723E+03  0.32286985653E+03  0.42134849937E+03  0.91257047171E+02 0.  0.
          2    1    3    3  502    0  0.46573906916E+02  0.67613908119E+02 -0.18509283107E+03  0.20248487719E+03  0.00000000000E+00 0.  1.
         -2    1    3    3    0  502 -0.31462579647E+01  0.26292119845E+03 -0.52485949141E+03  0.58703913094E+03  0.00000000000E+00 0. -1.
         13    1    5    5    0    0 -0.17973300334E+03 -0.19877805432E+03 -0.30233234241E+03  0.40400682251E+03  0.00000000000E+00 0. -1.
        -13    1    5    5    0    0 -0.97575932715E+02 -0.30458935019E+02 -0.91684859400E+02  0.13731322883E+03  0.00000000000E+00 0.  1.
          4    1    6    6  503    0  0.34754290682E+02 -0.10870591535E+02  0.68796331633E+01  0.37058869837E+02  0.00000000000E+00 0.  1.
         -4    1    6    6    0  503  0.19912699642E+03 -0.90427525698E+02  0.31599022336E+03  0.38428962953E+03  0.00000000000E+00 0. -1.
<mgrwt>
<rscale>  0 0.15684585E+04</rscale>
<asrwt>0</asrwt>
<pdfrwt beam="1">  1        2 0.19486863E+00 0.15684585E+04</pdfrwt>
<pdfrwt beam="2">  1       -2 0.74699454E-01 0.15684585E+04</pdfrwt>
<totfact> 0.26781796E+01</totfact>
</mgrwt>
</event>
<event>
12    3  0.4773567E-008  0.1794512E+04  0.7818608E-02  0.8709224E-01
          1   -1    0    0  501    0  0.00000000000E+00  0.00000000000E+00  0.28165164106E+04  0.28165164106E+04  0.00000000000E+00 0. -1.
         -1   -1    0    0    0  501 -0.00000000000E+00 -0.00000000000E+00 -0.28583821274E+03  0.28583821274E+03  0.00000000000E+00 0.  1.
         23    2    1    2    0    0 -0.18003229799E+03 -0.17598233358E+03 -0.11399194614E+03  0.29109516468E+03  0.91437525443E+02 0.  0.
        254    2    1    2    0    0  0.18003229799E+03  0.17598233358E+03  0.26446701440E+04  0.28112594586E+04  0.91952061602E+03 0.  0.
         23    2    4    4    0    0 -0.21524719762E+03 -0.15060143697E+03  0.17789848411E+04  0.18006852671E+04  0.93103263012E+02 0.  0.
         23    2    4    4    0    0  0.39527949561E+03  0.32658377055E+03  0.86568530289E+03  0.10105741915E+04  0.94584956746E+02 0.  0.
          2    1    3    3  502    0 -0.17340216448E+03 -0.15852977456E+03 -0.72958369594E+02  0.24601407229E+03  0.00000000000E+00 0.  1.
         -2    1    3    3    0  502 -0.66301335132E+01 -0.17452559019E+02 -0.41033576548E+02  0.45081092390E+02  0.00000000000E+00 0. -1.
         13    1    5    5    0    0 -0.11499634703E+03 -0.13073769959E+03  0.12308452156E+04  0.12430995337E+04  0.00000000000E+00 0.  1.
        -13    1    5    5    0    0 -0.10025085059E+03 -0.19863737374E+02  0.54813962550E+03  0.55758573345E+03  0.00000000000E+00 0. -1.
          3    1    6    6  503    0  0.38822245941E+02  0.32919780251E+02  0.15374800489E+03  0.16195470885E+03  0.00000000000E+00 0. -1.
         -3    1    6    6    0  503  0.35645724967E+03  0.29366399030E+03  0.71193729800E+03  0.84861948265E+03  0.00000000000E+00 0.  1.
<mgrwt>
<rscale>  0 0.17945117E+04</rscale>
<asrwt>0</asrwt>
<pdfrwt beam="1">  1        1 0.43331020E+00 0.17945117E+04</pdfrwt>
<pdfrwt beam="2">  1       -1 0.43975112E-01 0.17945117E+04</pdfrwt>
<totfact> 0.39236388E+00</totfact>
</mgrwt>
</event>
<event>
12    3  0.4773567E-008  0.1497378E+04  0.7818608E-02  0.8886198E-01
         -3   -1    0    0    0  501 -0.00000000000E+00  0.00000000000E+00  0.32817554391E+04  0.32817554391E+04  0.00000000000E+00 0.  1.
          3   -1    0    0  501    0  0.00000000000E+00 -0.00000000000E+00 -0.17080353908E+03  0.17080353908E+03  0.00000000000E+00 0. -1.
         23    2    1    2    0    0 -0.25240435955E+02  0.91735697883E+02 -0.65605311731E+02  0.14714899675E+03  0.91083766078E+02 0.  0.
        254    2    1    2    0    0  0.25240435955E+02 -0.91735697883E+02  0.31765572117E+04  0.33054099814E+04  0.90893724096E+03 0.  0.
         23    2    4    4    0    0 -0.23093323757E+03 -0.19230214325E+03  0.28570371360E+04  0.28739906903E+04  0.82770870312E+02 0.  0.
         23    2    4    4    0    0  0.25617367352E+03  0.10056644536E+03  0.31952007575E+03  0.43141929114E+03  0.91054736380E+02 0.  0.
          1    1    3    3  502    0 -0.43914001106E+02  0.31238875650E+02 -0.64198967109E+02  0.83820130177E+02  0.00000000000E+00 0. -1.
         -1    1    3    3    0  502  0.18673565151E+02  0.60496822233E+02 -0.14063446217E+01  0.63328866569E+02  0.00000000000E+00 0.  1.
         13    1    5    5    0    0 -0.22849126293E+03 -0.16400805874E+03  0.26759064899E+04  0.26906472164E+04  0.00000000000E+00 0. -1.
        -13    1    5    5    0    0 -0.24419746357E+01 -0.28294084505E+02  0.18113064611E+03  0.18334347389E+03  0.00000000000E+00 0.  1.
          4    1    6    6  503    0  0.38758187082E+02 -0.40562504915E+01  0.91455145251E+02  0.99411738878E+02  0.00000000000E+00 0.  1.
         -4    1    6    6    0  503  0.21741548644E+03  0.10462269586E+03  0.22806493050E+03  0.33200755226E+03  0.00000000000E+00 0. -1.
<mgrwt>
<rscale>  0 0.14973783E+04</rscale>
<asrwt>0</asrwt>
<pdfrwt beam="1">  1        3 0.26277470E-01 0.14973783E+04</pdfrwt>
<pdfrwt beam="2">  1       -3 0.50488541E+00 0.14973783E+04</pdfrwt>
<totfact> 0.10239287E-01</totfact>
</mgrwt>
</event>
<event>
12    3  0.4773567E-008  0.2381325E+04  0.7818608E-02  0.8446529E-01
          2   -1    0    0  501    0  0.00000000000E+00  0.00000000000E+00  0.11573733296E+04  0.11573733296E+04  0.00000000000E+00 0. -1.
         -2   -1    0    0    0  501 -0.00000000000E+00 -0.00000000000E+00 -0.12249087191E+04  0.12249087191E+04  0.00000000000E+00 0.  1.
         23    2    1    2    0    0  0.31227247459E+03  0.79244046499E+03 -0.59512181925E+03  0.10429832787E+04  0.90377823987E+02 0.  0.
        254    2    1    2    0    0 -0.31227247459E+03 -0.79244046499E+03  0.52758642972E+03  0.13392987700E+04  0.88876192848E+03 0.  0.
         23    2    4    4    0    0 -0.61044459508E+03 -0.57390650117E+03  0.43183361231E+03  0.94696123007E+03  0.90796623236E+02 0.  0.
         23    2    4    4    0    0  0.29817212049E+03 -0.21853396382E+03  0.95752817411E+02  0.39233753991E+03  0.89980200042E+02 0.  0.
          2    1    3    3  502    0  0.67796750114E+02  0.89934473989E+02 -0.73653799820E+02  0.13457150949E+03  0.00000000000E+00 0. -1.
         -2    1    3    3    0  502  0.24447572447E+03  0.70250599100E+03 -0.52146801943E+03  0.90841176926E+03  0.00000000000E+00 0.  1.
         13    1    5    5    0    0 -0.46652828796E+03 -0.41762000353E+03  0.28040468879E+03  0.68606260670E+03  0.00000000000E+00 0. -1.
        -13    1    5    5    0    0 -0.14391630712E+03 -0.15628649763E+03  0.15142892352E+03  0.26089862337E+03  0.00000000000E+00 0.  1.
          3    1    6    6  503    0  0.25392109475E+03 -0.21964829228E+03  0.78252753843E+02  0.34473872447E+03  0.00000000000E+00 0. -1.
         -3    1    6    6    0  503  0.44251025737E+02  0.11143284616E+01  0.17500063567E+02  0.47598815443E+02  0.00000000000E+00 0.  1.
<mgrwt>
<rscale>  0 0.23813246E+04</rscale>
<asrwt>0</asrwt>
<pdfrwt beam="1">  1        2 0.17805744E+00 0.23813246E+04</pdfrwt>
<pdfrwt beam="2">  1       -2 0.18844749E+00 0.23813246E+04</pdfrwt>
<totfact> 0.28732216E+00</totfact>
</mgrwt>
</event>
<event>
12    3  0.4773567E-008  0.2040690E+04  0.7818608E-02  0.8587829E-01
         -1   -1    0    0    0  501 -0.00000000000E+00  0.00000000000E+00  0.39348538798E+03  0.39348538798E+03  0.00000000000E+00 0.  1.
          1   -1    0    0  501    0  0.00000000000E+00 -0.00000000000E+00 -0.26458523990E+04  0.26458523990E+04  0.00000000000E+00 0. -1.
         23    2    1    2    0    0  0.59631096106E+03 -0.48727289308E+03 -0.13138876237E+04  0.15256951634E+04  0.91779132663E+02 0.  0.
        254    2    1    2    0    0 -0.59631096106E+03  0.48727289308E+03 -0.93847938733E+03  0.15136426236E+04  0.90407344671E+03 0.  0.
         23    2    4    4    0    0  0.93227743365E+02  0.29817363479E+03 -0.66942299843E+03  0.74416041501E+03  0.89714234273E+02 0.  0.
         23    2    4    4    0    0 -0.68953870443E+03  0.18909925829E+03 -0.26905638890E+03  0.76948220863E+03  0.92137802193E+02 0.  0.
          3    1    3    3  502    0  0.52730566740E+03 -0.42491160129E+03 -0.10897528814E+04  0.12830286350E+04  0.00000000000E+00 0. -1.
         -3    1    3    3    0  502  0.69005293667E+02 -0.62361291788E+02 -0.22413474238E+03  0.24266652841E+03  0.00000000000E+00 0.  1.
         13    1    5    5    0    0  0.37678241987E+02  0.23175344145E+02 -0.81587601083E+02  0.92807775245E+02  0.00000000000E+00 0. -1.
        -13    1    5    5    0    0  0.55549501378E+02  0.27499829064E+03 -0.58783539734E+03  0.65135263977E+03  0.00000000000E+00 0.  1.
          3    1    6    6  503    0 -0.39756238341E+03  0.11465222006E+03 -0.20356657872E+03  0.46112940942E+03  0.00000000000E+00 0. -1.
         -3    1    6    6    0  503 -0.29197632102E+03  0.74447038227E+02 -0.65489810186E+02  0.30835279920E+03  0.00000000000E+00 0.  1.
<mgrwt>
<rscale>  0 0.20406903E+04</rscale>
<asrwt>0</asrwt>
<pdfrwt beam="1">  1        1 0.40705421E+00 0.20406903E+04</pdfrwt>
<pdfrwt beam="2">  1       -1 0.60536215E-01 0.20406903E+04</pdfrwt>
<totfact> 0.27427469E+00</totfact>
</mgrwt>
</event>
<event>
12    3  0.4773567E-008  0.1572245E+04  0.7818608E-02  0.8837783E-01
          2   -1    0    0  501    0  0.00000000000E+00  0.00000000000E+00  0.42230221339E+04  0.42230221339E+04  0.00000000000E+00 0. -1.
         -2   -1    0    0    0  501 -0.00000000000E+00 -0.00000000000E+00 -0.14633797918E+03  0.14633797918E+03  0.00000000000E+00 0.  1.
         23    2    1    2    0    0  0.26926390172E+03 -0.16999851885E+03  0.25896449406E+04  0.26106707240E+04  0.89096383351E+02 0.  0.
        254    2    1    2    0    0 -0.26926390172E+03  0.16999851885E+03  0.14870392142E+04  0.17586893891E+04  0.88334602383E+03 0.  0.
         23    2    4    4    0    0 -0.14589425307E+03 -0.20772512817E+02 -0.67828229656E+02  0.18459071287E+03  0.88070609026E+02 0.  0.
         23    2    4    4    0    0 -0.12336964865E+03  0.19077103166E+03  0.15548674438E+04  0.15740986763E+04  0.92521446272E+02 0.  0.
          1    1    3    3  502    0  0.16056213671E+03 -0.75243774652E+02  0.17242512830E+04  0.17333448336E+04  0.00000000000E+00 0. -1.
         -1    1    3    3    0  502  0.10870176501E+03 -0.94754744196E+02  0.86539365760E+03  0.87732589035E+03  0.00000000000E+00 0.  1.
         13    1    5    5    0    0 -0.60795343073E+02 -0.52665731035E+02 -0.37846040152E+02  0.88893620243E+02  0.00000000000E+00 0. -1.
        -13    1    5    5    0    0 -0.85098909993E+02  0.31893218218E+02 -0.29982189505E+02  0.95697092630E+02  0.00000000000E+00 0.  1.
          1    1    6    6  503    0  0.82371866300E+01  0.17303964657E+02  0.49764438652E+02  0.53327083089E+02  0.00000000000E+00 0. -1.
         -1    1    6    6    0  503 -0.13160683528E+03  0.17346706701E+03  0.15051030052E+04  0.15207715932E+04  0.00000000000E+00 0.  1.
<mgrwt>
<rscale>  0 0.15722449E+04</rscale>
<asrwt>0</asrwt>
<pdfrwt beam="1">  1        2 0.64969562E+00 0.15722449E+04</pdfrwt>
<pdfrwt beam="2">  1       -2 0.22513538E-01 0.15722449E+04</pdfrwt>
<totfact> 0.37929440E+00</totfact>
</mgrwt>
</event>
<event>
12    3  0.4773567E-008  0.1848210E+04  0.7818608E-02  0.8681074E-01
          1   -1    0    0  501    0  0.00000000000E+00  0.00000000000E+00  0.12102795352E+04  0.12102795352E+04  0.00000000000E+00 0. -1.
         -1   -1    0    0    0  501 -0.00000000000E+00 -0.00000000000E+00 -0.70559700785E+03  0.70559700785E+03  0.00000000000E+00 0.  1.
         23    2    1    2    0    0  0.27535179815E+03  0.38818361362E+03 -0.34635426461E+03  0.59580277530E+03  0.92274264087E+02 0.  0.
        254    2    1    2    0    0 -0.27535179815E+03 -0.38818361362E+03  0.85103679199E+03  0.13200737678E+04  0.88984605434E+03 0.  0.
         23    2    4    4    0    0 -0.54336867125E+03 -0.16667702107E+03  0.26755897394E+03  0.63491836481E+03  0.92210537252E+02 0.  0.
         23    2    4    4    0    0  0.26801687311E+03 -0.22150659255E+03  0.58347781805E+03  0.68515540297E+03  0.89963032677E+02 0.  0.
          4    1    3    3  502    0  0.26370056501E+03  0.35546837143E+03 -0.34477344832E+03  0.56103875244E+03  0.00000000000E+00 0.  1.
         -4    1    3    3    0  502  0.11651233135E+02  0.32715242187E+02 -0.15808162914E+01  0.34764022855E+02  0.00000000000E+00 0. -1.
         13    1    5    5    0    0 -0.23452822127E+03 -0.86445061060E+02  0.16600306983E+03  0.30005541880E+03  0.00000000000E+00 0. -1.
        -13    1    5    5    0    0 -0.30884044998E+03 -0.80231960014E+02  0.10155590410E+03  0.33486294601E+03  0.00000000000E+00 0.  1.
          1    1    6    6  503    0  0.10498851906E+02 -0.29625132760E+02  0.99290844488E+02  0.10414675310E+03  0.00000000000E+00 0. -1.
         -1    1    6    6    0  503  0.25751802120E+03 -0.19188145979E+03  0.48418697356E+03  0.58100864987E+03  0.00000000000E+00 0.  1.
<mgrwt>
<rscale>  0 0.18482095E+04</rscale>
<asrwt>0</asrwt>
<pdfrwt beam="1">  1        1 0.18619685E+00 0.18482095E+04</pdfrwt>
<pdfrwt beam="2">  1       -1 0.10855339E+00 0.18482095E+04</pdfrwt>
<totfact> 0.77722358E+00</totfact>
</mgrwt>
</event>
<event>
12    3  0.4773567E-008  0.2487672E+04  0.7818608E-02  0.8407391E-01
         -1   -1    0    0    0  501 -0.00000000000E+00  0.00000000000E+00  0.13258147644E+04  0.13258147644E+04  0.00000000000E+00 0.  1.
          1   -1    0    0  501    0  0.00000000000E+00 -0.00000000000E+00 -0.11669263760E+04  0.11669263760E+04  0.00000000000E+00 0. -1.
         23    2    1    2    0    0  0.76169412083E+03  0.19648914838E+03  0.81024304591E+03  0.11329990433E+04  0.91690345609E+02 0.  0.
        254    2    1    2    0    0 -0.76169412083E+03 -0.19648914838E+03 -0.65135465752E+03  0.13597420972E+04  0.89769135108E+03 0.  0.
         23    2    4    4    0    0 -0.81008402130E+03 -0.44232005240E+03 -0.50425978181E+03  0.10548945856E+04  0.81495453278E+02 0.  0.
         23    2    4    4    0    0  0.48389900471E+02  0.24583090402E+03 -0.14709487571E+03  0.30484751155E+03  0.92307567380E+02 0.  0.
          3    1    3    3  502    0  0.93879414924E+02  0.31636624707E+02  0.63217292847E+02  0.11751870781E+03  0.00000000000E+00 0. -1.
         -3    1    3    3    0  502  0.66781470591E+03  0.16485252368E+03  0.74702575307E+03  0.10154803355E+04  0.00000000000E+00 0.  1.
         13    1    5    5    0    0 -0.63915432069E+03 -0.31000928528E+03 -0.38236419327E+03  0.80673811049E+03  0.00000000000E+00 0.  1.
        -13    1    5    5    0    0 -0.17092970061E+03 -0.13231076712E+03 -0.12189558854E+03  0.24815647514E+03  0.00000000000E+00 0. -1.
          2    1    6    6  503    0 -0.24662960704E+02  0.34498004692E+02 -0.14138886063E+02  0.44702148243E+02  0.00000000000E+00 0. -1.
         -2    1    6    6    0  503  0.73052861175E+02  0.21133289933E+03 -0.13295598965E+03  0.26014536330E+03  0.00000000000E+00 0.  1.
<mgrwt>
<rscale>  0 0.24876722E+04</rscale>
<asrwt>0</asrwt>
<pdfrwt beam="1">  1        1 0.17952713E+00 0.24876722E+04</pdfrwt>
<pdfrwt beam="2">  1       -1 0.20397150E+00 0.24876722E+04</pdfrwt>
<totfact> 0.14204741E+00</totfact>
</mgrwt>
</event>
<event>
12    3  0.4773567E-008  0.1101235E+04  0.7818608E-02  0.9203989E-01
          2   -1    0    0  501    0  0.00000000000E+00  0.00000000000E+00  0.35627053237E+04  0.35627053237E+04  0.00000000000E+00 0. -1.
         -2   -1    0    0    0  501 -0.00000000000E+00 -0.00000000000E+00 -0.85098108149E+02  0.85098108149E+02  0.00000000000E+00 0.  1.
         23    2    1    2    0    0 -0.92809513399E+02  0.36005212711E+02  0.98172727310E+03  0.99108306762E+03  0.92451214411E+02 0.  0.
        254    2    1    2    0    0  0.92809513399E+02 -0.36005212711E+02  0.24958799424E+04  0.26567203642E+04  0.90489580919E+03 0.  0.
         23    2    4    4    0    0 -0.58353570654E+02 -0.20924232874E+03  0.23667904512E+04  0.23783844454E+04  0.88476206132E+02 0.  0.
         23    2    4    4    0    0  0.15116308405E+03  0.17323711602E+03  0.12908949129E+03  0.27833591884E+03  0.89137032733E+02 0.  0.
          4    1    3    3  502    0 -0.90562283750E+02  0.28692430946E+02  0.97794600455E+03  0.98254932224E+03  0.00000000000E+00 0. -1.
         -4    1    3    3    0  502 -0.22472296491E+01  0.73127817655E+01  0.37812685573E+01  0.85337453764E+01  0.00000000000E+00 0.  1.
         13    1    5    5    0    0 -0.34296744516E+02 -0.78384731756E+02  0.13821066966E+04  0.13847524521E+04  0.00000000000E+00 0. -1.
        -13    1    5    5    0    0 -0.24056826138E+02 -0.13085759698E+03  0.98468375453E+03  0.99363199325E+03  0.00000000000E+00 0.  1.
          2    1    6    6  503    0  0.10809496353E+03  0.12877642939E+03  0.13573109267E+03  0.21608058549E+03  0.00000000000E+00 0.  1.
         -2    1    6    6    0  503  0.43068120519E+02  0.44460686634E+02 -0.66416013839E+01  0.62255333345E+02  0.00000000000E+00 0. -1.
<mgrwt>
<rscale>  0 0.11012347E+04</rscale>
<asrwt>0</asrwt>
<pdfrwt beam="1">  1        2 0.54810840E+00 0.11012347E+04</pdfrwt>
<pdfrwt beam="2">  1       -2 0.13092019E-01 0.11012347E+04</pdfrwt>
<totfact> 0.33273578E+01</totfact>
</mgrwt>
</event>
<event>
12    3  0.4773567E-008  0.1930334E+04  0.7818608E-02  0.8639903E-01
          2   -1    0    0  501    0  0.00000000000E+00  0.00000000000E+00  0.11234116814E+04  0.11234116814E+04  0.00000000000E+00 0. -1.
         -2   -1    0    0    0  501 -0.00000000000E+00 -0.00000000000E+00 -0.82921281918E+03  0.82921281918E+03  0.00000000000E+00 0.  1.
         23    2    1    2    0    0 -0.41209260316E+03 -0.65529523521E+02  0.72220967361E+03  0.83901628638E+03  0.90813457751E+02 0.  0.
        254    2    1    2    0    0  0.41209260316E+03  0.65529523521E+02 -0.42801081136E+03  0.11136082142E+04  0.93958265636E+03 0.  0.
         23    2    4    4    0    0  0.35359867749E+03 -0.28695444303E+03  0.95003936840E+02  0.47381289188E+03  0.89989062644E+02 0.  0.
         23    2    4    4    0    0  0.58493925669E+02  0.35248396655E+03 -0.52301474820E+03  0.63979532235E+03  0.90150660906E+02 0.  0.
          2    1    3    3  502    0 -0.24773638731E+03 -0.47757579168E+01  0.36521794493E+03  0.44133918108E+03  0.00000000000E+00 0. -1.
         -2    1    3    3    0  502 -0.16435621585E+03 -0.60753765604E+02  0.35699172869E+03  0.39767710530E+03  0.00000000000E+00 0.  1.
         13    1    5    5    0    0  0.27922732292E+03 -0.26349505554E+03  0.61006254429E+02  0.38874066579E+03  0.00000000000E+00 0. -1.
        -13    1    5    5    0    0  0.74371354572E+02 -0.23459387490E+02  0.33997682411E+02  0.85072226088E+02  0.00000000000E+00 0.  1.
          2    1    6    6  503    0  0.47298940929E+02  0.32343184751E+03 -0.42017593713E+03  0.53234684928E+03  0.00000000000E+00 0. -1.
         -2    1    6    6    0  503  0.11194984740E+02  0.29052119035E+02 -0.10283881107E+03  0.10744847307E+03  0.00000000000E+00 0.  1.
<mgrwt>
<rscale>  0 0.19303340E+04</rscale>
<asrwt>0</asrwt>
<pdfrwt beam="1">  1        2 0.17283257E+00 0.19303340E+04</pdfrwt>
<pdfrwt beam="2">  1       -2 0.12757120E+00 0.19303340E+04</pdfrwt>
<totfact> 0.89703005E+00</totfact>
</mgrwt>
</event>
<event>
12    3  0.4773567E-008  0.1480824E+04  0.7818608E-02  0.8897306E-01
          2   -1    0    0  501    0  0.00000000000E+00  0.00000000000E+00  0.10680884695E+04  0.10680884695E+04  0.00000000000E+00 0.  1.
         -2   -1    0    0    0  501 -0.00000000000E+00 -0.00000000000E+00 -0.51326285294E+03  0.51326285294E+03  0.00000000000E+00 0. -1.
         23    2    1    2    0    0  0.37594295672E+03 -0.25171325382E+03  0.25857511035E+03  0.52916845629E+03  0.92008144139E+02 0.  0.
        254    2    1    2    0    0 -0.37594295672E+03  0.25171325382E+03  0.29625050623E+03  0.10521828662E+04  0.90256952781E+03 0.  0.
         23    2    4    4    0    0 -0.34576682617E+03 -0.27223266918E+03  0.25608081701E+03  0.51708045406E+03  0.90163667194E+02 0.  0.
         23    2    4    4    0    0 -0.30176130553E+02  0.52394592300E+03  0.40169689223E+02  0.53510241210E+03  0.96390136542E+02 0.  0.
          1    1    3    3  502    0  0.16178128668E+03 -0.79157247798E+02  0.59612066064E+02  0.18971729763E+03  0.00000000000E+00 0. -1.
         -1    1    3    3    0  502  0.21416167004E+03 -0.17255600602E+03  0.19896304428E+03  0.33945115867E+03  0.00000000000E+00 0.  1.
         13    1    5    5    0    0 -0.21141188951E+03 -0.14003792963E+03  0.10085715196E+03  0.27290616311E+03  0.00000000000E+00 0. -1.
        -13    1    5    5    0    0 -0.13435493665E+03 -0.13219473955E+03  0.15522366505E+03  0.24417429095E+03  0.00000000000E+00 0.  1.
          1    1    6    6  503    0 -0.23024998130E+02  0.40056347751E+03  0.71637176128E+02  0.40756979164E+03  0.00000000000E+00 0. -1.
         -1    1    6    6    0  503 -0.71511324238E+01  0.12338244549E+03 -0.31467486905E+02  0.12753262047E+03  0.00000000000E+00 0.  1.
<mgrwt>
<rscale>  0 0.14808243E+04</rscale>
<asrwt>0</asrwt>
<pdfrwt beam="1">  1        2 0.16432130E+00 0.14808243E+04</pdfrwt>
<pdfrwt beam="2">  1       -2 0.78963516E-01 0.14808243E+04</pdfrwt>
<totfact> 0.31414201E+01</totfact>
</mgrwt>
</event>
<event>
12    3  0.4773567E-008  0.1172131E+04  0.7818608E-02  0.9137606E-01
          1   -1    0    0  501    0  0.00000000000E+00  0.00000000000E+00  0.85396395715E+03  0.85396395715E+03  0.00000000000E+00 0. -1.
         -1   -1    0    0    0  501 -0.00000000000E+00 -0.00000000000E+00 -0.40220995076E+03  0.40220995076E+03  0.00000000000E+00 0.  1.
         23    2    1    2    0    0  0.10640449687E+03 -0.20196146406E+03  0.22301432214E+03  0.33182520618E+03  0.90896807738E+02 0.  0.
        254    2    1    2    0    0 -0.10640449687E+03  0.20196146406E+03  0.22873968426E+03  0.92434870173E+03  0.86601866568E+03 0.  0.
         23    2    4    4    0    0  0.34947110816E+03  0.70525064394E+02  0.24265354550E+03  0.44047516073E+03  0.89631378026E+02 0.  0.
         23    2    4    4    0    0 -0.45587560503E+03  0.13143639967E+03 -0.13913861249E+02  0.48387354100E+03  0.94031450758E+02 0.  0.
          1    1    3    3  502    0  0.44892026969E+02 -0.16805703072E+03  0.17499375523E+03  0.24674130994E+03  0.00000000000E+00 0. -1.
         -1    1    3    3    0  502  0.61512469902E+02 -0.33904433343E+02  0.48020566907E+02  0.85083896243E+02  0.00000000000E+00 0.  1.
         13    1    5    5    0    0  0.23593607218E+03  0.57655225649E+02  0.11367665787E+03  0.26816475858E+03  0.00000000000E+00 0.  1.
        -13    1    5    5    0    0  0.11353503598E+03  0.12869838745E+02  0.12897688763E+03  0.17231040214E+03  0.00000000000E+00 0. -1.
          1    1    6    6  503    0 -0.36344985925E+03  0.76175409412E+02 -0.38741915902E+02  0.37336232970E+03  0.00000000000E+00 0. -1.
         -1    1    6    6    0  503 -0.92425745772E+02  0.55260990258E+02  0.24828054654E+02  0.11051121130E+03  0.00000000000E+00 0.  1.
<mgrwt>
<rscale>  0 0.11721311E+04</rscale>
<asrwt>0</asrwt>
<pdfrwt beam="1">  1        1 0.13137907E+00 0.11721311E+04</pdfrwt>
<pdfrwt beam="2">  1       -1 0.61878454E-01 0.11721311E+04</pdfrwt>
<totfact> 0.52212346E+01</totfact>
</mgrwt>
</event>
<event>
12    3  0.4773567E-008  0.1577355E+04  0.7818608E-02  0.8834582E-01
         -1   -1    0    0    0  501 -0.00000000000E+00  0.00000000000E+00  0.31463077570E+03  0.31463077570E+03  0.00000000000E+00 0.  1.
          1   -1    0    0  501    0  0.00000000000E+00 -0.00000000000E+00 -0.19769588676E+04  0.19769588676E+04  0.00000000000E+00 0. -1.
         23    2    1    2    0    0 -0.22520864313E+03 -0.30398584103E+03 -0.39778951465E+02  0.39122968093E+03  0.91389133805E+02 0.  0.
        254    2    1    2    0    0  0.22520864313E+03  0.30398584103E+03 -0.16225491404E+04  0.19003599624E+04  0.91409843504E+03 0.  0.
         23    2    4    4    0    0  0.28223788133E+03 -0.26707565462E+03 -0.53723099809E+03  0.66930793542E+03  0.91478632184E+02 0.  0.
         23    2    4    4    0    0 -0.57029238205E+02  0.57106149565E+03 -0.10853181423E+04  0.12310520269E+04  0.90609365567E+02 0.  0.
          4    1    3    3  502    0 -0.59785555827E+02 -0.47067803782E+02 -0.39347377498E+02  0.85661583890E+02  0.00000000000E+00 0. -1.
         -4    1    3    3    0  502 -0.16542308730E+03 -0.25691803725E+03 -0.43157396695E+00  0.30556809704E+03  0.00000000000E+00 0.  1.
         13    1    5    5    0    0  0.90251408270E+02 -0.64296027917E+02 -0.93331246703E+02  0.14487932051E+03  0.00000000000E+00 0.  1.
        -13    1    5    5    0    0  0.19198647306E+03 -0.20277962671E+03 -0.44389975139E+03  0.52442861490E+03  0.00000000000E+00 0. -1.
          3    1    6    6  503    0 -0.25669208061E+02  0.34187893738E+03 -0.55309593022E+03  0.65073437292E+03  0.00000000000E+00 0. -1.
         -3    1    6    6    0  503 -0.31360030144E+02  0.22918255827E+03 -0.53222221212E+03  0.58031765403E+03  0.00000000000E+00 0.  1.
<mgrwt>
<rscale>  0 0.15773549E+04</rscale>
<asrwt>0</asrwt>
<pdfrwt beam="1">  1        1 0.30414752E+00 0.15773549E+04</pdfrwt>
<pdfrwt beam="2">  1       -1 0.48404735E-01 0.15773549E+04</pdfrwt>
<totfact> 0.12683436E+01</totfact>
</mgrwt>
</event>
<event>
12    3  0.4773567E-008  0.1931645E+04  0.7818608E-02  0.8639263E-01
         -1   -1    0    0    0  501 -0.00000000000E+00  0.00000000000E+00  0.13071962316E+04  0.13071962316E+04  0.00000000000E+00 0.  1.
          1   -1    0    0  501    0  0.00000000000E+00 -0.00000000000E+00 -0.71359819838E+03  0.71359819838E+03  0.00000000000E+00 0. -1.
         23    2    1    2    0    0  0.11262689240E+03  0.33979050543E+03  0.92550615023E+03  0.99647507484E+03  0.90876488627E+02 0.  0.
        254    2    1    2    0    0 -0.11262689240E+03 -0.33979050543E+03 -0.33190811697E+03  0.10243193552E+04  0.90051359725E+03 0.  0.
         23    2    4    4    0    0 -0.11599909025E+03 -0.56471063289E+03 -0.46569256280E+03  0.74663863095E+03  0.90806356313E+02 0.  0.
         23    2    4    4    0    0  0.33721978485E+01  0.22492012746E+03  0.13378444584E+03  0.27768072423E+03  0.92778613953E+02 0.  0.
          1    1    3    3  502    0  0.53313727450E+01  0.39032752237E+02  0.19941333818E+03  0.20326745614E+03  0.00000000000E+00 0. -1.
         -1    1    3    3    0  502  0.10729551965E+03  0.30075775319E+03  0.72609281205E+03  0.79320761869E+03  0.00000000000E+00 0.  1.
         13    1    5    5    0    0 -0.11749954288E+03 -0.55104823563E+03 -0.43118131247E+03  0.70949110269E+03  0.00000000000E+00 0.  1.
        -13    1    5    5    0    0  0.15004526339E+01 -0.13662397261E+02 -0.34511250330E+02  0.37147528267E+02  0.00000000000E+00 0. -1.
          3    1    6    6  503    0 -0.36008958350E+02  0.48747833294E+02  0.50441617333E+02  0.78850193985E+02  0.00000000000E+00 0. -1.
         -3    1    6    6    0  503  0.39381156199E+02  0.17617229416E+03  0.83342828502E+02  0.19883053024E+03  0.00000000000E+00 0.  1.
<mgrwt>
<rscale>  0 0.19316448E+04</rscale>
<asrwt>0</asrwt>
<pdfrwt beam="1">  1        1 0.10978434E+00 0.19316448E+04</pdfrwt>
<pdfrwt beam="2">  1       -1 0.20110711E+00 0.19316448E+04</pdfrwt>
<totfact> 0.36498419E+00</totfact>
</mgrwt>
</event>
<event>
12    3  0.4773567E-008  0.1874267E+04  0.7818608E-02  0.8667772E-01
          1   -1    0    0  501    0  0.00000000000E+00  0.00000000000E+00  0.21811286243E+04  0.21811286243E+04  0.00000000000E+00 0. -1.
         -1   -1    0    0    0  501 -0.00000000000E+00 -0.00000000000E+00 -0.40264451272E+03  0.40264451272E+03  0.00000000000E+00 0.  1.
         23    2    1    2    0    0  0.48733438631E+03  0.52698133093E+03  0.57032330893E+03  0.92160371063E+03  0.94236911616E+02 0.  0.
        254    2    1    2    0    0 -0.48733438631E+03 -0.52698133093E+03  0.12081608026E+04  0.16621694264E+04  0.88766578719E+03 0.  0.
         23    2    4    4    0    0 -0.56537755102E+03 -0.71671707016E+03  0.94204922585E+03  0.13146574962E+04  0.86789714569E+02 0.  0.
         23    2    4    4    0    0  0.78043164717E+02  0.18973573923E+03  0.26611157676E+03  0.34751193015E+03  0.88649782923E+02 0.  0.
          2    1    3    3  502    0  0.31797049655E+03  0.36797008199E+03  0.33233912305E+03  0.58903014408E+03  0.00000000000E+00 0. -1.
         -2    1    3    3    0  502  0.16936388976E+03  0.15901124893E+03  0.23798418588E+03  0.33257356655E+03  0.00000000000E+00 0.  1.
         13    1    5    5    0    0 -0.43493831120E+03 -0.59614110227E+03  0.72947723995E+03  0.10376379870E+04  0.00000000000E+00 0.  1.
        -13    1    5    5    0    0 -0.13043923982E+03 -0.12057596789E+03  0.21257198590E+03  0.27701950926E+03  0.00000000000E+00 0. -1.
          1    1    6    6  503    0 -0.22487946451E+01  0.36102665497E+02  0.87534305112E+01  0.37216690867E+02  0.00000000000E+00 0. -1.
         -1    1    6    6    0  503  0.80291959362E+02  0.15363307373E+03  0.25735814625E+03  0.31029523929E+03  0.00000000000E+00 0.  1.
<mgrwt>
<rscale>  0 0.18742673E+04</rscale>
<asrwt>0</asrwt>
<pdfrwt beam="1">  1        1 0.33555824E+00 0.18742673E+04</pdfrwt>
<pdfrwt beam="2">  1       -1 0.61945311E-01 0.18742673E+04</pdfrwt>
<totfact> 0.55631486E+00</totfact>
</mgrwt>
</event>
<event>
12    3  0.4773567E-008  0.1378589E+04  0.7818608E-02  0.8969464E-01
         -1   -1    0    0    0  501 -0.00000000000E+00  0.00000000000E+00  0.58872930200E+03  0.58872930200E+03  0.00000000000E+00 0. -1.
          1   -1    0    0  501    0  0.00000000000E+00 -0.00000000000E+00 -0.80703810182E+03  0.80703810182E+03  0.00000000000E+00 0.  1.
         23    2    1    2    0    0  0.36242539729E+03 -0.37488015865E+02  0.18561228463E+02  0.37622861006E+03  0.91901729530E+02 0.  0.
        254    2    1    2    0    0 -0.36242539729E+03  0.37488015865E+02 -0.23687002829E+03  0.10195387938E+04  0.92227675984E+03 0.  0.
         23    2    4    4    0    0  0.97508062016E+02  0.27180863861E+03  0.17906215280E+03  0.35099411684E+03  0.88010552291E+02 0.  0.
         23    2    4    4    0    0 -0.45993345931E+03 -0.23432062274E+03 -0.41593218108E+03  0.66854467692E+03  0.86645626199E+02 0.  0.
          3    1    3    3  502    0  0.26055396891E+03  0.78468864895E+01  0.36754674296E+02  0.26325054687E+03  0.00000000000E+00 0. -1.
         -3    1    3    3    0  502  0.10187142838E+03 -0.45334902354E+02 -0.18193445833E+02  0.11297806319E+03  0.00000000000E+00 0.  1.
         13    1    5    5    0    0  0.71616802829E+02  0.26574393914E+03  0.16534023363E+03  0.32107039803E+03  0.00000000000E+00 0.  1.
        -13    1    5    5    0    0  0.25891259187E+02  0.60646994724E+01  0.13721919167E+02  0.29923718813E+02  0.00000000000E+00 0. -1.
          2    1    6    6  503    0 -0.39867600285E+02 -0.57914556457E+01 -0.10574061347E+02  0.41650657670E+02  0.00000000000E+00 0. -1.
         -2    1    6    6    0  503 -0.42006585902E+03 -0.22852916710E+03 -0.40535811974E+03  0.62689401925E+03  0.00000000000E+00 0.  1.
<mgrwt>
<rscale>  0 0.13785891E+04</rscale>
<asrwt>0</asrwt>
<pdfrwt beam="1">  1        1 0.12415971E+00 0.13785891E+04</pdfrwt>
<pdfrwt beam="2">  1       -1 0.90573739E-01 0.13785891E+04</pdfrwt>
<totfact> 0.25369918E+01</totfact>
</mgrwt>
</event>
<event>
12    3  0.4773567E-008  0.3064182E+04  0.7818608E-02  0.8225637E-01
         -2   -1    0    0    0  501 -0.00000000000E+00  0.00000000000E+00  0.10408262746E+04  0.10408262746E+04  0.00000000000E+00 0. -1.
          2   -1    0    0  501    0  0.00000000000E+00 -0.00000000000E+00 -0.22552304109E+04  0.22552304109E+04  0.00000000000E+00 0.  1.
         23    2    1    2    0    0  0.12159959161E+04 -0.68335626908E+03 -0.65442436971E+03  0.15437035855E+04  0.95538713185E+02 0.  0.
        254    2    1    2    0    0 -0.12159959161E+04  0.68335626908E+03 -0.55997976657E+03  0.17523531000E+04  0.90085636468E+03 0.  0.
         23    2    4    4    0    0 -0.36746023999E+03  0.32508852633E+03 -0.65336742928E+03  0.82208150055E+03  0.90661005854E+02 0.  0.
         23    2    4    4    0    0 -0.84853567608E+03  0.35826774275E+03  0.93387662713E+02  0.93027159946E+03  0.91188947514E+02 0.  0.
          1    1    3    3  502    0  0.99534809589E+03 -0.57558648932E+03 -0.50135545717E+03  0.12543424306E+04  0.00000000000E+00 0. -1.
         -1    1    3    3    0  502  0.22064782018E+03 -0.10776977976E+03 -0.15306891253E+03  0.28936115490E+03  0.00000000000E+00 0.  1.
         13    1    5    5    0    0 -0.33149632733E+03  0.27380668565E+03 -0.60833772002E+03  0.74493939198E+03  0.00000000000E+00 0. -1.
        -13    1    5    5    0    0 -0.35963912659E+02  0.51281840685E+02 -0.45029709264E+02  0.77142108567E+02  0.00000000000E+00 0.  1.
          4    1    6    6  503    0 -0.83423248698E+03  0.36396630057E+03  0.91560881290E+02  0.91476702240E+03  0.00000000000E+00 0. -1.
         -4    1    6    6    0  503 -0.14303189096E+02 -0.56985578209E+01  0.18267814224E+01  0.15504577063E+02  0.00000000000E+00 0.  1.
<mgrwt>
<rscale>  0 0.30641822E+04</rscale>
<asrwt>0</asrwt>
<pdfrwt beam="1">  1        2 0.34695852E+00 0.30641822E+04</pdfrwt>
<pdfrwt beam="2">  1       -2 0.16012712E+00 0.30641822E+04</pdfrwt>
<totfact> 0.10286318E+00</totfact>
</mgrwt>
</event>
<event>
12    3  0.4773567E-008  0.2975270E+04  0.7818608E-02  0.8250828E-01
         -2   -1    0    0    0  501 -0.00000000000E+00  0.00000000000E+00  0.13307301938E+04  0.13307301938E+04  0.00000000000E+00 0.  1.
          2   -1    0    0  501    0  0.00000000000E+00 -0.00000000000E+00 -0.16630398153E+04  0.16630398153E+04  0.00000000000E+00 0. -1.
         23    2    1    2    0    0 -0.23446989811E+03  0.49598600403E+03  0.10894874562E+04  0.12231966206E+04  0.90822937976E+02 0.  0.
        254    2    1    2    0    0  0.23446989811E+03 -0.49598600403E+03 -0.14217970776E+04  0.17705733885E+04  0.90135727927E+03 0.  0.
         23    2    4    4    0    0  0.27024293992E+03 -0.11374811964E+03 -0.13306662757E+04  0.13654967293E+04  0.89099378623E+02 0.  0.
         23    2    4    4    0    0 -0.35773041814E+02 -0.38223788440E+03 -0.91130801953E+02  0.40507665920E+03  0.91633869164E+02 0.  0.
          2    1    3    3  502    0 -0.10141862068E+03  0.29681703269E+03  0.67875666292E+03  0.74772768771E+03  0.00000000000E+00 0. -1.
         -2    1    3    3    0  502 -0.13305127743E+03  0.19916897135E+03  0.41073079326E+03  0.47546893285E+03  0.00000000000E+00 0.  1.
         13    1    5    5    0    0  0.19211653237E+03 -0.99265552604E+02 -0.79157033142E+03  0.82057662746E+03  0.00000000000E+00 0. -1.
        -13    1    5    5    0    0  0.78126407555E+02 -0.14482567036E+02 -0.53909594426E+03  0.54492010187E+03  0.00000000000E+00 0.  1.
          2    1    6    6  503    0 -0.51228079964E+02 -0.14654843392E+03 -0.10899317013E+02  0.15562633059E+03  0.00000000000E+00 0. -1.
         -2    1    6    6    0  503  0.15455038150E+02 -0.23568945048E+03 -0.80231484941E+02  0.24945032861E+03  0.00000000000E+00 0.  1.
<mgrwt>
<rscale>  0 0.29752696E+04</rscale>
<asrwt>0</asrwt>
<pdfrwt beam="1">  1        2 0.25585228E+00 0.29752696E+04</pdfrwt>
<pdfrwt beam="2">  1       -2 0.20472772E+00 0.29752696E+04</pdfrwt>
<totfact> 0.10926490E+00</totfact>
</mgrwt>
</event>
<event>
12    3  0.4773567E-008  0.2022250E+04  0.7818608E-02  0.8596288E-01
          1   -1    0    0  501    0  0.00000000000E+00  0.00000000000E+00  0.16813754496E+04  0.16813754496E+04  0.00000000000E+00 0. -1.
         -1   -1    0    0    0  501 -0.00000000000E+00 -0.00000000000E+00 -0.60805780832E+03  0.60805780832E+03  0.00000000000E+00 0.  1.
         23    2    1    2    0    0 -0.13674568098E+03  0.67462484791E+03 -0.33430351832E+02  0.69562362288E+03  0.94639154715E+02 0.  0.
        254    2    1    2    0    0  0.13674568098E+03 -0.67462484791E+03  0.11067479932E+04  0.15938096351E+04  0.91734397358E+03 0.  0.
         23    2    4    4    0    0  0.22634067245E+03 -0.11015192204E+03  0.95917186752E+03  0.99630916794E+03  0.96217154079E+02 0.  0.
         23    2    4    4    0    0 -0.89594991470E+02 -0.56447292587E+03  0.14757612563E+03  0.59750046714E+03  0.92580499297E+02 0.  0.
          1    1    3    3  502    0 -0.70127826033E+02  0.45538766885E+03  0.16742380925E+02  0.46105980983E+03  0.00000000000E+00 0. -1.
         -1    1    3    3    0  502 -0.66617854948E+02  0.21923717906E+03 -0.50172732757E+02  0.23456381305E+03  0.00000000000E+00 0.  1.
         13    1    5    5    0    0  0.13384374126E+03 -0.10495343547E+03  0.72010915074E+03  0.73992334716E+03  0.00000000000E+00 0. -1.
        -13    1    5    5    0    0  0.92496931186E+02 -0.51984865737E+01  0.23906271678E+03  0.25638582078E+03  0.00000000000E+00 0.  1.
          1    1    6    6  503    0 -0.30101521365E+02 -0.22226395088E+03  0.11926072172E+02  0.22460987656E+03  0.00000000000E+00 0. -1.
         -1    1    6    6    0  503 -0.59493470104E+02 -0.34220897498E+03  0.13565005346E+03  0.37289059058E+03  0.00000000000E+00 0.  1.
<mgrwt>
<rscale>  0 0.20222497E+04</rscale>
<asrwt>0</asrwt>
<pdfrwt beam="1">  1        1 0.25867314E+00 0.20222497E+04</pdfrwt>
<pdfrwt beam="2">  1       -1 0.93547356E-01 0.20222497E+04</pdfrwt>
<totfact> 0.50360949E+00</totfact>
</mgrwt>
</event>
<event>
12    3  0.4773567E-008  0.1478175E+04  0.7818608E-02  0.8899097E-01
         -2   -1    0    0    0  501 -0.00000000000E+00  0.00000000000E+00  0.18282808941E+03  0.18282808941E+03  0.00000000000E+00 0.  1.
          2   -1    0    0  501    0  0.00000000000E+00 -0.00000000000E+00 -0.29877829748E+04  0.29877829748E+04  0.00000000000E+00 0. -1.
         23    2    1    2    0    0  0.20932714125E+03 -0.23638975328E+03 -0.16463330349E+04  0.16788934832E+04  0.92589948485E+02 0.  0.
        254    2    1    2    0    0 -0.20932714125E+03  0.23638975328E+03 -0.11586218505E+04  0.14917175810E+04  0.88493998755E+03 0.  0.
         23    2    4    4    0    0  0.15919704657E+03 -0.24717646346E+03 -0.52769935405E+03  0.61083960601E+03  0.90656010749E+02 0.  0.
         23    2    4    4    0    0 -0.36852418782E+03  0.48356621674E+03 -0.63092249644E+03  0.88087797500E+03  0.90754875103E+02 0.  0.
          1    1    3    3  502    0  0.10647022179E+03 -0.12027912519E+03 -0.10725871261E+04  0.10845488091E+04  0.00000000000E+00 0. -1.
         -1    1    3    3    0  502  0.10285691946E+03 -0.11611062809E+03 -0.57374590878E+03  0.59434467414E+03  0.00000000000E+00 0.  1.
         13    1    5    5    0    0  0.12573683141E+03 -0.20694977477E+03 -0.35004442319E+03  0.42563958728E+03  0.00000000000E+00 0.  1.
        -13    1    5    5    0    0  0.33460215155E+02 -0.40226688690E+02 -0.17765493085E+03  0.18520001873E+03  0.00000000000E+00 0. -1.
          2    1    6    6  503    0 -0.10379256959E+03  0.20879210008E+03 -0.23953131324E+03  0.33427875879E+03  0.00000000000E+00 0. -1.
         -2    1    6    6    0  503 -0.26473161823E+03  0.27477411666E+03 -0.39139118320E+03  0.54659921621E+03  0.00000000000E+00 0.  1.
<mgrwt>
<rscale>  0 0.14781754E+04</rscale>
<asrwt>0</asrwt>
<pdfrwt beam="1">  1        2 0.45965890E+00 0.14781754E+04</pdfrwt>
<pdfrwt beam="2">  1       -2 0.28127400E-01 0.14781754E+04</pdfrwt>
<totfact> 0.19975212E+01</totfact>
</mgrwt>
</event>
<event>
12    3  0.4773567E-008  0.2191327E+04  0.7818608E-02  0.8522047E-01
         -2   -1    0    0    0  501 -0.00000000000E+00  0.00000000000E+00  0.41911031222E+03  0.41911031222E+03  0.00000000000E+00 0.  1.
          2   -1    0    0  501    0  0.00000000000E+00 -0.00000000000E+00 -0.28643487340E+04  0.28643487340E+04  0.00000000000E+00 0. -1.
         23    2    1    2    0    0 -0.68844649130E+03  0.27140524307E+03 -0.18111382259E+04  0.19584377600E+04  0.87392270766E+02 0.  0.
        254    2    1    2    0    0  0.68844649130E+03 -0.27140524307E+03 -0.63410019591E+03  0.13250212863E+04  0.89776331695E+03 0.  0.
         23    2    4    4    0    0  0.88964610813E+03 -0.29008325686E+03 -0.53339869247E+03  0.10806408163E+04  0.87475225010E+02 0.  0.
         23    2    4    4    0    0 -0.20119961683E+03  0.18678013795E+02 -0.10070150343E+03  0.24438047002E+03  0.93546070573E+02 0.  0.
          1    1    3    3  502    0 -0.51869712454E+03  0.17348891406E+03 -0.12637611493E+04  0.13770393433E+04  0.00000000000E+00 0. -1.
         -1    1    3    3    0  502 -0.16974936676E+03  0.97916329010E+02 -0.54737707655E+03  0.58139841670E+03  0.00000000000E+00 0.  1.
         13    1    5    5    0    0  0.20262845076E+03 -0.67610421346E+02 -0.16527548995E+03  0.27008414561E+03  0.00000000000E+00 0. -1.
        -13    1    5    5    0    0  0.68701765738E+03 -0.22247283552E+03 -0.36812320252E+03  0.81055667065E+03  0.00000000000E+00 0.  1.
          1    1    6    6  503    0 -0.13245847942E+03  0.54394784292E+02 -0.49430536691E+02  0.15148405621E+03  0.00000000000E+00 0. -1.
         -1    1    6    6    0  503 -0.68741137408E+02 -0.35716770497E+02 -0.51270966743E+02  0.92896413804E+02  0.00000000000E+00 0.  1.
<mgrwt>
<rscale>  0 0.21913266E+04</rscale>
<asrwt>0</asrwt>
<pdfrwt beam="1">  1        2 0.44066903E+00 0.21913266E+04</pdfrwt>
<pdfrwt beam="2">  1       -2 0.64478511E-01 0.21913266E+04</pdfrwt>
<totfact> 0.42967615E+00</totfact>
</mgrwt>
</event>
<event>
12    3  0.4773567E-008  0.2725342E+04  0.7818608E-02  0.8326829E-01
         -1   -1    0    0    0  501 -0.00000000000E+00  0.00000000000E+00  0.10775746896E+04  0.10775746896E+04  0.00000000000E+00 0.  1.
          1   -1    0    0  501    0  0.00000000000E+00 -0.00000000000E+00 -0.17231962916E+04  0.17231962916E+04  0.00000000000E+00 0. -1.
         23    2    1    2    0    0  0.10237759043E+04 -0.12170138303E+03  0.36734210372E+03  0.10975592505E+04  0.82266385924E+02 0.  0.
        254    2    1    2    0    0 -0.10237759043E+04  0.12170138303E+03 -0.10129637057E+04  0.17032117307E+04  0.90105848949E+03 0.  0.
         23    2    4    4    0    0 -0.15507439796E+03 -0.33193205609E+03 -0.22031010534E+03  0.43942170983E+03  0.10162646204E+03 0.  0.
         23    2    4    4    0    0 -0.86870150637E+03  0.45363343912E+03 -0.79265360037E+03  0.12637900208E+04  0.91868832207E+02 0.  0.
          4    1    3    3  502    0  0.70623234862E+03 -0.45649420917E+02  0.25532119083E+03  0.75235424526E+03  0.00000000000E+00 0.  1.
         -4    1    3    3    0  502  0.31754355570E+03 -0.76051962113E+02  0.11202091289E+03  0.34520500523E+03  0.00000000000E+00 0. -1.
         13    1    5    5    0    0 -0.14323618453E+03 -0.26372529463E+03 -0.13370578817E+03  0.32854965131E+03  0.00000000000E+00 0.  1.
        -13    1    5    5    0    0 -0.11838213430E+02 -0.68206761464E+02 -0.86604317175E+02  0.11087205852E+03  0.00000000000E+00 0. -1.
          3    1    6    6  503    0 -0.21434996695E-01 -0.62805977241E+00 -0.83282277089E+01  0.83519036936E+01  0.00000000000E+00 0. -1.
         -3    1    6    6    0  503 -0.86868007138E+03  0.45426149890E+03 -0.78432537266E+03  0.12554381171E+04  0.00000000000E+00 0.  1.
<mgrwt>
<rscale>  0 0.27253423E+04</rscale>
<asrwt>0</asrwt>
<pdfrwt beam="1">  1        1 0.26510712E+00 0.27253423E+04</pdfrwt>
<pdfrwt beam="2">  1       -1 0.16578072E+00 0.27253423E+04</pdfrwt>
<totfact> 0.10586941E+00</totfact>
</mgrwt>
</event>
<event>
12    3  0.4773567E-008  0.2186604E+04  0.7818608E-02  0.8524024E-01
          2   -1    0    0  501    0  0.00000000000E+00  0.00000000000E+00  0.24165421932E+04  0.24165421932E+04  0.00000000000E+00 0. -1.
         -2   -1    0    0    0  501 -0.00000000000E+00 -0.00000000000E+00 -0.49463641000E+03  0.49463641000E+03  0.00000000000E+00 0.  1.
         23    2    1    2    0    0  0.29054662937E+02  0.88915423211E+03  0.60917013716E+03  0.10820431123E+04  0.91047344196E+02 0.  0.
        254    2    1    2    0    0 -0.29054662937E+02 -0.88915423211E+03  0.13127356460E+04  0.18291354909E+04  0.91160427044E+03 0.  0.
         23    2    4    4    0    0  0.16521845798E+03 -0.94431375329E+03  0.12850191280E+04  0.16060610785E+04  0.95563723116E+02 0.  0.
         23    2    4    4    0    0 -0.19427312092E+03  0.55159521180E+02  0.27716518064E+02  0.22307441241E+03  0.90605572731E+02 0.  0.
          2    1    3    3  502    0  0.35017741388E+02  0.88672846140E+03  0.60165909038E+03  0.10721507672E+04  0.00000000000E+00 0. -1.
         -2    1    3    3    0  502 -0.59630784510E+01  0.24257707079E+01  0.75110467830E+01  0.98923451171E+01  0.00000000000E+00 0.  1.
         13    1    5    5    0    0  0.74753782292E+02 -0.35770939298E+03  0.41632096048E+03  0.55395602707E+03  0.00000000000E+00 0.  1.
        -13    1    5    5    0    0  0.90464675689E+02 -0.58660436030E+03  0.86869816749E+03  0.10521050514E+04  0.00000000000E+00 0. -1.
          4    1    6    6  503    0 -0.61399744638E+02 -0.22905165046E+02 -0.43050167328E+01  0.65674259771E+02  0.00000000000E+00 0. -1.
         -4    1    6    6    0  503 -0.13287337628E+03  0.78064686226E+02  0.32021534797E+02  0.15740015264E+03  0.00000000000E+00 0.  1.
<mgrwt>
<rscale>  0 0.21866044E+04</rscale>
<asrwt>0</asrwt>
<pdfrwt beam="1">  1        2 0.37177571E+00 0.21866044E+04</pdfrwt>
<pdfrwt beam="2">  1       -2 0.76097911E-01 0.21866044E+04</pdfrwt>
<totfact> 0.55026585E+00</totfact>
</mgrwt>
</event>
<event>
12    3  0.4773567E-008  0.1901794E+04  0.7818608E-02  0.8653964E-01
         -2   -1    0    0    0  501 -0.00000000000E+00  0.00000000000E+00  0.25918664953E+03  0.25918664953E+03  0.00000000000E+00 0.  1.
          2   -1    0    0  501    0  0.00000000000E+00 -0.00000000000E+00 -0.34886270811E+04  0.34886270811E+04  0.00000000000E+00 0. -1.
         23    2    1    2    0    0  0.44750952359E+03  0.21558212233E+02 -0.24367737703E+04  0.24792750746E+04  0.90603299405E+02 0.  0.
        254    2    1    2    0    0 -0.44750952359E+03 -0.21558212233E+02 -0.79266666123E+03  0.12685386560E+04  0.88325554378E+03 0.  0.
         23    2    4    4    0    0 -0.59356448326E+03 -0.97793876567E+02 -0.19056458790E+03  0.63769752992E+03  0.91982821331E+02 0.  0.
         23    2    4    4    0    0  0.14605495967E+03  0.76235664334E+02 -0.60210207332E+03  0.63084112604E+03  0.91047744851E+02 0.  0.
          1    1    3    3  502    0  0.43356385460E+03  0.28341881981E+02 -0.24048381639E+04  0.24437732040E+04  0.00000000000E+00 0. -1.
         -1    1    3    3    0  502  0.13945668987E+02 -0.67836697480E+01 -0.31935606405E+02  0.35501870587E+02  0.00000000000E+00 0.  1.
         13    1    5    5    0    0 -0.54601554176E+03 -0.79784618074E+02 -0.14781425393E+03  0.57126842272E+03  0.00000000000E+00 0.  1.
        -13    1    5    5    0    0 -0.47548941495E+02 -0.18009258493E+02 -0.42750333971E+02  0.66429107200E+02  0.00000000000E+00 0. -1.
          2    1    6    6  503    0  0.58369262883E+02  0.36075018589E+02 -0.11206723346E+03  0.13140564155E+03  0.00000000000E+00 0. -1.
         -2    1    6    6    0  503  0.87685696783E+02  0.40160645745E+02 -0.49003483986E+03  0.49943548449E+03  0.00000000000E+00 0.  1.
<mgrwt>
<rscale>  0 0.19017945E+04</rscale>
<asrwt>0</asrwt>
<pdfrwt beam="1">  1        2 0.53671184E+00 0.19017945E+04</pdfrwt>
<pdfrwt beam="2">  1       -2 0.39874871E-01 0.19017945E+04</pdfrwt>
<totfact> 0.46451041E+00</totfact>
</mgrwt>
</event>
<event>
12    3  0.4773567E-008  0.1559592E+04  0.7818608E-02  0.8845764E-01
          2   -1    0    0  501    0  0.00000000000E+00  0.00000000000E+00  0.66394886615E+03  0.66394886615E+03  0.00000000000E+00 0. -1.
         -2   -1    0    0    0  501 -0.00000000000E+00 -0.00000000000E+00 -0.91585621882E+03  0.91585621882E+03  0.00000000000E+00 0.  1.
         23    2    1    2    0    0 -0.64842568829E+02  0.28580452723E+03  0.36590909187E+03  0.47889754195E+03  0.97798801919E+02 0.  0.
        254    2    1    2    0    0  0.64842568829E+02 -0.28580452723E+03 -0.61781644453E+03  0.11009075430E+04  0.86279283296E+03 0.  0.
         23    2    4    4    0    0 -0.11704487864E+03 -0.55058861714E+03 -0.32365229467E+03  0.65551122198E+03  0.89982361339E+02 0.  0.
         23    2    4    4    0    0  0.18188744747E+03  0.26478408991E+03 -0.29416414987E+03  0.44539632104E+03  0.93014396259E+02 0.  0.
          3    1    3    3  502    0 -0.89468318361E+02  0.18990800488E+03  0.25115845729E+03  0.32733805305E+03  0.00000000000E+00 0. -1.
         -3    1    3    3    0  502  0.24625749532E+02  0.95896522358E+02  0.11475063458E+03  0.15155948890E+03  0.00000000000E+00 0.  1.
         13    1    5    5    0    0 -0.35571021692E+02 -0.28214663392E+03 -0.20675888540E+03  0.35159814748E+03  0.00000000000E+00 0. -1.
        -13    1    5    5    0    0 -0.81473856945E+02 -0.26844198323E+03 -0.11689340926E+03  0.30391307450E+03  0.00000000000E+00 0.  1.
          3    1    6    6  503    0  0.94858646801E+02  0.19658367999E+03 -0.15526724718E+03  0.26786418976E+03  0.00000000000E+00 0. -1.
         -3    1    6    6    0  503  0.87028800666E+02  0.68200409925E+02 -0.13889690269E+03  0.17753213128E+03  0.00000000000E+00 0.  1.
<mgrwt>
<rscale>  0 0.15595919E+04</rscale>
<asrwt>0</asrwt>
<pdfrwt beam="1">  1        2 0.10214598E+00 0.15595919E+04</pdfrwt>
<pdfrwt beam="2">  1       -2 0.14090096E+00 0.15595919E+04</pdfrwt>
<totfact> 0.14870294E+01</totfact>
</mgrwt>
</event>
<event>
12    3  0.4773567E-008  0.1541652E+04  0.7818608E-02  0.8857217E-01
         -2   -1    0    0    0  501 -0.00000000000E+00  0.00000000000E+00  0.20363068094E+03  0.20363068094E+03  0.00000000000E+00 0.  1.
          2   -1    0    0  501    0  0.00000000000E+00 -0.00000000000E+00 -0.29178956702E+04  0.29178956702E+04  0.00000000000E+00 0. -1.
         23    2    1    2    0    0  0.96858435801E+02  0.22695008757E+03 -0.12645422728E+02  0.26361962231E+03  0.91910280804E+02 0.  0.
        254    2    1    2    0    0 -0.96858435801E+02 -0.22695008757E+03 -0.27016195666E+04  0.28579067289E+04  0.89888524830E+03 0.  0.
         23    2    4    4    0    0 -0.31192215738E+02 -0.25384626205E+03 -0.16129938836E+03  0.31501331657E+03  0.88346012114E+02 0.  0.
         23    2    4    4    0    0 -0.65666220063E+02  0.26896174479E+02 -0.25403201782E+04  0.25428934123E+04  0.89693042195E+02 0.  0.
          1    1    3    3  502    0  0.13926973229E+02  0.27257242884E+02 -0.34697698203E+02  0.46269300119E+02  0.00000000000E+00 0. -1.
         -1    1    3    3    0  502  0.82931462572E+02  0.19969284468E+03  0.22052275475E+02  0.21735032219E+03  0.00000000000E+00 0.  1.
         13    1    5    5    0    0 -0.23050961040E+02 -0.79747614949E+01 -0.11285265064E+02  0.26875655031E+02  0.00000000000E+00 0. -1.
        -13    1    5    5    0    0 -0.81412546975E+01 -0.24587150055E+03 -0.15001412330E+03  0.28813766154E+03  0.00000000000E+00 0.  1.
          3    1    6    6  503    0  0.97813857939E+01  0.27958266495E+02 -0.34251305120E+03  0.34379140538E+03  0.00000000000E+00 0. -1.
         -3    1    6    6    0  503 -0.75447605856E+02 -0.10620920156E+01 -0.21978071270E+04  0.21991020069E+04  0.00000000000E+00 0.  1.
<mgrwt>
<rscale>  0 0.15416525E+04</rscale>
<asrwt>0</asrwt>
<pdfrwt beam="1">  1        2 0.44890704E+00 0.15416525E+04</pdfrwt>
<pdfrwt beam="2">  1       -2 0.31327796E-01 0.15416525E+04</pdfrwt>
<totfact> 0.17941778E+01</totfact>
</mgrwt>
</event>
<event>
12    3  0.4773567E-008  0.1553892E+04  0.7818608E-02  0.8849385E-01
         -2   -1    0    0    0  501 -0.00000000000E+00  0.00000000000E+00  0.11108757216E+04  0.11108757216E+04  0.00000000000E+00 0.  1.
          2   -1    0    0  501    0  0.00000000000E+00 -0.00000000000E+00 -0.54339590621E+03  0.54339590621E+03  0.00000000000E+00 0. -1.
         23    2    1    2    0    0  0.46271122624E+03 -0.17801046000E+03  0.29089102338E+03  0.58199882042E+03  0.91190113136E+02 0.  0.
        254    2    1    2    0    0 -0.46271122624E+03  0.17801046000E+03  0.27658879204E+03  0.10722728074E+04  0.90965829347E+03 0.  0.
         23    2    4    4    0    0  0.23574931107E+03 -0.10889942549E+03  0.64140304909E+02  0.28235845304E+03  0.90418442532E+02 0.  0.
         23    2    4    4    0    0 -0.69846053731E+03  0.28690988548E+03  0.21244848713E+03  0.78991435437E+03  0.93090939357E+02 0.  0.
          3    1    3    3  502    0  0.32630518084E+03 -0.13163929403E+03  0.15692269634E+03  0.38526446424E+03  0.00000000000E+00 0. -1.
         -3    1    3    3    0  502  0.13640604540E+03 -0.46371165968E+02  0.13396832704E+03  0.19673435619E+03  0.00000000000E+00 0.  1.
         13    1    5    5    0    0  0.79764304413E+02 -0.47892370437E+02 -0.19631221861E+02  0.95086320133E+02  0.00000000000E+00 0. -1.
        -13    1    5    5    0    0  0.15598500666E+03 -0.61007055051E+02  0.83771526771E+02  0.18727213291E+03  0.00000000000E+00 0.  1.
          4    1    6    6  503    0 -0.60882398522E+02  0.81621093322E+00  0.57320551127E+01  0.61157085493E+02  0.00000000000E+00 0. -1.
         -4    1    6    6    0  503 -0.63757813879E+03  0.28609367455E+03  0.20671643202E+03  0.72875726888E+03  0.00000000000E+00 0.  1.
<mgrwt>
<rscale>  0 0.15538923E+04</rscale>
<asrwt>0</asrwt>
<pdfrwt beam="1">  1        2 0.83599371E-01 0.15538923E+04</pdfrwt>
<pdfrwt beam="2">  1       -2 0.17090396E+00 0.15538923E+04</pdfrwt>
<totfact> 0.11274277E+01</totfact>
</mgrwt>
</event>
<event>
12    3  0.4773567E-008  0.2014567E+04  0.7818608E-02  0.8599840E-01
          2   -1    0    0  501    0  0.00000000000E+00  0.00000000000E+00  0.13098710515E+04  0.13098710515E+04  0.00000000000E+00 0. -1.
         -2   -1    0    0    0  501 -0.00000000000E+00 -0.00000000000E+00 -0.77459541458E+03  0.77459541458E+03  0.00000000000E+00 0.  1.
         23    2    1    2    0    0  0.50198951595E+03 -0.55838901844E+03 -0.75924459117E+02  0.76051652504E+03  0.93963244559E+02 0.  0.
        254    2    1    2    0    0 -0.50198951595E+03  0.55838901844E+03  0.61120009609E+03  0.13239499411E+04  0.90304270054E+03 0.  0.
         23    2    4    4    0    0  0.14663422841E+03  0.16308025137E+03 -0.11933212135E+03  0.26611373342E+03  0.92084735992E+02 0.  0.
         23    2    4    4    0    0 -0.64862374435E+03  0.39530876708E+03  0.73053221743E+03  0.10578362077E+04  0.91423949077E+02 0.  0.
          2    1    3    3  502    0  0.15896059453E+03 -0.20703899551E+03  0.13637795976E+02  0.26138019388E+03  0.00000000000E+00 0. -1.
         -2    1    3    3    0  502  0.34302892142E+03 -0.35135002294E+03 -0.89562255093E+02  0.49913633116E+03  0.00000000000E+00 0.  1.
         13    1    5    5    0    0  0.12892695398E+03  0.94196950547E+02 -0.11108911651E+03  0.19451482401E+03  0.00000000000E+00 0.  1.
        -13    1    5    5    0    0  0.17707274429E+02  0.68883300821E+02 -0.82430048439E+01  0.71598909409E+02  0.00000000000E+00 0. -1.
          2    1    6    6  503    0 -0.42169283833E+02  0.54611946134E+02  0.55593440483E+02  0.88607808822E+02  0.00000000000E+00 0. -1.
         -2    1    6    6    0  503 -0.60645446052E+03  0.34069682094E+03  0.67493877695E+03  0.96922839884E+03  0.00000000000E+00 0.  1.
<mgrwt>
<rscale>  0 0.20145671E+04</rscale>
<asrwt>0</asrwt>
<pdfrwt beam="1">  1        2 0.20151862E+00 0.20145671E+04</pdfrwt>
<pdfrwt beam="2">  1       -2 0.11916853E+00 0.20145671E+04</pdfrwt>
<totfact> 0.81802149E+00</totfact>
</mgrwt>
</event>
<event>
12    3  0.4773567E-008  0.2205510E+04  0.7818608E-02  0.8516138E-01
          1   -1    0    0  501    0  0.00000000000E+00  0.00000000000E+00  0.14580038496E+04  0.14580038496E+04  0.00000000000E+00 0. -1.
         -1   -1    0    0    0  501 -0.00000000000E+00 -0.00000000000E+00 -0.83406401648E+03  0.83406401648E+03  0.00000000000E+00 0.  1.
         23    2    1    2    0    0 -0.36889080510E+03  0.61603435185E+03 -0.33159140955E+03  0.79609969910E+03  0.90791625614E+02 0.  0.
        254    2    1    2    0    0  0.36889080510E+03 -0.61603435185E+03  0.95553124269E+03  0.14959681670E+04  0.89961216764E+03 0.  0.
         23    2    4    4    0    0  0.19866906793E+03  0.72126894725E+02 -0.74587223331E+02  0.24204944311E+03  0.91394701875E+02 0.  0.
         23    2    4    4    0    0  0.17022173717E+03 -0.68816124657E+03  0.10301184660E+04  0.12539187239E+04  0.92880412233E+02 0.  0.
          3    1    3    3  502    0 -0.52034904187E+02  0.14580716350E+03 -0.95446953655E+02  0.18187215604E+03  0.00000000000E+00 0. -1.
         -3    1    3    3    0  502 -0.31685590091E+03  0.47022718835E+03 -0.23614445589E+03  0.61422754306E+03  0.00000000000E+00 0.  1.
         13    1    5    5    0    0  0.12084619600E+03 -0.46369670457E+01 -0.40915963009E+02  0.12766918415E+03  0.00000000000E+00 0.  1.
        -13    1    5    5    0    0  0.77822871929E+02  0.76763861771E+02 -0.33671260322E+02  0.11438025897E+03  0.00000000000E+00 0. -1.
          2    1    6    6  503    0  0.11202612377E+03 -0.49647519487E+03  0.66450315023E+03  0.83701965819E+03  0.00000000000E+00 0. -1.
         -2    1    6    6    0  503  0.58195613396E+02 -0.19168605171E+03  0.36561531579E+03  0.41689906570E+03  0.00000000000E+00 0.  1.
<mgrwt>
<rscale>  0 0.22055100E+04</rscale>
<asrwt>0</asrwt>
<pdfrwt beam="1">  1        1 0.22430829E+00 0.22055100E+04</pdfrwt>
<pdfrwt beam="2">  1       -1 0.12831754E+00 0.22055100E+04</pdfrwt>
<totfact> 0.33417556E+00</totfact>
</mgrwt>
</event>
<event>
12    3  0.4773567E-008  0.1371557E+04  0.7818608E-02  0.8974668E-01
          1   -1    0    0  501    0  0.00000000000E+00  0.00000000000E+00  0.58514163773E+03  0.58514163773E+03  0.00000000000E+00 0. -1.
         -1   -1    0    0    0  501 -0.00000000000E+00 -0.00000000000E+00 -0.80372405557E+03  0.80372405557E+03  0.00000000000E+00 0.  1.
         23    2    1    2    0    0 -0.23906692364E+02  0.19141240686E+03  0.26727946513E+03  0.34197980176E+03  0.91113297004E+02 0.  0.
        254    2    1    2    0    0  0.23906692364E+02 -0.19141240686E+03 -0.48586188298E+03  0.10468858915E+04  0.90702704543E+03 0.  0.
         23    2    4    4    0    0 -0.18770477591E+03 -0.39156827302E+03 -0.57659918263E+03  0.72752248575E+03  0.90904095239E+02 0.  0.
         23    2    4    4    0    0  0.21161146828E+03  0.20015586616E+03  0.90737299651E+02  0.31936340579E+03  0.94434861909E+02 0.  0.
          3    1    3    3  502    0  0.60423062658E+01  0.13968928474E+03  0.23653031414E+03  0.27476570973E+03  0.00000000000E+00 0. -1.
         -3    1    3    3    0  502 -0.29948998630E+02  0.51723122119E+02  0.30749150992E+02  0.67214092030E+02  0.00000000000E+00 0.  1.
         13    1    5    5    0    0 -0.34785518636E+02 -0.39906618751E+02 -0.12065430486E+03  0.13175747344E+03  0.00000000000E+00 0. -1.
        -13    1    5    5    0    0 -0.15291925728E+03 -0.35166165427E+03 -0.45594487777E+03  0.59576501231E+03  0.00000000000E+00 0.  1.
          4    1    6    6  503    0  0.73030832932E+02  0.14687178350E+02  0.26885052187E+02  0.79196097112E+02  0.00000000000E+00 0. -1.
         -4    1    6    6    0  503  0.13858063535E+03  0.18546868781E+03  0.63852247464E+02  0.24016730868E+03  0.00000000000E+00 0.  1.
<mgrwt>
<rscale>  0 0.13715574E+04</rscale>
<asrwt>0</asrwt>
<pdfrwt beam="1">  1        1 0.90021791E-01 0.13715574E+04</pdfrwt>
<pdfrwt beam="2">  1       -1 0.12364985E+00 0.13715574E+04</pdfrwt>
<totfact> 0.19958370E+01</totfact>
</mgrwt>
</event>
<event>
12    3  0.4773567E-008  0.2300951E+04  0.7818608E-02  0.8477546E-01
          1   -1    0    0  501    0  0.00000000000E+00  0.00000000000E+00  0.68229147339E+03  0.68229147339E+03  0.00000000000E+00 0. -1.
         -1   -1    0    0    0  501 -0.00000000000E+00 -0.00000000000E+00 -0.19399245771E+04  0.19399245771E+04  0.00000000000E+00 0.  1.
         23    2    1    2    0    0  0.40011971561E+03  0.70556012064E+03  0.71331454846E+02  0.82020848329E+03  0.98706174845E+02 0.  0.
        254    2    1    2    0    0 -0.40011971561E+03 -0.70556012064E+03 -0.13289645586E+04  0.18020075672E+04  0.90728915108E+03 0.  0.
         23    2    4    4    0    0  0.36430769044E+00  0.18577971210E+03 -0.10380272922E+03  0.23167264709E+03  0.91558585995E+02 0.  0.
         23    2    4    4    0    0 -0.40048402330E+03 -0.89133983273E+03 -0.12251618293E+04  0.15703349201E+04  0.10028012211E+03 0.  0.
          1    1    3    3  502    0  0.28328819347E+03  0.53739045280E+03  0.14342805418E+02  0.60765649456E+03  0.00000000000E+00 0. -1.
         -1    1    3    3    0  502  0.11683152215E+03  0.16816966784E+03  0.56988649428E+02  0.21255198873E+03  0.00000000000E+00 0.  1.
         13    1    5    5    0    0 -0.87451191088E+01 -0.36898147133E+00  0.10010389029E+02  0.13297411179E+02  0.00000000000E+00 0.  1.
        -13    1    5    5    0    0  0.91094267993E+01  0.18614869357E+03 -0.11381311825E+03  0.21837523591E+03  0.00000000000E+00 0. -1.
          1    1    6    6  503    0 -0.22553041695E+03 -0.54389443628E+03 -0.66309392660E+03  0.88677995144E+03  0.00000000000E+00 0. -1.
         -1    1    6    6    0  503 -0.17495360635E+03 -0.34744539645E+03 -0.56206790275E+03  0.68355496867E+03  0.00000000000E+00 0.  1.
<mgrwt>
<rscale>  0 0.23009511E+04</rscale>
<asrwt>0</asrwt>
<pdfrwt beam="1">  1        1 0.10496792E+00 0.23009511E+04</pdfrwt>
<pdfrwt beam="2">  1       -1 0.29844993E+00 0.23009511E+04</pdfrwt>
<totfact> 0.86542189E-01</totfact>
</mgrwt>
</event>
<event>
12    3  0.4773567E-008  0.1872841E+04  0.7818608E-02  0.8668494E-01
          2   -1    0    0  501    0  0.00000000000E+00  0.00000000000E+00  0.32059911740E+04  0.32059911740E+04  0.00000000000E+00 0. -1.
         -2   -1    0    0    0  501 -0.00000000000E+00 -0.00000000000E+00 -0.27351404630E+03  0.27351404630E+03  0.00000000000E+00 0.  1.
         23    2    1    2    0    0  0.75118636328E+01 -0.21590880433E+03 -0.13741383900E+03  0.27159472212E+03  0.90598510207E+02 0.  0.
        254    2    1    2    0    0 -0.75118636328E+01  0.21590880433E+03  0.30698909667E+04  0.32079104982E+04  0.90542044214E+03 0.  0.
         23    2    4    4    0    0  0.18431754628E+03 -0.38260076385E+02  0.27119692742E+04  0.27200094568E+04  0.90759625842E+02 0.  0.
         23    2    4    4    0    0 -0.19182940991E+03  0.25416888072E+03  0.35792169252E+03  0.48790104138E+03  0.92407498475E+02 0.  0.
          3    1    3    3  502    0 -0.39099990625E+02 -0.98312458367E+02 -0.45194162492E+02  0.11505068909E+03  0.00000000000E+00 0. -1.
         -3    1    3    3    0  502  0.46611854258E+02 -0.11759634596E+03 -0.92219676510E+02  0.15654403303E+03  0.00000000000E+00 0.  1.
         13    1    5    5    0    0  0.17364981850E+03 -0.55950619919E+02  0.21732986629E+04  0.21809428717E+04  0.00000000000E+00 0. -1.
        -13    1    5    5    0    0  0.10667727776E+02  0.17690543533E+02  0.53867061123E+03  0.53906658508E+03  0.00000000000E+00 0.  1.
          3    1    6    6  503    0 -0.19079152783E+03  0.22137925090E+03  0.34620558535E+03  0.45306565434E+03  0.00000000000E+00 0. -1.
         -3    1    6    6    0  503 -0.10378820837E+01  0.32789629817E+02  0.11716107167E+02  0.34835387036E+02  0.00000000000E+00 0.  1.
<mgrwt>
<rscale>  0 0.18728413E+04</rscale>
<asrwt>0</asrwt>
<pdfrwt beam="1">  1        2 0.49322939E+00 0.18728413E+04</pdfrwt>
<pdfrwt beam="2">  1       -2 0.42079086E-01 0.18728413E+04</pdfrwt>
<totfact> 0.64865411E+00</totfact>
</mgrwt>
</event>
<event>
12    3  0.4773567E-008  0.1415055E+04  0.7818608E-02  0.8942992E-01
         -2   -1    0    0    0  501 -0.00000000000E+00  0.00000000000E+00  0.33053385679E+03  0.33053385679E+03  0.00000000000E+00 0.  1.
          2   -1    0    0  501    0  0.00000000000E+00 -0.00000000000E+00 -0.15145051092E+04  0.15145051092E+04  0.00000000000E+00 0. -1.
         23    2    1    2    0    0 -0.48752843414E+02 -0.14276127009E+03 -0.85834286067E+03  0.87634822225E+03  0.92065847070E+02 0.  0.
        254    2    1    2    0    0  0.48752843414E+02  0.14276127009E+03 -0.32562839177E+03  0.96869074378E+03  0.89976123921E+03 0.  0.
         23    2    4    4    0    0  0.16762243001E+03  0.25052305815E+03 -0.57629906113E+03  0.65699249730E+03  0.93056176262E+02 0.  0.
         23    2    4    4    0    0 -0.11886958659E+03 -0.10776178806E+03  0.25067066936E+03  0.31169824648E+03  0.92614420037E+02 0.  0.
          2    1    3    3  502    0 -0.21479409454E+02 -0.72220541559E+02 -0.65635726671E+03  0.66066786906E+03  0.00000000000E+00 0. -1.
         -2    1    3    3    0  502 -0.27273433960E+02 -0.70540728531E+02 -0.20198559396E+03  0.21568035319E+03  0.00000000000E+00 0.  1.
         13    1    5    5    0    0  0.31984745480E+02  0.13650383011E+02 -0.28528403907E+02  0.44980292676E+02  0.00000000000E+00 0.  1.
        -13    1    5    5    0    0  0.13563768453E+03  0.23687267514E+03 -0.54777065723E+03  0.61201220463E+03  0.00000000000E+00 0. -1.
          1    1    6    6  503    0 -0.11115909241E+02 -0.69091532426E+02  0.81363781245E+02  0.10731853610E+03  0.00000000000E+00 0. -1.
         -1    1    6    6    0  503 -0.10775367735E+03 -0.38670255634E+02  0.16930688811E+03  0.20437971038E+03  0.00000000000E+00 0.  1.
<mgrwt>
<rscale>  0 0.14150551E+04</rscale>
<asrwt>0</asrwt>
<pdfrwt beam="1">  1        2 0.23300079E+00 0.14150551E+04</pdfrwt>
<pdfrwt beam="2">  1       -2 0.50851363E-01 0.14150551E+04</pdfrwt>
<totfact> 0.44264843E+01</totfact>
</mgrwt>
</event>
<event>
12    3  0.4773567E-008  0.2474739E+04  0.7818608E-02  0.8412040E-01
          2   -1    0    0  501    0  0.00000000000E+00  0.00000000000E+00  0.85837417864E+03  0.85837417864E+03  0.00000000000E+00 0. -1.
         -2   -1    0    0    0  501 -0.00000000000E+00 -0.00000000000E+00 -0.17837017903E+04  0.17837017903E+04  0.00000000000E+00 0.  1.
         23    2    1    2    0    0 -0.35492755180E+03 -0.56515399112E+03  0.49238659278E+03  0.83445164755E+03  0.92154189486E+02 0.  0.
        254    2    1    2    0    0  0.35492755180E+03  0.56515399112E+03 -0.14177142044E+04  0.18076243214E+04  0.90123222374E+03 0.  0.
         23    2    4    4    0    0  0.62696345961E+03  0.35003963204E+03 -0.11558652527E+04  0.13637679005E+04  0.90705458542E+02 0.  0.
         23    2    4    4    0    0 -0.27203590780E+03  0.21511435908E+03 -0.26184895170E+03  0.44385642091E+03  0.90365514758E+02 0.  0.
          3    1    3    3  502    0 -0.16196454948E+03 -0.17545966436E+03  0.17975033108E+03  0.29887922415E+03  0.00000000000E+00 0. -1.
         -3    1    3    3    0  502 -0.19296300232E+03 -0.38969432676E+03  0.31263626170E+03  0.53557242340E+03  0.00000000000E+00 0.  1.
         13    1    5    5    0    0  0.52570718269E+03  0.31122583277E+03 -0.10307696339E+04  0.11982135031E+04  0.00000000000E+00 0. -1.
        -13    1    5    5    0    0  0.10125627692E+03  0.38813799269E+02 -0.12509561884E+03  0.16555439735E+03  0.00000000000E+00 0.  1.
          3    1    6    6  503    0 -0.10502858701E+03  0.83277106320E+02 -0.48500592219E+02  0.14254258301E+03  0.00000000000E+00 0. -1.
         -3    1    6    6    0  503 -0.16700732080E+03  0.13183725276E+03 -0.21334835948E+03  0.30131383790E+03  0.00000000000E+00 0.  1.
<mgrwt>
<rscale>  0 0.24747392E+04</rscale>
<asrwt>0</asrwt>
<pdfrwt beam="1">  1        2 0.13205757E+00 0.24747392E+04</pdfrwt>
<pdfrwt beam="2">  1       -2 0.27441566E+00 0.24747392E+04</pdfrwt>
<totfact> 0.12748001E+00</totfact>
</mgrwt>
</event>
<event>
12    3  0.4773567E-008  0.1167230E+04  0.7818608E-02  0.9142033E-01
          1   -1    0    0  501    0  0.00000000000E+00  0.00000000000E+00  0.16776775800E+04  0.16776775800E+04  0.00000000000E+00 0. -1.
         -1   -1    0    0    0  501 -0.00000000000E+00 -0.00000000000E+00 -0.20302273429E+03  0.20302273429E+03  0.00000000000E+00 0.  1.
         23    2    1    2    0    0  0.13504835983E+03  0.14006272786E+03  0.13011830899E+03  0.25122505502E+03  0.91255831086E+02 0.  0.
        254    2    1    2    0    0 -0.13504835983E+03 -0.14006272786E+03  0.13445365367E+04  0.16294752593E+04  0.89975301875E+03 0.  0.
         23    2    4    4    0    0 -0.50966977186E+03 -0.32012555659E+02  0.71587113891E+03  0.88403088629E+03  0.90835237247E+02 0.  0.
         23    2    4    4    0    0  0.37462141203E+03 -0.10805017220E+03  0.62866539784E+03  0.74544437300E+03  0.91929803280E+02 0.  0.
          1    1    3    3  502    0  0.46666669987E+02  0.90413357537E+02  0.10618977388E+03  0.14706672426E+03  0.00000000000E+00 0. -1.
         -1    1    3    3    0  502  0.88381689847E+02  0.49649370321E+02  0.23928535105E+02  0.10415833076E+03  0.00000000000E+00 0.  1.
         13    1    5    5    0    0 -0.58553530615E+02 -0.17114298240E+02  0.46529306998E+02  0.76722822950E+02  0.00000000000E+00 0.  1.
        -13    1    5    5    0    0 -0.45111624124E+03 -0.14898257419E+02  0.66934183191E+03  0.80730806334E+03  0.00000000000E+00 0. -1.
          3    1    6    6  503    0  0.36809884816E+03 -0.86616767779E+02  0.59546180128E+03  0.70538924238E+03  0.00000000000E+00 0. -1.
         -3    1    6    6    0  503  0.65225638639E+01 -0.21433404421E+02  0.33203596564E+02  0.40055130623E+02  0.00000000000E+00 0.  1.
<mgrwt>
<rscale>  0 0.11672304E+04</rscale>
<asrwt>0</asrwt>
<pdfrwt beam="1">  1        1 0.25810423E+00 0.11672304E+04</pdfrwt>
<pdfrwt beam="2">  1       -1 0.31234268E-01 0.11672304E+04</pdfrwt>
<totfact> 0.46554046E+01</totfact>
</mgrwt>
</event>
<event>
12    3  0.4773567E-008  0.2100251E+04  0.7818608E-02  0.8561133E-01
          1   -1    0    0  501    0  0.00000000000E+00  0.00000000000E+00  0.13856975545E+04  0.13856975545E+04  0.00000000000E+00 0. -1.
         -1   -1    0    0    0  501 -0.00000000000E+00 -0.00000000000E+00 -0.79581811949E+03  0.79581811949E+03  0.00000000000E+00 0.  1.
         23    2    1    2    0    0 -0.24222304279E+03 -0.55134989006E+02  0.10924893569E+04  0.11269701354E+04  0.12172436780E+03 0.  0.
        254    2    1    2    0    0  0.24222304279E+03  0.55134989006E+02 -0.50260992191E+03  0.10545455385E+04  0.89316162580E+03 0.  0.
         23    2    4    4    0    0  0.19939343788E+03  0.45929685059E+03 -0.29976570582E+03  0.59072835315E+03  0.91592405811E+02 0.  0.
         23    2    4    4    0    0  0.42829604911E+02 -0.40416186158E+03 -0.20284421609E+03  0.46381718540E+03  0.93805224043E+02 0.  0.
          1    1    3    3  502    0 -0.22099848674E+03 -0.65572957976E+02  0.10692296792E+04  0.10937971708E+04  0.00000000000E+00 0. -1.
         -1    1    3    3    0  502 -0.21224556047E+02  0.10437968970E+02  0.23259677727E+02  0.33172964649E+02  0.00000000000E+00 0.  1.
         13    1    5    5    0    0  0.19487819216E+03  0.37399926704E+03 -0.22952787001E+03  0.48014165059E+03  0.00000000000E+00 0.  1.
        -13    1    5    5    0    0  0.45152457223E+01  0.85297583548E+02 -0.70237835812E+02  0.11058670256E+03  0.00000000000E+00 0. -1.
          1    1    6    6  503    0  0.70343133199E+02 -0.23489699426E+03 -0.10908898051E+03  0.26837503604E+03  0.00000000000E+00 0. -1.
         -1    1    6    6    0  503 -0.27513528288E+02 -0.16926486732E+03 -0.93755235573E+02  0.19544214935E+03  0.00000000000E+00 0.  1.
<mgrwt>
<rscale>  0 0.21002507E+04</rscale>
<asrwt>0</asrwt>
<pdfrwt beam="1">  1        1 0.21318424E+00 0.21002507E+04</pdfrwt>
<pdfrwt beam="2">  1       -1 0.12243356E+00 0.21002507E+04</pdfrwt>
<totfact> 0.42609035E+00</totfact>
</mgrwt>
</event>
<event>
12    3  0.4773567E-008  0.1856744E+04  0.7818608E-02  0.8676693E-01
          2   -1    0    0  501    0  0.00000000000E+00  0.00000000000E+00  0.19319339514E+04  0.19319339514E+04  0.00000000000E+00 0.  1.
         -2   -1    0    0    0  501 -0.00000000000E+00 -0.00000000000E+00 -0.44611988189E+03  0.44611988189E+03  0.00000000000E+00 0. -1.
         23    2    1    2    0    0 -0.16652079730E+03  0.50126170555E+03 -0.28449941925E+02  0.53691991703E+03  0.92093022099E+02 0.  0.
        254    2    1    2    0    0  0.16652079730E+03 -0.50126170555E+03  0.15142640115E+04  0.18411339163E+04  0.90431528124E+03 0.  0.
         23    2    4    4    0    0 -0.96351420960E+02  0.76023630140E+02  0.10192752297E+04  0.10305433180E+04  0.89634522697E+02 0.  0.
         23    2    4    4    0    0  0.26287221826E+03 -0.57728533569E+03  0.49498878176E+03  0.81059059832E+03  0.98402551144E+02 0.  0.
          4    1    3    3  502    0 -0.16609403038E+03  0.49984071706E+03 -0.37217631650E+02  0.52802757642E+03  0.00000000000E+00 0. -1.
         -4    1    3    3    0  502 -0.42676691676E+00  0.14209884926E+01  0.87676897245E+01  0.88923406031E+01  0.00000000000E+00 0.  1.
         13    1    5    5    0    0 -0.63110884937E+02  0.40546198882E+02  0.28651114429E+03  0.29616821882E+03  0.00000000000E+00 0.  1.
        -13    1    5    5    0    0 -0.33240536023E+02  0.35477431258E+02  0.73276408542E+03  0.73437509915E+03  0.00000000000E+00 0. -1.
          3    1    6    6  503    0  0.18441465341E+03 -0.39013242541E+03  0.39214007338E+03  0.58308310805E+03  0.00000000000E+00 0. -1.
         -3    1    6    6    0  503  0.78457564850E+02 -0.18715291028E+03  0.10284870838E+03  0.22750749026E+03  0.00000000000E+00 0.  1.
<mgrwt>
<rscale>  0 0.18567435E+04</rscale>
<asrwt>0</asrwt>
<pdfrwt beam="1">  1        2 0.29722060E+00 0.18567435E+04</pdfrwt>
<pdfrwt beam="2">  1       -2 0.68633829E-01 0.18567435E+04</pdfrwt>
<totfact> 0.13293559E+01</totfact>
</mgrwt>
</event>
<event>
12    3  0.4773567E-008  0.2727529E+04  0.7818608E-02  0.8326128E-01
          2   -1    0    0  501    0  0.00000000000E+00  0.00000000000E+00  0.19432052402E+04  0.19432052402E+04  0.00000000000E+00 0. -1.
         -2   -1    0    0    0  501 -0.00000000000E+00 -0.00000000000E+00 -0.95710596620E+03  0.95710596620E+03  0.00000000000E+00 0.  1.
         23    2    1    2    0    0  0.15205531072E+03 -0.76041423840E+03  0.14377362220E+04  0.16360486665E+04  0.90659602084E+02 0.  0.
        254    2    1    2    0    0 -0.15205531072E+03  0.76041423840E+03 -0.45163694806E+03  0.12642625399E+04  0.89052411842E+03 0.  0.
         23    2    4    4    0    0 -0.30566477574E+03  0.42340569846E+03  0.15021967424E+03  0.55110759006E+03  0.91925429949E+02 0.  0.
         23    2    4    4    0    0  0.15360946502E+03  0.33700853994E+03 -0.60185662230E+03  0.71315494985E+03  0.95853872908E+02 0.  0.
          2    1    3    3  502    0  0.10048406540E+03 -0.60438026313E+03  0.11951469512E+04  0.13430371495E+04  0.00000000000E+00 0. -1.
         -2    1    3    3    0  502  0.51571245318E+02 -0.15603397526E+03  0.24258927084E+03  0.29301151702E+03  0.00000000000E+00 0.  1.
         13    1    5    5    0    0 -0.19246369707E+03  0.33553396252E+03  0.11483102542E+03  0.40349904472E+03  0.00000000000E+00 0. -1.
        -13    1    5    5    0    0 -0.11320107868E+03  0.87871735940E+02  0.35388648820E+02  0.14760854533E+03  0.00000000000E+00 0.  1.
          4    1    6    6  503    0  0.52732031384E+02  0.22801421031E+03 -0.37203404235E+03  0.43952300953E+03  0.00000000000E+00 0. -1.
         -4    1    6    6    0  503  0.10087743364E+03  0.10899432963E+03 -0.22982257996E+03  0.27363194033E+03  0.00000000000E+00 0.  1.
<mgrwt>
<rscale>  0 0.27275288E+04</rscale>
<asrwt>0</asrwt>
<pdfrwt beam="1">  1        2 0.29895465E+00 0.27275288E+04</pdfrwt>
<pdfrwt beam="2">  1       -2 0.14724707E+00 0.27275288E+04</pdfrwt>
<totfact> 0.19792841E+00</totfact>
</mgrwt>
</event>
<event>
12    3  0.4773567E-008  0.1469787E+04  0.7818608E-02  0.8904796E-01
          2   -1    0    0  501    0  0.00000000000E+00  0.00000000000E+00  0.10843614765E+04  0.10843614765E+04  0.00000000000E+00 0. -1.
         -2   -1    0    0    0  501 -0.00000000000E+00 -0.00000000000E+00 -0.49805225863E+03  0.49805225863E+03  0.00000000000E+00 0.  1.
         23    2    1    2    0    0  0.39669302516E+03 -0.10150093588E+03 -0.31995033514E+02  0.42232087243E+03  0.98302802200E+02 0.  0.
        254    2    1    2    0    0 -0.39669302516E+03  0.10150093588E+03  0.61830425137E+03  0.11600928627E+04  0.89210285651E+03 0.  0.
         23    2    4    4    0    0 -0.28684176682E+03 -0.23983694006E+03  0.68401728920E+03  0.78425513465E+03  0.85886595561E+02 0.  0.
         23    2    4    4    0    0 -0.10985125835E+03  0.34133787594E+03 -0.65713037824E+02  0.37583772804E+03  0.91416355020E+02 0.  0.
          1    1    3    3  502    0  0.47194281356E+02  0.19766938917E+02 -0.41728068683E+01  0.51336579395E+02  0.00000000000E+00 0. -1.
         -1    1    3    3    0  502  0.34949874381E+03 -0.12126787480E+03 -0.27822226646E+02  0.37098429303E+03  0.00000000000E+00 0.  1.
         13    1    5    5    0    0 -0.11203092195E+03 -0.14858294054E+03  0.34896410545E+03  0.39547915821E+03  0.00000000000E+00 0. -1.
        -13    1    5    5    0    0 -0.17481084487E+03 -0.91253999517E+02  0.33505318375E+03  0.38877597644E+03  0.00000000000E+00 0.  1.
          3    1    6    6  503    0 -0.10576018543E+03  0.21956829571E+03 -0.15964281539E+02  0.24423413273E+03  0.00000000000E+00 0. -1.
         -3    1    6    6    0  503 -0.40910729150E+01  0.12176958023E+03 -0.49748756285E+02  0.13160359531E+03  0.00000000000E+00 0.  1.
<mgrwt>
<rscale>  0 0.14697873E+04</rscale>
<asrwt>0</asrwt>
<pdfrwt beam="1">  1        2 0.16682484E+00 0.14697873E+04</pdfrwt>
<pdfrwt beam="2">  1       -2 0.76623424E-01 0.14697873E+04</pdfrwt>
<totfact> 0.32851787E+01</totfact>
</mgrwt>
</event>
<event>
12    3  0.4773567E-008  0.1499912E+04  0.7818608E-02  0.8884511E-01
         -2   -1    0    0    0  501 -0.00000000000E+00  0.00000000000E+00  0.23669066516E+03  0.23669066516E+03  0.00000000000E+00 0.  1.
          2   -1    0    0  501    0  0.00000000000E+00 -0.00000000000E+00 -0.23762413396E+04  0.23762413396E+04  0.00000000000E+00 0. -1.
         23    2    1    2    0    0  0.17424787720E+03  0.81464595040E+02  0.66613704709E+02  0.22265682034E+03  0.90221233842E+02 0.  0.
        254    2    1    2    0    0 -0.17424787720E+03 -0.81464595040E+02 -0.22061643792E+04  0.23902751844E+04  0.89958623069E+03 0.  0.
         23    2    4    4    0    0  0.32935580448E+03 -0.11851132399E+03 -0.56826714496E+03  0.67380561827E+03  0.92554218259E+02 0.  0.
         23    2    4    4    0    0 -0.50360368168E+03  0.37046728949E+02 -0.16378972342E+04  0.17164695662E+04  0.92581279942E+02 0.  0.
          3    1    3    3  502    0  0.66442882534E+02 -0.53396216553E+01  0.49852420733E+02  0.83237203532E+02  0.00000000000E+00 0. -1.
         -3    1    3    3    0  502  0.10780499467E+03  0.86804216695E+02  0.16761283976E+02  0.13941961681E+03  0.00000000000E+00 0.  1.
         13    1    5    5    0    0  0.68672018800E+02 -0.64003712668E+02 -0.11948337981E+03  0.15194933185E+03  0.00000000000E+00 0. -1.
        -13    1    5    5    0    0  0.26068378568E+03 -0.54507611321E+02 -0.44878376516E+03  0.52185628642E+03  0.00000000000E+00 0.  1.
          4    1    6    6  503    0 -0.15388126386E+03  0.52144096518E+02 -0.56638015951E+03  0.58922401110E+03  0.00000000000E+00 0. -1.
         -4    1    6    6    0  503 -0.34972241782E+03 -0.15097367569E+02 -0.10715170747E+04  0.11272455551E+04  0.00000000000E+00 0.  1.
<mgrwt>
<rscale>  0 0.14999122E+04</rscale>
<asrwt>0</asrwt>
<pdfrwt beam="1">  1        2 0.36557558E+00 0.14999122E+04</pdfrwt>
<pdfrwt beam="2">  1       -2 0.36413950E-01 0.14999122E+04</pdfrwt>
<totfact> 0.28193449E+01</totfact>
</mgrwt>
</event>
<event>
12    3  0.4773567E-008  0.2034839E+04  0.7818608E-02  0.8590503E-01
          1   -1    0    0  501    0  0.00000000000E+00  0.00000000000E+00  0.25616347344E+04  0.25616347344E+04  0.00000000000E+00 0. -1.
         -1   -1    0    0    0  501 -0.00000000000E+00 -0.00000000000E+00 -0.40409456238E+03  0.40409456238E+03  0.00000000000E+00 0.  1.
         23    2    1    2    0    0  0.22487262496E+03  0.66105771744E+03  0.14895300856E+04  0.16475260399E+04  0.89873094489E+02 0.  0.
        254    2    1    2    0    0 -0.22487262496E+03 -0.66105771744E+03  0.66801008642E+03  0.13182032568E+04  0.89658092079E+03 0.  0.
         23    2    4    4    0    0  0.27633158068E+03 -0.71348391675E+02  0.14400206396E+02  0.30102356372E+03  0.94647157870E+02 0.  0.
         23    2    4    4    0    0 -0.50120420565E+03 -0.58970932577E+03  0.65360988002E+03  0.10171796931E+04  0.92118989207E+02 0.  0.
          4    1    3    3  502    0 -0.36792095638E+01  0.30880178563E+02  0.10050293742E+03  0.10520438414E+03  0.00000000000E+00 0. -1.
         -4    1    3    3    0  502  0.22855183453E+03  0.63017753888E+03  0.13890271482E+04  0.15423216558E+04  0.00000000000E+00 0.  1.
         13    1    5    5    0    0  0.14716615800E+02  0.12722781924E+01  0.25301255025E+02  0.29297627520E+02  0.00000000000E+00 0. -1.
        -13    1    5    5    0    0  0.26161496488E+03 -0.72620669868E+02 -0.10901048630E+02  0.27172593620E+03  0.00000000000E+00 0.  1.
          1    1    6    6  503    0 -0.20257871099E+02 -0.18159683252E+02  0.49520440139E+02  0.56501587843E+02  0.00000000000E+00 0. -1.
         -1    1    6    6    0  503 -0.48094633455E+03 -0.57154964251E+03  0.60408943988E+03  0.96067810527E+03  0.00000000000E+00 0.  1.
<mgrwt>
<rscale>  0 0.20348392E+04</rscale>
<asrwt>0</asrwt>
<pdfrwt beam="1">  1        1 0.39409764E+00 0.20348392E+04</pdfrwt>
<pdfrwt beam="2">  1       -1 0.62168396E-01 0.20348392E+04</pdfrwt>
<totfact> 0.29804548E+00</totfact>
</mgrwt>
</event>
<event>
12    3  0.4773567E-008  0.1317371E+04  0.7818608E-02  0.9015902E-01
          1   -1    0    0  501    0  0.00000000000E+00  0.00000000000E+00  0.47217591357E+03  0.47217591357E+03  0.00000000000E+00 0. -1.
         -1   -1    0    0    0  501 -0.00000000000E+00 -0.00000000000E+00 -0.91886595696E+03  0.91886595696E+03  0.00000000000E+00 0.  1.
         23    2    1    2    0    0 -0.30530549223E+03  0.15347903746E+03 -0.12974487531E+03  0.37662869533E+03  0.90819507533E+02 0.  0.
        254    2    1    2    0    0  0.30530549223E+03 -0.15347903746E+03 -0.31694516808E+03  0.10144131752E+04  0.90100643280E+03 0.  0.
         23    2    4    4    0    0  0.46174974992E+03 -0.39775227056E+03 -0.34941493906E+03  0.70828187942E+03  0.90292418239E+02 0.  0.
         23    2    4    4    0    0 -0.15644425769E+03  0.24427323309E+03  0.32469770986E+02  0.30613129579E+03  0.92292286039E+02 0.  0.
          4    1    3    3  502    0 -0.30058620954E+03  0.15879005050E+03 -0.13695976329E+03  0.36650283255E+03  0.00000000000E+00 0. -1.
         -4    1    3    3    0  502 -0.47192826855E+01 -0.53110130388E+01  0.72148879736E+01  0.10125862780E+02  0.00000000000E+00 0.  1.
         13    1    5    5    0    0  0.23083392860E+03 -0.16124936168E+03 -0.12085703690E+03  0.30641814992E+03  0.00000000000E+00 0. -1.
        -13    1    5    5    0    0  0.23091582132E+03 -0.23650290888E+03 -0.22855790217E+03  0.40186372950E+03  0.00000000000E+00 0.  1.
          3    1    6    6  503    0 -0.15558775983E+03  0.19844537398E+03  0.40492113531E+01  0.25219935285E+03  0.00000000000E+00 0. -1.
         -3    1    6    6    0  503 -0.85649785844E+00  0.45827859111E+02  0.28420559633E+02  0.53931942939E+02  0.00000000000E+00 0.  1.
<mgrwt>
<rscale>  0 0.13173707E+04</rscale>
<asrwt>0</asrwt>
<pdfrwt beam="1">  1        1 0.72642449E-01 0.13173707E+04</pdfrwt>
<pdfrwt beam="2">  1       -1 0.14136399E+00 0.13173707E+04</pdfrwt>
<totfact> 0.19231416E+01</totfact>
</mgrwt>
</event>
<event>
12    3  0.4773567E-008  0.1844583E+04  0.7818608E-02  0.8682943E-01
         -2   -1    0    0    0  501 -0.00000000000E+00  0.00000000000E+00  0.20922683595E+03  0.20922683595E+03  0.00000000000E+00 0.  1.
          2   -1    0    0  501    0  0.00000000000E+00 -0.00000000000E+00 -0.40655486593E+04  0.40655486593E+04  0.00000000000E+00 0. -1.
         23    2    1    2    0    0 -0.10133746394E+03  0.69191439876E+03 -0.14520126384E+04  0.16161645919E+04  0.12096474365E+03 0.  0.
        254    2    1    2    0    0  0.10133746394E+03 -0.69191439876E+03 -0.24043091850E+04  0.26586109034E+04  0.89358517326E+03 0.  0.
         23    2    4    4    0    0 -0.23715444115E+03  0.33602168033E+02 -0.24764526377E+03  0.35630304779E+03  0.90842449014E+02 0.  0.
         23    2    4    4    0    0  0.33849190509E+03 -0.72551656679E+03 -0.21566639212E+04  0.23023078556E+04  0.92038765943E+02 0.  0.
          4    1    3    3  502    0 -0.94338112190E+02  0.54393978920E+03 -0.10254528168E+04  0.11646130917E+04  0.00000000000E+00 0.  1.
         -4    1    3    3    0  502 -0.69993517509E+01  0.14797460955E+03 -0.42655982154E+03  0.45155150022E+03  0.00000000000E+00 0. -1.
         13    1    5    5    0    0 -0.24318073439E+03  0.23724068826E+02 -0.23283327221E+03  0.33750708684E+03  0.00000000000E+00 0. -1.
        -13    1    5    5    0    0  0.60262932357E+01  0.98780992079E+01 -0.14811991557E+02  0.18795960949E+02  0.00000000000E+00 0.  1.
          3    1    6    6  503    0  0.30007277023E+03 -0.63665676999E+03 -0.19714256598E+04  0.20932975523E+04  0.00000000000E+00 0. -1.
         -3    1    6    6    0  503  0.38419134865E+02 -0.88859796798E+02 -0.18523826137E+03  0.20901030330E+03  0.00000000000E+00 0.  1.
<mgrwt>
<rscale>  0 0.18445833E+04</rscale>
<asrwt>0</asrwt>
<pdfrwt beam="1">  1        2 0.62546902E+00 0.18445833E+04</pdfrwt>
<pdfrwt beam="2">  1       -2 0.32188744E-01 0.18445833E+04</pdfrwt>
<totfact> 0.25923180E+00</totfact>
</mgrwt>
</event>
<event>
12    3  0.4773567E-008  0.1207510E+04  0.7818608E-02  0.9106308E-01
          2   -1    0    0  501    0  0.00000000000E+00  0.00000000000E+00  0.21085825544E+04  0.21085825544E+04  0.00000000000E+00 0.  1.
         -2   -1    0    0    0  501 -0.00000000000E+00 -0.00000000000E+00 -0.17287452275E+03  0.17287452275E+03  0.00000000000E+00 0. -1.
         23    2    1    2    0    0  0.58447765071E+02 -0.64410496404E+02  0.93658165648E+03  0.94497765626E+03  0.90734327971E+02 0.  0.
        254    2    1    2    0    0 -0.58447765071E+02  0.64410496404E+02  0.99912637513E+03  0.13364794208E+04  0.88337923656E+03 0.  0.
         23    2    4    4    0    0 -0.45221011266E+03 -0.47493040192E+02  0.45758856151E+03  0.65104967166E+03  0.87913642210E+02 0.  0.
         23    2    4    4    0    0  0.39376234759E+03  0.11190353660E+03  0.54153781362E+03  0.68542974919E+03  0.94760485532E+02 0.  0.
          4    1    3    3  502    0 -0.11195104357E+02 -0.31848591194E+02  0.11628252670E+03  0.12108381039E+03  0.00000000000E+00 0. -1.
         -4    1    3    3    0  502  0.69642869428E+02 -0.32561905209E+02  0.82029912978E+03  0.82389384587E+03  0.00000000000E+00 0.  1.
         13    1    5    5    0    0 -0.22354702545E+03 -0.65872817089E+02  0.21312928163E+03  0.31581100568E+03  0.00000000000E+00 0.  1.
        -13    1    5    5    0    0 -0.22866308720E+03  0.18379776897E+02  0.24445927988E+03  0.33523866598E+03  0.00000000000E+00 0. -1.
          2    1    6    6  503    0  0.37165432885E+03  0.89088455986E+02  0.46079444974E+03  0.59866118803E+03  0.00000000000E+00 0. -1.
         -2    1    6    6    0  503  0.22108018737E+02  0.22815080610E+02  0.80743363874E+02  0.86768561157E+02  0.00000000000E+00 0.  1.
<mgrwt>
<rscale>  0 0.12075102E+04</rscale>
<asrwt>0</asrwt>
<pdfrwt beam="1">  1        2 0.32439730E+00 0.12075102E+04</pdfrwt>
<pdfrwt beam="2">  1       -2 0.26596082E-01 0.12075102E+04</pdfrwt>
<totfact> 0.73601808E+01</totfact>
</mgrwt>
</event>
<event>
12    3  0.4773567E-008  0.1342042E+04  0.7818608E-02  0.8996874E-01
          1   -1    0    0  501    0  0.00000000000E+00  0.00000000000E+00  0.60362307928E+03  0.60362307928E+03  0.00000000000E+00 0. -1.
         -1   -1    0    0    0  501 -0.00000000000E+00 -0.00000000000E+00 -0.74594379328E+03  0.74594379328E+03  0.00000000000E+00 0.  1.
         23    2    1    2    0    0 -0.99948308615E+02  0.18768600470E+03  0.25309741838E+03  0.34354437239E+03  0.93534655905E+02 0.  0.
        254    2    1    2    0    0  0.99948308615E+02 -0.18768600470E+03 -0.39541813239E+03  0.10060225002E+04  0.90028332800E+03 0.  0.
         23    2    4    4    0    0  0.26513115171E+03  0.19085941288E+03  0.99055457353E+02  0.35395421829E+03  0.93540162084E+02 0.  0.
         23    2    4    4    0    0 -0.16518284309E+03 -0.37854541757E+03 -0.49447358974E+03  0.65206828188E+03  0.10053312126E+03 0.  0.
          1    1    3    3  502    0 -0.10852156428E+03  0.11240937348E+03  0.16224316421E+03  0.22524573579E+03  0.00000000000E+00 0. -1.
         -1    1    3    3    0  502  0.85732556608E+01  0.75276631222E+02  0.90854254175E+02  0.11829863660E+03  0.00000000000E+00 0.  1.
         13    1    5    5    0    0  0.24861018488E+03  0.18038741543E+03  0.11574333899E+03  0.32824253867E+03  0.00000000000E+00 0.  1.
        -13    1    5    5    0    0  0.16520966827E+02  0.10471997449E+02 -0.16687881634E+02  0.25711679620E+02  0.00000000000E+00 0. -1.
          4    1    6    6  503    0 -0.75316953442E+02 -0.11607522737E+03 -0.23213834239E+03  0.27024861127E+03  0.00000000000E+00 0. -1.
         -4    1    6    6    0  503 -0.89865889652E+02 -0.26247019020E+03 -0.26233524735E+03  0.38181967061E+03  0.00000000000E+00 0.  1.
<mgrwt>
<rscale>  0 0.13420416E+04</rscale>
<asrwt>0</asrwt>
<pdfrwt beam="1">  1        1 0.92865089E-01 0.13420416E+04</pdfrwt>
<pdfrwt beam="2">  1       -1 0.11476058E+00 0.13420416E+04</pdfrwt>
<totfact> 0.22948627E+01</totfact>
</mgrwt>
</event>
<event>
12    3  0.4773567E-008  0.1922181E+04  0.7818608E-02  0.8643894E-01
          2   -1    0    0  501    0  0.00000000000E+00  0.00000000000E+00  0.13366628516E+04  0.13366628516E+04  0.00000000000E+00 0. -1.
         -2   -1    0    0    0  501 -0.00000000000E+00 -0.00000000000E+00 -0.69104527035E+03  0.69104527035E+03  0.00000000000E+00 0.  1.
         23    2    1    2    0    0  0.14739252475E+03  0.73496229298E+03  0.21078061503E+03  0.78409947286E+03  0.92137870693E+02 0.  0.
        254    2    1    2    0    0 -0.14739252475E+03 -0.73496229298E+03  0.43483696623E+03  0.12436086491E+04  0.89195580410E+03 0.  0.
         23    2    4    4    0    0 -0.50323287548E+03 -0.55895234827E+03  0.30900333090E+03  0.81716648531E+03  0.81283156933E+02 0.  0.
         23    2    4    4    0    0  0.35584035073E+03 -0.17600994471E+03  0.12583363532E+03  0.42644216379E+03  0.91743988539E+02 0.  0.
          3    1    3    3  502    0  0.86521721163E+02  0.44059163874E+03  0.79085985444E+02  0.45591840658E+03  0.00000000000E+00 0.  1.
         -3    1    3    3    0  502  0.60870803586E+02  0.29437065424E+03  0.13169462959E+03  0.32818106628E+03  0.00000000000E+00 0. -1.
         13    1    5    5    0    0 -0.13740398279E+03 -0.11521088724E+03  0.48092032015E+02  0.18565087279E+03  0.00000000000E+00 0.  1.
        -13    1    5    5    0    0 -0.36582889269E+03 -0.44374146103E+03  0.26091129889E+03  0.63151561252E+03  0.00000000000E+00 0. -1.
          3    1    6    6  503    0  0.12724751192E+03 -0.25401510111E+02  0.13196416359E+02  0.13042741817E+03  0.00000000000E+00 0. -1.
         -3    1    6    6    0  503  0.22859283881E+03 -0.15060843460E+03  0.11263721896E+03  0.29601474562E+03  0.00000000000E+00 0.  1.
<mgrwt>
<rscale>  0 0.19221806E+04</rscale>
<asrwt>0</asrwt>
<pdfrwt beam="1">  1        2 0.20564044E+00 0.19221806E+04</pdfrwt>
<pdfrwt beam="2">  1       -2 0.10631466E+00 0.19221806E+04</pdfrwt>
<totfact> 0.10499257E+01</totfact>
</mgrwt>
</event>
<event>
12    3  0.4773567E-008  0.1762466E+04  0.7818608E-02  0.8726518E-01
          2   -1    0    0  501    0  0.00000000000E+00  0.00000000000E+00  0.16620319202E+04  0.16620319202E+04  0.00000000000E+00 0. -1.
         -2   -1    0    0    0  501 -0.00000000000E+00 -0.00000000000E+00 -0.46724230808E+03  0.46724230808E+03  0.00000000000E+00 0.  1.
         23    2    1    2    0    0 -0.39157996778E+03 -0.17701293156E+03  0.10529092737E+04  0.11414425117E+04  0.98003162583E+02 0.  0.
        254    2    1    2    0    0  0.39157996778E+03  0.17701293156E+03  0.14188033843E+03  0.98783171654E+03  0.87807347111E+03 0.  0.
         23    2    4    4    0    0  0.52248737939E+02 -0.22817273187E+03  0.33485920995E+03  0.41742824923E+03  0.85574099959E+02 0.  0.
         23    2    4    4    0    0  0.33933122984E+03  0.40518566343E+03 -0.19297887152E+03  0.57040346732E+03  0.93798535585E+02 0.  0.
          4    1    3    3  502    0 -0.18862564328E+03 -0.90008861692E+02  0.38633242898E+03  0.43924250041E+03  0.00000000000E+00 0. -1.
         -4    1    3    3    0  502 -0.20295432451E+03 -0.87004069871E+02  0.66657684469E+03  0.70220001131E+03  0.00000000000E+00 0.  1.
         13    1    5    5    0    0  0.31675089253E+02 -0.22618918877E+03  0.30269265527E+03  0.37919349144E+03  0.00000000000E+00 0. -1.
        -13    1    5    5    0    0  0.20573648686E+02 -0.19835430985E+01  0.32166554680E+02  0.38234757792E+02  0.00000000000E+00 0.  1.
          4    1    6    6  503    0  0.20712423454E+03  0.30081010302E+03 -0.10316950628E+03  0.37951431282E+03  0.00000000000E+00 0. -1.
         -4    1    6    6    0  503  0.13220699531E+03  0.10437556041E+03 -0.89809365238E+02  0.19088915449E+03  0.00000000000E+00 0.  1.
<mgrwt>
<rscale>  0 0.17624660E+04</rscale>
<asrwt>0</asrwt>
<pdfrwt beam="1">  1        2 0.25569722E+00 0.17624660E+04</pdfrwt>
<pdfrwt beam="2">  1       -2 0.71883433E-01 0.17624660E+04</pdfrwt>
<totfact> 0.17097004E+01</totfact>
</mgrwt>
</event>
<event>
12    3  0.4773567E-008  0.1835237E+04  0.7818608E-02  0.8687782E-01
          2   -1    0    0  501    0  0.00000000000E+00  0.00000000000E+00  0.18643646845E+04  0.18643646845E+04  0.00000000000E+00 0. -1.
         -2   -1    0    0    0  501 -0.00000000000E+00 -0.00000000000E+00 -0.45164110652E+03  0.45164110652E+03  0.00000000000E+00 0.  1.
         23    2    1    2    0    0  0.12650446212E+03 -0.39831308890E+03 -0.16544102071E+03  0.45830479491E+03  0.89531323991E+02 0.  0.
        254    2    1    2    0    0 -0.12650446212E+03  0.39831308890E+03  0.15781645987E+04  0.18577009961E+04  0.88644954434E+03 0.  0.
         23    2    4    4    0    0 -0.20493240862E+03  0.65727352763E+03  0.11353639415E+04  0.13309660457E+04  0.91725420370E+02 0.  0.
         23    2    4    4    0    0  0.78427946499E+02 -0.25896043873E+03  0.44280065718E+03  0.52673495047E+03  0.90365006651E+02 0.  0.
          3    1    3    3  502    0  0.46110645599E+02 -0.44455783032E+02 -0.32683331123E+02  0.71907638091E+02  0.00000000000E+00 0. -1.
         -3    1    3    3    0  502  0.80393816524E+02 -0.35385730586E+03 -0.13275768959E+03  0.38639715681E+03  0.00000000000E+00 0.  1.
         13    1    5    5    0    0 -0.14893947057E+03  0.50819406180E+03  0.94012151745E+03  0.10790146607E+04  0.00000000000E+00 0. -1.
        -13    1    5    5    0    0 -0.55992938050E+02  0.14907946582E+03  0.19524242409E+03  0.25195138501E+03  0.00000000000E+00 0.  1.
          3    1    6    6  503    0  0.42736121070E+02 -0.23171643283E+03  0.40252192465E+03  0.46641481657E+03  0.00000000000E+00 0. -1.
         -3    1    6    6    0  503  0.35691825429E+02 -0.27244005903E+02  0.40278732530E+02  0.60320133905E+02  0.00000000000E+00 0.  1.
<mgrwt>
<rscale>  0 0.18352370E+04</rscale>
<asrwt>0</asrwt>
<pdfrwt beam="1">  1        2 0.28682533E+00 0.18352370E+04</pdfrwt>
<pdfrwt beam="2">  1       -2 0.69483248E-01 0.18352370E+04</pdfrwt>
<totfact> 0.14133491E+01</totfact>
</mgrwt>
</event>
<event>
12    3  0.4773567E-008  0.1369793E+04  0.7818608E-02  0.8975979E-01
         -1   -1    0    0    0  501 -0.00000000000E+00  0.00000000000E+00  0.71982350905E+03  0.71982350905E+03  0.00000000000E+00 0.  1.
          1   -1    0    0  501    0  0.00000000000E+00 -0.00000000000E+00 -0.65166375155E+03  0.65166375155E+03  0.00000000000E+00 0. -1.
         23    2    1    2    0    0  0.25860340612E+03  0.46438246966E+02  0.30050629357E+03  0.40912008359E+03  0.89682650959E+02 0.  0.
        254    2    1    2    0    0 -0.25860340612E+03 -0.46438246966E+02 -0.23234653607E+03  0.96236717701E+03  0.89617712430E+03 0.  0.
         23    2    4    4    0    0 -0.23837880931E+03  0.38835662102E+03 -0.10261902522E+02  0.46486470404E+03  0.91370479917E+02 0.  0.
         23    2    4    4    0    0 -0.20224596814E+02 -0.43479486799E+03 -0.22208463355E+03  0.49750247297E+03  0.93442573839E+02 0.  0.
          3    1    3    3  502    0  0.16956290012E+03 -0.51716365514E+01  0.14794671096E+03  0.22509231930E+03  0.00000000000E+00 0. -1.
         -3    1    3    3    0  502  0.89040506001E+02  0.51609883517E+02  0.15255958260E+03  0.18402776429E+03  0.00000000000E+00 0.  1.
         13    1    5    5    0    0 -0.88009878065E+02  0.12845377457E+03  0.39153239854E+02  0.16055867161E+03  0.00000000000E+00 0. -1.
        -13    1    5    5    0    0 -0.15036893125E+03  0.25990284646E+03 -0.49415142376E+02  0.30430603243E+03  0.00000000000E+00 0.  1.
          3    1    6    6  503    0 -0.32182404575E+02 -0.37879887847E+03 -0.22201438717E+03  0.44024389333E+03  0.00000000000E+00 0. -1.
         -3    1    6    6    0  503  0.11957807761E+02 -0.55995989514E+02 -0.70246372336E-01  0.57258579642E+02  0.00000000000E+00 0.  1.
<mgrwt>
<rscale>  0 0.13697925E+04</rscale>
<asrwt>0</asrwt>
<pdfrwt beam="1">  1        1 0.10025596E+00 0.13697925E+04</pdfrwt>
<pdfrwt beam="2">  1       -1 0.11074208E+00 0.13697925E+04</pdfrwt>
<totfact> 0.22282989E+01</totfact>
</mgrwt>
</event>
<event>
12    3  0.4773567E-008  0.1154290E+04  0.7818608E-02  0.9153835E-01
         -2   -1    0    0    0  501 -0.00000000000E+00  0.00000000000E+00  0.60241072648E+03  0.60241072648E+03  0.00000000000E+00 0.  1.
          2   -1    0    0  501    0  0.00000000000E+00 -0.00000000000E+00 -0.55293899684E+03  0.55293899684E+03  0.00000000000E+00 0. -1.
         23    2    1    2    0    0  0.11922164010E+02  0.90448033309E+01  0.22520139320E+03  0.24374088169E+03  0.92032621632E+02 0.  0.
        254    2    1    2    0    0 -0.11922164010E+02 -0.90448033309E+01 -0.17572966357E+03  0.91160884163E+03  0.89438572161E+03 0.  0.
         23    2    4    4    0    0  0.41990897439E+03 -0.97769978872E+02 -0.12675233937E+03  0.45851477102E+03  0.91033643044E+02 0.  0.
         23    2    4    4    0    0 -0.43183113840E+03  0.88725175541E+02 -0.48977324201E+02  0.45309407061E+03  0.92440086891E+02 0.  0.
          3    1    3    3  502    0  0.34332697759E+02  0.30369483714E+02  0.59145080200E+02  0.74827669938E+02  0.00000000000E+00 0. -1.
         -3    1    3    3    0  502 -0.22410533749E+02 -0.21324680383E+02  0.16605631300E+03  0.16891321175E+03  0.00000000000E+00 0.  1.
         13    1    5    5    0    0  0.38671255442E+03 -0.10000649727E+03 -0.90986947352E+02  0.40966635672E+03  0.00000000000E+00 0. -1.
        -13    1    5    5    0    0  0.33196419977E+02  0.22365183981E+01 -0.35765392016E+02  0.48848414303E+02  0.00000000000E+00 0.  1.
          2    1    6    6  503    0 -0.38425436640E+03  0.10790851237E+03 -0.41976580943E+02  0.40131994529E+03  0.00000000000E+00 0. -1.
         -2    1    6    6    0  503 -0.47576772008E+02 -0.19183336832E+02 -0.70007432580E+01  0.51774125322E+02  0.00000000000E+00 0.  1.
<mgrwt>
<rscale>  0 0.11542901E+04</rscale>
<asrwt>0</asrwt>
<pdfrwt beam="1">  1        2 0.85067538E-01 0.11542901E+04</pdfrwt>
<pdfrwt beam="2">  1       -2 0.92678574E-01 0.11542901E+04</pdfrwt>
<totfact> 0.53473479E+01</totfact>
</mgrwt>
</event>
<event>
12    3  0.4773567E-008  0.1154470E+04  0.7818608E-02  0.9153669E-01
         -1   -1    0    0    0  501 -0.00000000000E+00  0.00000000000E+00  0.16779303827E+03  0.16779303827E+03  0.00000000000E+00 0.  1.
          1   -1    0    0  501    0  0.00000000000E+00 -0.00000000000E+00 -0.19857818782E+04  0.19857818782E+04  0.00000000000E+00 0. -1.
         23    2    1    2    0    0 -0.12855528708E+03  0.49039798449E+02 -0.68379922702E+03  0.70353415055E+03  0.91910578519E+02 0.  0.
        254    2    1    2    0    0  0.12855528708E+03 -0.49039798449E+02 -0.11341896129E+04  0.14500407659E+04  0.89291700685E+03 0.  0.
         23    2    4    4    0    0 -0.34918668891E+03 -0.14673698785E+03 -0.36880321549E+03  0.53765570260E+03  0.97952822621E+02 0.  0.
         23    2    4    4    0    0  0.47774197599E+03  0.97697189398E+02 -0.76538639739E+03  0.91238506330E+03  0.94063967473E+02 0.  0.
          1    1    3    3  502    0 -0.13399114364E+03  0.55039249200E+02 -0.52756417075E+03  0.54708948060E+03  0.00000000000E+00 0. -1.
         -1    1    3    3    0  502  0.54358565641E+01 -0.59994507508E+01 -0.15623505627E+03  0.15644466995E+03  0.00000000000E+00 0.  1.
         13    1    5    5    0    0 -0.95086683908E+02 -0.16324994482E+02 -0.14789665018E+03  0.17658256436E+03  0.00000000000E+00 0.  1.
        -13    1    5    5    0    0 -0.25410000501E+03 -0.13041199337E+03 -0.22090656531E+03  0.36107313824E+03  0.00000000000E+00 0. -1.
          2    1    6    6  503    0  0.22220395282E+03  0.61196519709E+02 -0.28024866511E+03  0.36284834982E+03  0.00000000000E+00 0.  1.
         -2    1    6    6    0  503  0.25553802318E+03  0.36500669688E+02 -0.48513773228E+03  0.54953671348E+03  0.00000000000E+00 0. -1.
<mgrwt>
<rscale>  0 0.11544702E+04</rscale>
<asrwt>0</asrwt>
<pdfrwt beam="1">  1        1 0.30550490E+00 0.11544702E+04</pdfrwt>
<pdfrwt beam="2">  1       -1 0.25814314E-01 0.11544702E+04</pdfrwt>
<totfact> 0.40188482E+01</totfact>
</mgrwt>
</event>
<event>
12    3  0.4773567E-008  0.1752293E+04  0.7818608E-02  0.8732089E-01
         -1   -1    0    0    0  501 -0.00000000000E+00  0.00000000000E+00  0.38669326218E+03  0.38669326218E+03  0.00000000000E+00 0.  1.
          1   -1    0    0  501    0  0.00000000000E+00 -0.00000000000E+00 -0.19851197936E+04  0.19851197936E+04  0.00000000000E+00 0. -1.
         23    2    1    2    0    0  0.44510331269E+03  0.21581936835E+03 -0.38336700222E+02  0.50452416324E+03  0.91542175997E+02 0.  0.
        254    2    1    2    0    0 -0.44510331269E+03 -0.21581936835E+03 -0.15600898312E+04  0.18672888925E+04  0.89899531037E+03 0.  0.
         23    2    4    4    0    0 -0.46940898404E+03 -0.26023054730E+03 -0.16445557826E+04  0.17322998433E+04  0.90743005007E+02 0.  0.
         23    2    4    4    0    0  0.24305671348E+02  0.44411178949E+02  0.84465951425E+02  0.13498904923E+03  0.92327828879E+02 0.  0.
          1    1    3    3  502    0  0.17833053581E+03  0.53404716636E+02 -0.47303637183E+02  0.19207154358E+03  0.00000000000E+00 0. -1.
         -1    1    3    3    0  502  0.26677277688E+03  0.16241465172E+03  0.89669369606E+01  0.31245261966E+03  0.00000000000E+00 0.  1.
         13    1    5    5    0    0 -0.10067648041E+03 -0.18738221793E+02 -0.26806859224E+03  0.28696279343E+03  0.00000000000E+00 0.  1.
        -13    1    5    5    0    0 -0.36873250363E+03 -0.24149232551E+03 -0.13764871903E+04  0.14453370498E+04  0.00000000000E+00 0. -1.
          4    1    6    6  503    0 -0.29173265034E+02  0.41800450469E+02  0.33009078112E+02  0.60728545923E+02  0.00000000000E+00 0. -1.
         -4    1    6    6    0  503  0.53478936381E+02  0.26107284804E+01  0.51456873313E+02  0.74260503303E+02  0.00000000000E+00 0.  1.
<mgrwt>
<rscale>  0 0.17522927E+04</rscale>
<asrwt>0</asrwt>
<pdfrwt beam="1">  1        1 0.30540305E+00 0.17522927E+04</pdfrwt>
<pdfrwt beam="2">  1       -1 0.59491271E-01 0.17522927E+04</pdfrwt>
<totfact> 0.82789910E+00</totfact>
</mgrwt>
</event>
<event>
12    3  0.4773567E-008  0.1773079E+04  0.7818608E-02  0.8720748E-01
         -3   -1    0    0    0  501 -0.00000000000E+00  0.00000000000E+00  0.60492176789E+03  0.60492176789E+03  0.00000000000E+00 0.  1.
          3   -1    0    0  501    0  0.00000000000E+00 -0.00000000000E+00 -0.12992633071E+04  0.12992633071E+04  0.00000000000E+00 0. -1.
         23    2    1    2    0    0 -0.34937694235E+03  0.15885159714E+03 -0.82751308131E+03  0.91675484596E+03  0.91452009784E+02 0.  0.
        254    2    1    2    0    0  0.34937694235E+03 -0.15885159714E+03  0.13317154212E+03  0.98743022900E+03  0.89999206650E+03 0.  0.
         23    2    4    4    0    0  0.13620325568E+03  0.30190235480E+03  0.28763016598E+03  0.44899809651E+03  0.95769617258E+02 0.  0.
         23    2    4    4    0    0  0.21317368667E+03 -0.46075395194E+03 -0.15445862387E+03  0.53843213250E+03  0.91183715110E+02 0.  0.
          3    1    3    3  502    0 -0.26489473970E+03  0.95374937825E+02 -0.67347377045E+03  0.72995378030E+03  0.00000000000E+00 0. -1.
         -3    1    3    3    0  502 -0.84482202654E+02  0.63476659319E+02 -0.15403931086E+03  0.18680106566E+03  0.00000000000E+00 0.  1.
         13    1    5    5    0    0  0.12985436721E+03  0.21192269014E+03  0.17158412163E+03  0.30201737380E+03  0.00000000000E+00 0.  1.
        -13    1    5    5    0    0  0.63488884703E+01  0.89979664656E+02  0.11604604436E+03  0.14698072271E+03  0.00000000000E+00 0. -1.
          2    1    6    6  503    0  0.73041521748E+01 -0.36792214775E+01  0.80260666388E+01  0.11458841798E+02  0.00000000000E+00 0. -1.
         -2    1    6    6    0  503  0.20586953450E+03 -0.45707473047E+03 -0.16248469051E+03  0.52697329070E+03  0.00000000000E+00 0.  1.
<mgrwt>
<rscale>  0 0.17730794E+04</rscale>
<asrwt>0</asrwt>
<pdfrwt beam="1">  1        3 0.19988666E+00 0.17730794E+04</pdfrwt>
<pdfrwt beam="2">  1       -3 0.93064888E-01 0.17730794E+04</pdfrwt>
<totfact> 0.37703138E-01</totfact>
</mgrwt>
</event>
<event>
12    3  0.4773567E-008  0.1992083E+04  0.7818608E-02  0.8610331E-01
         -2   -1    0    0    0  501 -0.00000000000E+00  0.00000000000E+00  0.28663620641E+03  0.28663620641E+03  0.00000000000E+00 0.  1.
          2   -1    0    0  501    0  0.00000000000E+00 -0.00000000000E+00 -0.34611754330E+04  0.34611754330E+04  0.00000000000E+00 0. -1.
         23    2    1    2    0    0  0.11102403744E+03  0.18548719759E+03  0.16197857581E+03  0.28604405751E+03  0.94086696497E+02 0.  0.
        254    2    1    2    0    0 -0.11102403744E+03 -0.18548719759E+03 -0.33365178024E+04  0.34617675819E+04  0.89707965532E+03 0.  0.
         23    2    4    4    0    0  0.30351944285E+03  0.69788316490E+00 -0.23566429599E+04  0.23778310228E+04  0.90497474847E+02 0.  0.
         23    2    4    4    0    0 -0.41454348029E+03 -0.18618508076E+03 -0.97987484241E+03  0.10839365591E+04  0.90843689854E+02 0.  0.
          4    1    3    3  502    0 -0.13488738834E+02  0.24394758817E+02  0.36260203753E+01  0.28110467034E+02  0.00000000000E+00 0. -1.
         -4    1    3    3    0  502  0.12451277627E+03  0.16109243878E+03  0.15835255543E+03  0.25793359048E+03  0.00000000000E+00 0.  1.
         13    1    5    5    0    0  0.22907635769E+03 -0.38460533586E+02 -0.16811874081E+04  0.16971582989E+04  0.00000000000E+00 0. -1.
        -13    1    5    5    0    0  0.74443085163E+02  0.39158416751E+02 -0.67545555185E+03  0.68067272389E+03  0.00000000000E+00 0.  1.
          2    1    6    6  503    0 -0.31054993514E+03 -0.94387018532E+02 -0.69837228109E+03  0.77011298812E+03  0.00000000000E+00 0. -1.
         -2    1    6    6    0  503 -0.10399354515E+03 -0.91798062226E+02 -0.28150256132E+03  0.31382357097E+03  0.00000000000E+00 0.  1.
<mgrwt>
<rscale>  0 0.19920825E+04</rscale>
<asrwt>0</asrwt>
<pdfrwt beam="1">  1        2 0.53248853E+00 0.19920825E+04</pdfrwt>
<pdfrwt beam="2">  1       -2 0.44097877E-01 0.19920825E+04</pdfrwt>
<totfact> 0.39441064E+00</totfact>
</mgrwt>
</event>
<event>
12    3  0.4773567E-008  0.2720465E+04  0.7818608E-02  0.8328395E-01
         -2   -1    0    0    0  501 -0.00000000000E+00  0.00000000000E+00  0.13519582577E+04  0.13519582577E+04  0.00000000000E+00 0.  1.
          2   -1    0    0  501    0  0.00000000000E+00 -0.00000000000E+00 -0.13685569145E+04  0.13685569145E+04  0.00000000000E+00 0. -1.
         23    2    1    2    0    0  0.84025544540E+03 -0.64507116774E+03 -0.59288372525E+03  0.12174396107E+04  0.92206665184E+02 0.  0.
        254    2    1    2    0    0 -0.84025544540E+03  0.64507116774E+03  0.57628506845E+03  0.15030755614E+04  0.89720991868E+03 0.  0.
         23    2    4    4    0    0  0.17852016240E+03  0.59685647264E+02  0.98247316639E+02  0.23100813036E+03  0.90996682335E+02 0.  0.
         23    2    4    4    0    0 -0.10187756078E+04  0.58538552048E+03  0.47803775181E+03  0.12720674310E+04  0.95160445073E+02 0.  0.
          3    1    3    3  502    0  0.53140855549E+03 -0.42262728454E+03 -0.42821332551E+03  0.80273004592E+03  0.00000000000E+00 0. -1.
         -3    1    3    3    0  502  0.30884688991E+03 -0.22244388320E+03 -0.16467039974E+03  0.41470956480E+03  0.00000000000E+00 0.  1.
         13    1    5    5    0    0  0.18421234350E+03  0.65924501923E+02  0.10321576282E+03  0.22120967688E+03  0.00000000000E+00 0. -1.
        -13    1    5    5    0    0 -0.56921811027E+01 -0.62388546597E+01 -0.49684461823E+01  0.97984534819E+01  0.00000000000E+00 0.  1.
          3    1    6    6  503    0 -0.72767183640E+03  0.36954566439E+03  0.34433268340E+03  0.88579641929E+03  0.00000000000E+00 0. -1.
         -3    1    6    6    0  503 -0.29110377140E+03  0.21583985608E+03  0.13370506840E+03  0.38627101174E+03  0.00000000000E+00 0.  1.
<mgrwt>
<rscale>  0 0.27204645E+04</rscale>
<asrwt>0</asrwt>
<pdfrwt beam="1">  1        2 0.21054722E+00 0.27204645E+04</pdfrwt>
<pdfrwt beam="2">  1       -2 0.20799358E+00 0.27204645E+04</pdfrwt>
<totfact> 0.15587577E+00</totfact>
</mgrwt>
</event>
<event>
12    3  0.4773567E-008  0.2632331E+04  0.7818608E-02  0.8357301E-01
          1   -1    0    0  501    0  0.00000000000E+00  0.00000000000E+00  0.35220095089E+04  0.35220095089E+04  0.00000000000E+00 0. -1.
         -1   -1    0    0    0  501 -0.00000000000E+00 -0.00000000000E+00 -0.49184758006E+03  0.49184758006E+03  0.00000000000E+00 0.  1.
         23    2    1    2    0    0  0.60143069043E+03  0.54377699470E+03  0.26067162077E+04  0.27313353049E+04  0.88379098949E+02 0.  0.
        254    2    1    2    0    0 -0.60143069043E+03 -0.54377699470E+03  0.42344572114E+03  0.12825217840E+04  0.89896804858E+03 0.  0.
         23    2    4    4    0    0 -0.72939794152E+03 -0.16325401966E+03  0.10129313182E+03  0.75981213433E+03  0.91547522636E+02 0.  0.
         23    2    4    4    0    0  0.12796725108E+03 -0.38052297504E+03  0.32215258933E+03  0.52270964969E+03  0.90938084353E+02 0.  0.
          4    1    3    3  502    0  0.22749388298E+03  0.19216930302E+03  0.10996419029E+04  0.11392518696E+04  0.00000000000E+00 0. -1.
         -4    1    3    3    0  502  0.37393680745E+03  0.35160769168E+03  0.15070743048E+04  0.15920834353E+04  0.00000000000E+00 0.  1.
         13    1    5    5    0    0 -0.35234227887E+03 -0.68368143114E+02  0.36717950202E+01  0.35893281621E+03  0.00000000000E+00 0. -1.
        -13    1    5    5    0    0 -0.37705566265E+03 -0.94885876547E+02  0.97621336796E+02  0.40087931813E+03  0.00000000000E+00 0.  1.
          4    1    6    6  503    0  0.59940694606E+02 -0.18395378216E+03  0.21318521971E+03  0.28788855265E+03  0.00000000000E+00 0. -1.
         -4    1    6    6    0  503  0.68026556479E+02 -0.19656919288E+03  0.10896736961E+03  0.23482109704E+03  0.00000000000E+00 0.  1.
<mgrwt>
<rscale>  0 0.26323312E+04</rscale>
<asrwt>0</asrwt>
<pdfrwt beam="1">  1        1 0.54184760E+00 0.26323312E+04</pdfrwt>
<pdfrwt beam="2">  1       -1 0.75668861E-01 0.26323312E+04</pdfrwt>
<totfact> 0.37015434E-01</totfact>
</mgrwt>
</event>
<event>
12    3  0.4773567E-008  0.1439628E+04  0.7818608E-02  0.8925623E-01
         -3   -1    0    0    0  501 -0.00000000000E+00  0.00000000000E+00  0.75175661082E+03  0.75175661082E+03  0.00000000000E+00 0.  1.
          3   -1    0    0  501    0  0.00000000000E+00 -0.00000000000E+00 -0.68922884581E+03  0.68922884581E+03  0.00000000000E+00 0. -1.
         23    2    1    2    0    0  0.20471520569E+03 -0.23320431880E+03  0.31905731072E+03  0.45451591158E+03  0.92166027405E+02 0.  0.
        254    2    1    2    0    0 -0.20471520569E+03  0.23320431880E+03 -0.25652954571E+03  0.98646954505E+03  0.90056770192E+03 0.  0.
         23    2    4    4    0    0 -0.53952356900E+03  0.13679262630E+03 -0.27529263553E+03  0.62732092025E+03  0.89149299990E+02 0.  0.
         23    2    4    4    0    0  0.33480836331E+03  0.96411692508E+02  0.18763089826E+02  0.35914862480E+03  0.85110672395E+02 0.  0.
          4    1    3    3  502    0  0.24873823009E+02 -0.15474144454E+02  0.77664809125E+02  0.83005896140E+02  0.00000000000E+00 0. -1.
         -4    1    3    3    0  502  0.17984138268E+03 -0.21773017435E+03  0.24139250160E+03  0.37151001544E+03  0.00000000000E+00 0.  1.
         13    1    5    5    0    0 -0.53018197799E+03  0.14006747287E+03 -0.28070224185E+03  0.61604023839E+03  0.00000000000E+00 0. -1.
        -13    1    5    5    0    0 -0.93415910185E+01 -0.32748465713E+01  0.54096063155E+01  0.11280681864E+02  0.00000000000E+00 0.  1.
          4    1    6    6  503    0  0.26765713990E+03  0.40201392311E+02  0.21694254737E+02  0.27152741513E+03  0.00000000000E+00 0. -1.
         -4    1    6    6    0  503  0.67151223418E+02  0.56210300197E+02 -0.29311649104E+01  0.87621209661E+02  0.00000000000E+00 0.  1.
<mgrwt>
<rscale>  0 0.14396282E+04</rscale>
<asrwt>0</asrwt>
<pdfrwt beam="1">  1        3 0.10603521E+00 0.14396282E+04</pdfrwt>
<pdfrwt beam="2">  1       -3 0.11565486E+00 0.14396282E+04</pdfrwt>
<totfact> 0.11980141E+00</totfact>
</mgrwt>
</event>
<event>
12    3  0.4773567E-008  0.2764418E+04  0.7818608E-02  0.8314401E-01
          2   -1    0    0  501    0  0.00000000000E+00  0.00000000000E+00  0.14810925470E+04  0.14810925470E+04  0.00000000000E+00 0. -1.
         -2   -1    0    0    0  501 -0.00000000000E+00 -0.00000000000E+00 -0.12899272714E+04  0.12899272714E+04  0.00000000000E+00 0.  1.
         23    2    1    2    0    0 -0.32394424629E+03 -0.60651616996E+03  0.11072336600E+04  0.13068406646E+04  0.95207171631E+02 0.  0.
        254    2    1    2    0    0  0.32394424629E+03  0.60651616996E+03 -0.91606838443E+03  0.14641791538E+04  0.91205129815E+03 0.  0.
         23    2    4    4    0    0 -0.26782023897E+02  0.72887728779E+03 -0.45215284307E+03  0.86328811203E+03  0.94046761940E+02 0.  0.
         23    2    4    4    0    0  0.35072627019E+03 -0.12236111783E+03 -0.46391554137E+03  0.60089104181E+03  0.88720092696E+02 0.  0.
          1    1    3    3  502    0 -0.11617507569E+03 -0.30406957237E+03  0.47473538716E+03  0.57561153643E+03  0.00000000000E+00 0. -1.
         -1    1    3    3    0  502 -0.20776917060E+03 -0.30244659760E+03  0.63249827287E+03  0.73122912813E+03  0.00000000000E+00 0.  1.
         13    1    5    5    0    0  0.13298882878E+02  0.46717728556E+03 -0.24888300877E+03  0.52950375682E+03  0.00000000000E+00 0. -1.
        -13    1    5    5    0    0 -0.40080906775E+02  0.26170000223E+03 -0.20326983429E+03  0.33378435522E+03  0.00000000000E+00 0.  1.
          1    1    6    6  503    0  0.96086136175E+02 -0.12787759991E+02 -0.17780127906E+03  0.20250769666E+03  0.00000000000E+00 0. -1.
         -1    1    6    6    0  503  0.25464013401E+03 -0.10957335784E+03 -0.28611426231E+03  0.39838334515E+03  0.00000000000E+00 0.  1.
<mgrwt>
<rscale>  0 0.27644180E+04</rscale>
<asrwt>0</asrwt>
<pdfrwt beam="1">  1        2 0.22786039E+00 0.27644180E+04</pdfrwt>
<pdfrwt beam="2">  1       -2 0.19845035E+00 0.27644180E+04</pdfrwt>
<totfact> 0.15461551E+00</totfact>
</mgrwt>
</event>
<event>
12    3  0.4773567E-008  0.1718742E+04  0.7818608E-02  0.8750747E-01
          2   -1    0    0  501    0  0.00000000000E+00  0.00000000000E+00  0.10266374897E+04  0.10266374897E+04  0.00000000000E+00 0. -1.
         -2   -1    0    0    0  501 -0.00000000000E+00 -0.00000000000E+00 -0.71935656068E+03  0.71935656068E+03  0.00000000000E+00 0.  1.
         23    2    1    2    0    0 -0.88894053131E+02 -0.70272847378E+02 -0.50341622054E+03  0.52452767649E+03  0.94132707073E+02 0.  0.
        254    2    1    2    0    0  0.88894053131E+02  0.70272847378E+02  0.81069714958E+03  0.12214663739E+04  0.90659241587E+03 0.  0.
         23    2    4    4    0    0  0.11987594693E+03 -0.27705853028E+03 -0.21262987231E+02  0.31480084383E+03  0.86693626061E+02 0.  0.
         23    2    4    4    0    0 -0.30981893796E+02  0.34733137766E+03  0.83196013681E+03  0.90666553008E+03  0.91026098163E+02 0.  0.
          1    1    3    3  502    0 -0.98133703103E+02 -0.39949443149E+02 -0.28958690655E+03  0.30836140832E+03  0.00000000000E+00 0. -1.
         -1    1    3    3    0  502  0.92396499719E+01 -0.30323404229E+02 -0.21382931398E+03  0.21616626817E+03  0.00000000000E+00 0.  1.
         13    1    5    5    0    0  0.12130860880E+03 -0.21850791284E+03 -0.40438793858E+02  0.25317342394E+03  0.00000000000E+00 0.  1.
        -13    1    5    5    0    0 -0.14326618693E+01 -0.58550617443E+02  0.19175806627E+02  0.61627419894E+02  0.00000000000E+00 0. -1.
          2    1    6    6  503    0  0.26772801846E+02  0.12447274458E+03  0.24357054404E+03  0.27483969325E+03  0.00000000000E+00 0. -1.
         -2    1    6    6    0  503 -0.57754695642E+02  0.22285863307E+03  0.58838959277E+03  0.63182583683E+03  0.00000000000E+00 0.  1.
<mgrwt>
<rscale>  0 0.17187419E+04</rscale>
<asrwt>0</asrwt>
<pdfrwt beam="1">  1        2 0.15794423E+00 0.17187419E+04</pdfrwt>
<pdfrwt beam="2">  1       -2 0.11067024E+00 0.17187419E+04</pdfrwt>
<totfact> 0.14900194E+01</totfact>
</mgrwt>
</event>
<event>
12    3  0.4773567E-008  0.4550730E+04  0.7818608E-02  0.7901815E-01
          2   -1    0    0  501    0  0.00000000000E+00  0.00000000000E+00  0.24631010385E+04  0.24631010385E+04  0.00000000000E+00 0. -1.
         -2   -1    0    0    0  501 -0.00000000000E+00 -0.00000000000E+00 -0.21019378592E+04  0.21019378592E+04  0.00000000000E+00 0.  1.
         23    2    1    2    0    0 -0.20932485595E+03  0.21710802805E+04  0.26683257987E+03  0.21993421619E+04  0.92194575443E+02 0.  0.
        254    2    1    2    0    0  0.20932485595E+03 -0.21710802805E+04  0.94330599465E+02  0.23656967358E+04  0.91116206239E+03 0.  0.
         23    2    4    4    0    0  0.36678325383E+03 -0.33137558918E+03 -0.79091270809E+02  0.50890394655E+03  0.91586359790E+02 0.  0.
         23    2    4    4    0    0 -0.15745839788E+03 -0.18397046913E+04  0.17342187027E+03  0.18567927892E+04  0.91092363409E+02 0.  0.
          3    1    3    3  502    0 -0.15919524544E+02  0.17353869771E+03 -0.37048415417E+01  0.17430673170E+03  0.00000000000E+00 0. -1.
         -3    1    3    3    0  502 -0.19340533141E+03  0.19975415828E+04  0.27053742141E+03  0.20250354302E+04  0.00000000000E+00 0.  1.
         13    1    5    5    0    0  0.13460832974E+02 -0.41483519912E+02  0.59968905929E+01  0.44023166009E+02  0.00000000000E+00 0. -1.
        -13    1    5    5    0    0  0.35332242086E+03 -0.28989206927E+03 -0.85088161402E+02  0.46488078054E+03  0.00000000000E+00 0.  1.
          1    1    6    6  503    0 -0.24888578478E+02 -0.33064483074E+03 -0.37046891338E+01  0.33160092002E+03  0.00000000000E+00 0. -1.
         -1    1    6    6    0  503 -0.13256981940E+03 -0.15090598606E+04  0.17712655941E+03  0.15251918692E+04  0.00000000000E+00 0.  1.
<mgrwt>
<rscale>  0 0.45507298E+04</rscale>
<asrwt>0</asrwt>
<pdfrwt beam="1">  1        2 0.37893862E+00 0.45507298E+04</pdfrwt>
<pdfrwt beam="2">  1       -2 0.32337505E+00 0.45507298E+04</pdfrwt>
<totfact> 0.62967978E-02</totfact>
</mgrwt>
</event>
<event>
12    3  0.4773567E-008  0.2029102E+04  0.7818608E-02  0.8593134E-01
          1   -1    0    0  501    0  0.00000000000E+00  0.00000000000E+00  0.16025837545E+04  0.16025837545E+04  0.00000000000E+00 0. -1.
         -1   -1    0    0    0  501 -0.00000000000E+00 -0.00000000000E+00 -0.64228372403E+03  0.64228372403E+03  0.00000000000E+00 0.  1.
         23    2    1    2    0    0 -0.10961992684E+03  0.67828383181E+03  0.86349354858E+03  0.11073369934E+04  0.92133726877E+02 0.  0.
        254    2    1    2    0    0  0.10961992684E+03 -0.67828383181E+03  0.96806481868E+02  0.11375304851E+04  0.90139814998E+03 0.  0.
         23    2    4    4    0    0 -0.37799878438E+03 -0.30082013330E+03  0.14419631103E+03  0.51170995262E+03  0.87627997241E+02 0.  0.
         23    2    4    4    0    0  0.48761871122E+03 -0.37746369851E+03 -0.47389829165E+02  0.62582053250E+03  0.95680153482E+02 0.  0.
          1    1    3    3  502    0 -0.11258866454E+03  0.46039768254E+03  0.55864861615E+03  0.73261893901E+03  0.00000000000E+00 0. -1.
         -1    1    3    3    0  502  0.29687376996E+01  0.21788614927E+03  0.30484493243E+03  0.37471805437E+03  0.00000000000E+00 0.  1.
         13    1    5    5    0    0 -0.12174705935E+02 -0.35369409900E+02  0.22404394894E+02  0.43602471626E+02  0.00000000000E+00 0. -1.
        -13    1    5    5    0    0 -0.36582407844E+03 -0.26545072340E+03  0.12179191614E+03  0.46810748099E+03  0.00000000000E+00 0.  1.
          2    1    6    6  503    0  0.53308317013E+02 -0.66341121200E+02 -0.33290509711E+02  0.91384785723E+02  0.00000000000E+00 0. -1.
         -2    1    6    6    0  503  0.43431039420E+03 -0.31112257731E+03 -0.14099319454E+02  0.53443574678E+03  0.00000000000E+00 0.  1.
<mgrwt>
<rscale>  0 0.20291017E+04</rscale>
<asrwt>0</asrwt>
<pdfrwt beam="1">  1        1 0.24655135E+00 0.20291017E+04</pdfrwt>
<pdfrwt beam="2">  1       -1 0.98812881E-01 0.20291017E+04</pdfrwt>
<totfact> 0.50365200E+00</totfact>
</mgrwt>
</event>
<event>
12    3  0.4773567E-008  0.1293132E+04  0.7818608E-02  0.9035030E-01
          1   -1    0    0  501    0  0.00000000000E+00  0.00000000000E+00  0.12781380174E+04  0.12781380174E+04  0.00000000000E+00 0. -1.
         -1   -1    0    0    0  501 -0.00000000000E+00 -0.00000000000E+00 -0.32707522890E+03  0.32707522890E+03  0.00000000000E+00 0.  1.
         23    2    1    2    0    0  0.55029290654E+02  0.10886641273E+03  0.61334877450E+03  0.63201430149E+03  0.91461682965E+02 0.  0.
        254    2    1    2    0    0 -0.55029290654E+02 -0.10886641273E+03  0.33771401400E+03  0.97319894482E+03  0.90453596517E+03 0.  0.
         23    2    4    4    0    0  0.13718873865E+02  0.35692641219E+03 -0.26435513981E+02  0.37141422415E+03  0.98310824853E+02 0.  0.
         23    2    4    4    0    0 -0.68748164519E+02 -0.46579282492E+03  0.36414952798E+03  0.60178472067E+03  0.88604206617E+02 0.  0.
          4    1    3    3  502    0  0.25960997573E+02  0.11843895847E+03  0.51097537158E+03  0.52516434632E+03  0.00000000000E+00 0. -1.
         -4    1    3    3    0  502  0.29068293082E+02 -0.95725457404E+01  0.10237340292E+03  0.10684995517E+03  0.00000000000E+00 0.  1.
         13    1    5    5    0    0 -0.27982495028E+02  0.31065039089E+02  0.28211310850E+00  0.41810719552E+02  0.00000000000E+00 0. -1.
        -13    1    5    5    0    0  0.41701368894E+02  0.32586137310E+03 -0.26717627090E+02  0.32960350460E+03  0.00000000000E+00 0.  1.
          3    1    6    6  503    0  0.41761635429E+01 -0.10277954432E+02  0.30506391371E+02  0.32461001274E+02  0.00000000000E+00 0. -1.
         -3    1    6    6    0  503 -0.72924328062E+02 -0.45551487048E+03  0.33364313661E+03  0.56932371939E+03  0.00000000000E+00 0.  1.
<mgrwt>
<rscale>  0 0.12931315E+04</rscale>
<asrwt>0</asrwt>
<pdfrwt beam="1">  1        1 0.19663662E+00 0.12931315E+04</pdfrwt>
<pdfrwt beam="2">  1       -1 0.50319267E-01 0.12931315E+04</pdfrwt>
<totfact> 0.36549772E+01</totfact>
</mgrwt>
</event>
<event>
12    3  0.4773567E-008  0.2031069E+04  0.7818608E-02  0.8592231E-01
          2   -1    0    0  501    0  0.00000000000E+00  0.00000000000E+00  0.29532386025E+04  0.29532386025E+04  0.00000000000E+00 0.  1.
         -2   -1    0    0    0  501 -0.00000000000E+00 -0.00000000000E+00 -0.34921333096E+03  0.34921333096E+03  0.00000000000E+00 0. -1.
         23    2    1    2    0    0 -0.67490134189E+03  0.35755299298E+03  0.14906930526E+04  0.16774001537E+04  0.90385476989E+02 0.  0.
        254    2    1    2    0    0  0.67490134189E+03 -0.35755299298E+03  0.11133322190E+04  0.16250517798E+04  0.90440515987E+03 0.  0.
         23    2    4    4    0    0  0.14459152858E+03  0.28095602314E+03  0.45863030287E+03  0.56399830844E+03  0.88934471009E+02 0.  0.
         23    2    4    4    0    0  0.53030981331E+03 -0.63850901612E+03  0.65470191611E+03  0.10610534714E+04  0.90981363044E+02 0.  0.
          1    1    3    3  502    0 -0.38006221582E+03  0.21600482851E+03  0.94474123708E+03  0.10409809695E+04  0.00000000000E+00 0.  1.
         -1    1    3    3    0  502 -0.29483912607E+03  0.14154816447E+03  0.54595181552E+03  0.63641918419E+03  0.00000000000E+00 0. -1.
         13    1    5    5    0    0  0.47550784832E+01  0.17981088849E+02  0.80675016841E+02  0.82791235466E+02  0.00000000000E+00 0. -1.
        -13    1    5    5    0    0  0.13983645010E+03  0.26297493429E+03  0.37795528603E+03  0.48120707297E+03  0.00000000000E+00 0.  1.
          1    1    6    6  503    0  0.73111021202E+02 -0.12389532150E+03  0.14721418172E+03  0.20583315430E+03  0.00000000000E+00 0. -1.
         -1    1    6    6    0  503  0.45719879210E+03 -0.51461369462E+03  0.50748773439E+03  0.85522031708E+03  0.00000000000E+00 0.  1.
<mgrwt>
<rscale>  0 0.20310690E+04</rscale>
<asrwt>0</asrwt>
<pdfrwt beam="1">  1        2 0.45434438E+00 0.20310690E+04</pdfrwt>
<pdfrwt beam="2">  1       -2 0.53725130E-01 0.20310690E+04</pdfrwt>
<totfact> 0.56445404E+00</totfact>
</mgrwt>
</event>
<event>
12    3  0.4773567E-008  0.1553951E+04  0.7818608E-02  0.8849348E-01
         -2   -1    0    0    0  501 -0.00000000000E+00  0.00000000000E+00  0.24455744499E+03  0.24455744499E+03  0.00000000000E+00 0.  1.
          2   -1    0    0  501    0  0.00000000000E+00 -0.00000000000E+00 -0.24685037911E+04  0.24685037911E+04  0.00000000000E+00 0. -1.
         23    2    1    2    0    0  0.35198567210E+03  0.20871891958E+03 -0.13249317684E+04  0.13896176465E+04  0.90197073034E+02 0.  0.
        254    2    1    2    0    0 -0.35198567210E+03 -0.20871891958E+03 -0.89901457773E+03  0.13234435895E+04  0.88080543989E+03 0.  0.
         23    2    4    4    0    0 -0.35296819631E+02 -0.45091751259E+03 -0.17757973644E+03  0.49418446109E+03  0.90062479132E+02 0.  0.
         23    2    4    4    0    0 -0.31668885247E+03  0.24219859301E+03 -0.72143484129E+03  0.82925912844E+03  0.90832175684E+02 0.  0.
          1    1    3    3  502    0  0.28153238699E+03  0.13769907687E+03 -0.10926907451E+04  0.11367473708E+04  0.00000000000E+00 0. -1.
         -1    1    3    3    0  502  0.70453285114E+02  0.71019842712E+02 -0.23224102332E+03  0.25287027574E+03  0.00000000000E+00 0.  1.
         13    1    5    5    0    0  0.60122930264E+01 -0.62465936685E+02  0.50546607033E+01  0.62957847074E+02  0.00000000000E+00 0. -1.
        -13    1    5    5    0    0 -0.41309112657E+02 -0.38845157591E+03 -0.18263439714E+03  0.43122661401E+03  0.00000000000E+00 0.  1.
          1    1    6    6  503    0 -0.10614107719E+02  0.37298550717E+02 -0.94263110744E+02  0.10192828467E+03  0.00000000000E+00 0. -1.
         -1    1    6    6    0  503 -0.30607474475E+03  0.20490004230E+03 -0.62717173055E+03  0.72733084378E+03  0.00000000000E+00 0.  1.
<mgrwt>
<rscale>  0 0.15539511E+04</rscale>
<asrwt>0</asrwt>
<pdfrwt beam="1">  1        2 0.37976981E+00 0.15539511E+04</pdfrwt>
<pdfrwt beam="2">  1       -2 0.37624222E-01 0.15539511E+04</pdfrwt>
<totfact> 0.23333515E+01</totfact>
</mgrwt>
</event>
<event>
12    3  0.4773567E-008  0.2433382E+04  0.7818608E-02  0.8427110E-01
         -2   -1    0    0    0  501 -0.00000000000E+00  0.00000000000E+00  0.39710512919E+03  0.39710512919E+03  0.00000000000E+00 0.  1.
          2   -1    0    0  501    0  0.00000000000E+00 -0.00000000000E+00 -0.37278226832E+04  0.37278226832E+04  0.00000000000E+00 0. -1.
         23    2    1    2    0    0 -0.10007976338E+03  0.82650239671E+03 -0.25544889488E+04  0.26882152028E+04  0.89246939862E+02 0.  0.
        254    2    1    2    0    0  0.10007976338E+03 -0.82650239671E+03 -0.77622860524E+03  0.14367126096E+04  0.87663567359E+03 0.  0.
         23    2    4    4    0    0  0.46221902328E+03 -0.41380809316E+03 -0.26230765945E+03  0.67989888702E+03  0.92593870905E+02 0.  0.
         23    2    4    4    0    0 -0.36213925990E+03 -0.41269430355E+03 -0.51392094580E+03  0.75681372259E+03  0.84798823208E+02 0.  0.
          1    1    3    3  502    0 -0.16247888249E+02  0.21347848045E+03 -0.54169439425E+03  0.58246877363E+03  0.00000000000E+00 0. -1.
         -1    1    3    3    0  502 -0.83831875129E+02  0.61302391625E+03 -0.20127945546E+04  0.21057464292E+04  0.00000000000E+00 0.  1.
         13    1    5    5    0    0  0.40761819804E+03 -0.39255126434E+03 -0.21801401484E+03  0.60644802018E+03  0.00000000000E+00 0. -1.
        -13    1    5    5    0    0  0.54600825238E+02 -0.21256828814E+02 -0.44293644607E+02  0.73450866846E+02  0.00000000000E+00 0.  1.
          1    1    6    6  503    0 -0.36115783666E+03 -0.38560235820E+03 -0.48515343842E+03  0.71728517372E+03  0.00000000000E+00 0. -1.
         -1    1    6    6    0  503 -0.98142324198E+00 -0.27091945355E+02 -0.28767507374E+02  0.39528548862E+02  0.00000000000E+00 0.  1.
<mgrwt>
<rscale>  0 0.24333824E+04</rscale>
<asrwt>0</asrwt>
<pdfrwt beam="1">  1        2 0.57351119E+00 0.24333824E+04</pdfrwt>
<pdfrwt beam="2">  1       -2 0.61093096E-01 0.24333824E+04</pdfrwt>
<totfact> 0.12475657E+00</totfact>
</mgrwt>
</event>
<event>
12    3  0.4773567E-008  0.1779219E+04  0.7818608E-02  0.8717429E-01
          2   -1    0    0  501    0  0.00000000000E+00  0.00000000000E+00  0.20636524000E+04  0.20636524000E+04  0.00000000000E+00 0. -1.
         -2   -1    0    0    0  501 -0.00000000000E+00 -0.00000000000E+00 -0.38349740770E+03  0.38349740770E+03  0.00000000000E+00 0.  1.
         23    2    1    2    0    0 -0.79377431755E+02 -0.35648711275E+03 -0.12538024980E+03  0.39667290716E+03  0.90803909634E+02 0.  0.
        254    2    1    2    0    0  0.79377431755E+02  0.35648711275E+03  0.18055352421E+04  0.20504769005E+04  0.90061877116E+03 0.  0.
         23    2    4    4    0    0  0.18239357351E+03  0.59125909208E+03  0.15712675060E+04  0.16917484728E+04  0.10137351711E+03 0.  0.
         23    2    4    4    0    0 -0.10301614176E+03 -0.23477197933E+03  0.23426773603E+03  0.35872842774E+03  0.89858249376E+02 0.  0.
          3    1    3    3  502    0 -0.15506842096E+02 -0.19235530498E+03 -0.10411152743E+03  0.21927205853E+03  0.00000000000E+00 0. -1.
         -3    1    3    3    0  502 -0.63870589659E+02 -0.16413180777E+03 -0.21268722373E+02  0.17740084863E+03  0.00000000000E+00 0.  1.
         13    1    5    5    0    0  0.17806498102E+03  0.49125497724E+03  0.13849487104E+04  0.14802437369E+04  0.00000000000E+00 0. -1.
        -13    1    5    5    0    0  0.43285924980E+01  0.10000411484E+03  0.18631879564E+03  0.21150473590E+03  0.00000000000E+00 0.  1.
          3    1    6    6  503    0 -0.11884349985E+03 -0.21041511560E+03  0.21788153080E+03  0.32537771865E+03  0.00000000000E+00 0. -1.
         -3    1    6    6    0  503  0.15827358090E+02 -0.24356863729E+02  0.16386205229E+02  0.33350709087E+02  0.00000000000E+00 0.  1.
<mgrwt>
<rscale>  0 0.17792193E+04</rscale>
<asrwt>0</asrwt>
<pdfrwt beam="1">  1        2 0.31748498E+00 0.17792193E+04</pdfrwt>
<pdfrwt beam="2">  1       -2 0.58999603E-01 0.17792193E+04</pdfrwt>
<totfact> 0.15626625E+01</totfact>
</mgrwt>
</event>
<event>
12    3  0.4773567E-008  0.2089744E+04  0.7818608E-02  0.8565775E-01
          2   -1    0    0  501    0  0.00000000000E+00  0.00000000000E+00  0.11934142476E+04  0.11934142476E+04  0.00000000000E+00 0. -1.
         -2   -1    0    0    0  501 -0.00000000000E+00 -0.00000000000E+00 -0.91481846052E+03  0.91481846052E+03  0.00000000000E+00 0.  1.
         23    2    1    2    0    0 -0.18676175794E+03 -0.53780436473E+03  0.74548466023E+03  0.94275131653E+03  0.94441395710E+02 0.  0.
        254    2    1    2    0    0  0.18676175794E+03  0.53780436473E+03 -0.46688887312E+03  0.11654813916E+04  0.90346453469E+03 0.  0.
         23    2    4    4    0    0  0.15734968834E+03  0.77768343495E+03 -0.28353587052E+03  0.84752893164E+03  0.91445342542E+02 0.  0.
         23    2    4    4    0    0  0.29412069601E+02 -0.23987907023E+03 -0.18335300260E+03  0.31795245998E+03  0.95228173759E+02 0.  0.
          3    1    3    3  502    0 -0.12422808298E+03 -0.46404700530E+03  0.62182412518E+03  0.78577190226E+03  0.00000000000E+00 0. -1.
         -3    1    3    3    0  502 -0.62533674959E+02 -0.73757359426E+02  0.12366053506E+03  0.15697941427E+03  0.00000000000E+00 0.  1.
         13    1    5    5    0    0  0.83582484567E+02  0.27333844272E+03 -0.66087752035E+02  0.29337267590E+03  0.00000000000E+00 0.  1.
        -13    1    5    5    0    0  0.73767203774E+02  0.50434499223E+03 -0.21744811849E+03  0.55415625574E+03  0.00000000000E+00 0. -1.
          2    1    6    6  503    0  0.98074910605E+01  0.10041050691E+01 -0.30352954346E+02  0.31913898938E+02  0.00000000000E+00 0. -1.
         -2    1    6    6    0  503  0.19604578541E+02 -0.24088317530E+03 -0.15300004825E+03  0.28603856105E+03  0.00000000000E+00 0.  1.
<mgrwt>
<rscale>  0 0.20897439E+04</rscale>
<asrwt>0</asrwt>
<pdfrwt beam="1">  1        2 0.18360219E+00 0.20897439E+04</pdfrwt>
<pdfrwt beam="2">  1       -2 0.14074130E+00 0.20897439E+04</pdfrwt>
<totfact> 0.62458283E+00</totfact>
</mgrwt>
</event>
<event>
12    3  0.4773567E-008  0.1182018E+04  0.7818608E-02  0.9128743E-01
          2   -1    0    0  501    0  0.00000000000E+00  0.00000000000E+00  0.26533755161E+04  0.26533755161E+04  0.00000000000E+00 0. -1.
         -2   -1    0    0    0  501 -0.00000000000E+00 -0.00000000000E+00 -0.13164055358E+03  0.13164055358E+03  0.00000000000E+00 0.  1.
         23    2    1    2    0    0 -0.13015068097E+03  0.17819544085E+03  0.34207307913E+03  0.41676904133E+03  0.89384715937E+02 0.  0.
        254    2    1    2    0    0  0.13015068097E+03 -0.17819544085E+03  0.21796618834E+04  0.23682470283E+04  0.89943051231E+03 0.  0.
         23    2    4    4    0    0  0.45191824972E+03  0.92614619565E+02  0.14097629960E+04  0.14862721162E+04  0.93624390250E+02 0.  0.
         23    2    4    4    0    0 -0.32176756875E+03 -0.27081006042E+03  0.76989888739E+03  0.88197491210E+03  0.90900999195E+02 0.  0.
          3    1    3    3  502    0 -0.10035661288E+03  0.13969034230E+03  0.32003375795E+03  0.36332691575E+03  0.00000000000E+00 0. -1.
         -3    1    3    3    0  502 -0.29794068091E+02  0.38505098550E+02  0.22039321180E+02  0.53442125573E+02  0.00000000000E+00 0.  1.
         13    1    5    5    0    0  0.86557255333E+02  0.31049932172E+02  0.18342618312E+03  0.20518630898E+03  0.00000000000E+00 0. -1.
        -13    1    5    5    0    0  0.36536099439E+03  0.61564687393E+02  0.12263368128E+04  0.12810858072E+04  0.00000000000E+00 0.  1.
          1    1    6    6  503    0 -0.80705783501E+02 -0.21940124934E+02  0.15942530107E+03  0.18003116173E+03  0.00000000000E+00 0. -1.
         -1    1    6    6    0  503 -0.24106178524E+03 -0.24886993548E+03  0.61047358632E+03  0.70194375038E+03  0.00000000000E+00 0.  1.
<mgrwt>
<rscale>  0 0.11820183E+04</rscale>
<asrwt>0</asrwt>
<pdfrwt beam="1">  1        2 0.40821158E+00 0.11820183E+04</pdfrwt>
<pdfrwt beam="2">  1       -2 0.20252395E-01 0.11820183E+04</pdfrwt>
<totfact> 0.58992755E+01</totfact>
</mgrwt>
</event>
<event>
12    3  0.4773567E-008  0.2281729E+04  0.7818608E-02  0.8485160E-01
          2   -1    0    0  501    0  0.00000000000E+00  0.00000000000E+00  0.65112545788E+03  0.65112545788E+03  0.00000000000E+00 0. -1.
         -2   -1    0    0    0  501 -0.00000000000E+00 -0.00000000000E+00 -0.19989572571E+04  0.19989572571E+04  0.00000000000E+00 0.  1.
         23    2    1    2    0    0 -0.25591283874E+03  0.92873897080E+03 -0.53170075583E+03  0.11040708169E+04  0.90659902722E+02 0.  0.
        254    2    1    2    0    0  0.25591283874E+03 -0.92873897080E+03 -0.81613104342E+03  0.15460118982E+04  0.89220818888E+03 0.  0.
         23    2    4    4    0    0 -0.19689559354E+03 -0.13756644910E+03 -0.52649661826E+03  0.58519763036E+03  0.86978013704E+02 0.  0.
         23    2    4    4    0    0  0.45280843228E+03 -0.79117252170E+03 -0.28963442517E+03  0.96081426780E+03  0.91030333022E+02 0.  0.
          4    1    3    3  502    0 -0.27914840190E+02  0.81455915655E+02 -0.20212333517E+02  0.88446836711E+02  0.00000000000E+00 0. -1.
         -4    1    3    3    0  502 -0.22799799855E+03  0.84728305514E+03 -0.51148842231E+03  0.10156239801E+04  0.00000000000E+00 0.  1.
         13    1    5    5    0    0 -0.20552085363E+03 -0.13627912071E+03 -0.50476744093E+03  0.56178375683E+03  0.00000000000E+00 0. -1.
        -13    1    5    5    0    0  0.86252600931E+01 -0.12873283827E+01 -0.21729177327E+02  0.23413873523E+02  0.00000000000E+00 0.  1.
          2    1    6    6  503    0  0.79302697721E+01 -0.34842945251E+02  0.29390422770E+01  0.35854678661E+02  0.00000000000E+00 0.  1.
         -2    1    6    6    0  503  0.44487816250E+03 -0.75632957645E+03 -0.29257346744E+03  0.92495958914E+03  0.00000000000E+00 0. -1.
<mgrwt>
<rscale>  0 0.22817291E+04</rscale>
<asrwt>0</asrwt>
<pdfrwt beam="1">  1        2 0.10017315E+00 0.22817291E+04</pdfrwt>
<pdfrwt beam="2">  1       -2 0.30753188E+00 0.22817291E+04</pdfrwt>
<totfact> 0.11647321E+00</totfact>
</mgrwt>
</event>
<event>
12    3  0.4773567E-008  0.1468477E+04  0.7818608E-02  0.8905690E-01
         -1   -1    0    0    0  501 -0.00000000000E+00  0.00000000000E+00  0.38610435814E+03  0.38610435814E+03  0.00000000000E+00 0.  1.
          1   -1    0    0  501    0  0.00000000000E+00 -0.00000000000E+00 -0.13962704570E+04  0.13962704570E+04  0.00000000000E+00 0. -1.
         23    2    1    2    0    0  0.39397178909E+03 -0.67268283278E+02 -0.58345386657E+03  0.71326016786E+03  0.92643726680E+02 0.  0.
        254    2    1    2    0    0 -0.39397178909E+03  0.67268283278E+02 -0.42671223229E+03  0.10691146473E+04  0.89508882649E+03 0.  0.
         23    2    4    4    0    0 -0.62552765008E+03  0.10033580481E+03 -0.86945150533E+02  0.64612206534E+03  0.92531883048E+02 0.  0.
         23    2    4    4    0    0  0.23155586098E+03 -0.33067521528E+02 -0.33976708176E+03  0.42299258194E+03  0.93645484671E+02 0.  0.
          1    1    3    3  502    0  0.37704140302E+03 -0.42099244347E+02 -0.54931057896E+03  0.66758870431E+03  0.00000000000E+00 0. -1.
         -1    1    3    3    0  502  0.16930386075E+02 -0.25169038931E+02 -0.34143287611E+02  0.45671463544E+02  0.00000000000E+00 0.  1.
         13    1    5    5    0    0 -0.36586855890E+03  0.10302600205E+03 -0.63861763605E+02  0.38542506968E+03  0.00000000000E+00 0. -1.
        -13    1    5    5    0    0 -0.25965909118E+03 -0.26901972421E+01 -0.23083386928E+02  0.26069699566E+03  0.00000000000E+00 0.  1.
          3    1    6    6  503    0 -0.21450789398E+01  0.42229927964E+01  0.36145742936E+01  0.59582026771E+01  0.00000000000E+00 0. -1.
         -3    1    6    6    0  503  0.23370093992E+03 -0.37290514325E+02 -0.34338165605E+03  0.41703437927E+03  0.00000000000E+00 0.  1.
<mgrwt>
<rscale>  0 0.14684769E+04</rscale>
<asrwt>0</asrwt>
<pdfrwt beam="1">  1        1 0.21481084E+00 0.14684769E+04</pdfrwt>
<pdfrwt beam="2">  1       -1 0.59400671E-01 0.14684769E+04</pdfrwt>
<totfact> 0.21535263E+01</totfact>
</mgrwt>
</event>
<event>
12    3  0.4773567E-008  0.1190966E+04  0.7818608E-02  0.9120801E-01
          1   -1    0    0  501    0  0.00000000000E+00  0.00000000000E+00  0.19418205371E+04  0.19418205371E+04  0.00000000000E+00 0. -1.
         -1   -1    0    0    0  501 -0.00000000000E+00 -0.00000000000E+00 -0.18261209090E+03  0.18261209090E+03  0.00000000000E+00 0.  1.
         23    2    1    2    0    0 -0.18890386278E+03 -0.98561751648E+02  0.18406690851E+03  0.29698663565E+03  0.94452880773E+02 0.  0.
        254    2    1    2    0    0  0.18890386278E+03  0.98561751648E+02  0.15751415377E+04  0.18274459924E+04  0.90171442427E+03 0.  0.
         23    2    4    4    0    0  0.50022845261E+03 -0.30863486488E+02  0.57650249508E+03  0.76943420600E+03  0.92156448140E+02 0.  0.
         23    2    4    4    0    0 -0.31132458982E+03  0.12942523814E+03  0.99863904267E+03  0.10580117864E+04  0.91842855577E+02 0.  0.
          3    1    3    3  502    0 -0.76284824405E+02 -0.89553671914E+02  0.11531811380E+03  0.16473464104E+03  0.00000000000E+00 0. -1.
         -3    1    3    3    0  502 -0.11261903838E+03 -0.90080797341E+01  0.68748794713E+02  0.13225199462E+03  0.00000000000E+00 0.  1.
         13    1    5    5    0    0  0.19301040141E+03  0.28780690415E+02  0.25034334853E+03  0.31741634385E+03  0.00000000000E+00 0.  1.
        -13    1    5    5    0    0  0.30721805120E+03 -0.59644176903E+02  0.32615914655E+03  0.45201786214E+03  0.00000000000E+00 0. -1.
          1    1    6    6  503    0 -0.24434392087E+03  0.14003226571E+03  0.80463415355E+03  0.85249581123E+03  0.00000000000E+00 0. -1.
         -1    1    6    6    0  503 -0.66980668952E+02 -0.10607027574E+02  0.19400488911E+03  0.20551597516E+03  0.00000000000E+00 0.  1.
<mgrwt>
<rscale>  0 0.11909658E+04</rscale>
<asrwt>0</asrwt>
<pdfrwt beam="1">  1        1 0.29874161E+00 0.11909658E+04</pdfrwt>
<pdfrwt beam="2">  1       -1 0.28094169E-01 0.11909658E+04</pdfrwt>
<totfact> 0.37055484E+01</totfact>
</mgrwt>
</event>
<event>
12    3  0.4773567E-008  0.3664832E+04  0.7818608E-02  0.8075801E-01
          2   -1    0    0  501    0  0.00000000000E+00  0.00000000000E+00  0.20480721110E+04  0.20480721110E+04  0.00000000000E+00 0. -1.
         -2   -1    0    0    0  501 -0.00000000000E+00 -0.00000000000E+00 -0.16394676362E+04  0.16394676362E+04  0.00000000000E+00 0.  1.
         23    2    1    2    0    0 -0.99006978290E+03  0.10670350848E+03  0.16055249708E+04  0.18913127842E+04  0.87919292764E+02 0.  0.
        254    2    1    2    0    0  0.99006978290E+03 -0.10670350848E+03 -0.11969204960E+04  0.17962269630E+04  0.89564994010E+03 0.  0.
         23    2    4    4    0    0  0.98232964223E+03 -0.37474761645E+03 -0.91348788180E+03  0.13957087250E+04  0.90196633763E+02 0.  0.
         23    2    4    4    0    0  0.77401406700E+01  0.26804410797E+03 -0.28343261418E+03  0.40051823803E+03  0.90406076209E+02 0.  0.
          1    1    3    3  502    0 -0.65427579964E+03  0.32271800059E+02  0.10851208261E+04  0.12675194272E+04  0.00000000000E+00 0. -1.
         -1    1    3    3    0  502 -0.33579398326E+03  0.74431708417E+02  0.52040414470E+03  0.62379335699E+03  0.00000000000E+00 0.  1.
         13    1    5    5    0    0  0.28665687747E+03 -0.13736629080E+03 -0.23411685565E+03  0.39478141465E+03  0.00000000000E+00 0.  1.
        -13    1    5    5    0    0  0.69567276476E+03 -0.23738132565E+03 -0.67937102615E+03  0.10009273103E+04  0.00000000000E+00 0. -1.
          1    1    6    6  503    0 -0.31664115620E+02  0.17861527350E+03 -0.15155820859E+03  0.23638088487E+03  0.00000000000E+00 0. -1.
         -1    1    6    6    0  503  0.39404256290E+02  0.89428834479E+02 -0.13187440560E+03  0.16413735316E+03  0.00000000000E+00 0.  1.
<mgrwt>
<rscale>  0 0.36648318E+04</rscale>
<asrwt>0</asrwt>
<pdfrwt beam="1">  1        2 0.31508802E+00 0.36648318E+04</pdfrwt>
<pdfrwt beam="2">  1       -2 0.25222579E+00 0.36648318E+04</pdfrwt>
<totfact> 0.31712953E-01</totfact>
</mgrwt>
</event>
<event>
12    3  0.4773567E-008  0.1904924E+04  0.7818608E-02  0.8652409E-01
         -2   -1    0    0    0  501 -0.00000000000E+00  0.00000000000E+00  0.33242178130E+03  0.33242178130E+03  0.00000000000E+00 0.  1.
          2   -1    0    0  501    0  0.00000000000E+00 -0.00000000000E+00 -0.27290144038E+04  0.27290144038E+04  0.00000000000E+00 0. -1.
         23    2    1    2    0    0  0.49623586236E+03  0.33139105666E+03 -0.26418038612E+03  0.65953240297E+03  0.95507332792E+02 0.  0.
        254    2    1    2    0    0 -0.49623586236E+03 -0.33139105666E+03 -0.21324122364E+04  0.24019037821E+04  0.93053198184E+03 0.  0.
         23    2    4    4    0    0 -0.36280839837E+03 -0.64757616536E+03 -0.15221308643E+04  0.16959480026E+04  0.91501015076E+02 0.  0.
         23    2    4    4    0    0 -0.13342746399E+03  0.31618510870E+03 -0.61028137210E+03  0.70595577950E+03  0.90301153778E+02 0.  0.
          1    1    3    3  502    0  0.11453579577E+03  0.31526550702E+02 -0.57085269061E+02  0.13179946835E+03  0.00000000000E+00 0. -1.
         -1    1    3    3    0  502  0.38170006659E+03  0.29986450596E+03 -0.20709511706E+03  0.52773293462E+03  0.00000000000E+00 0.  1.
         13    1    5    5    0    0 -0.17130547066E+03 -0.39797738256E+03 -0.88829303484E+03  0.98832994342E+03  0.00000000000E+00 0. -1.
        -13    1    5    5    0    0 -0.19150292771E+03 -0.24959878280E+03 -0.63383782942E+03  0.70761805920E+03  0.00000000000E+00 0.  1.
          4    1    6    6  503    0 -0.96343612527E+02  0.29239231183E+03 -0.49970569311E+03  0.58692515317E+03  0.00000000000E+00 0.  1.
         -4    1    6    6    0  503 -0.37083851467E+02  0.23792796865E+02 -0.11057567899E+03  0.11903062633E+03  0.00000000000E+00 0. -1.
<mgrwt>
<rscale>  0 0.19049240E+04</rscale>
<asrwt>0</asrwt>
<pdfrwt beam="1">  1        2 0.41984837E+00 0.19049240E+04</pdfrwt>
<pdfrwt beam="2">  1       -2 0.51141812E-01 0.19049240E+04</pdfrwt>
<totfact> 0.86456607E+00</totfact>
</mgrwt>
</event>
<event>
12    3  0.4773567E-008  0.1510145E+04  0.7818608E-02  0.8877734E-01
         -1   -1    0    0    0  501 -0.00000000000E+00  0.00000000000E+00  0.86698863809E+03  0.86698863809E+03  0.00000000000E+00 0.  1.
          1   -1    0    0  501    0  0.00000000000E+00 -0.00000000000E+00 -0.65760352881E+03  0.65760352881E+03  0.00000000000E+00 0. -1.
         23    2    1    2    0    0 -0.69703306976E+01  0.25897326194E+03  0.45784729778E+03  0.53407851843E+03  0.92195335311E+02 0.  0.
        254    2    1    2    0    0  0.69703306976E+01 -0.25897326194E+03 -0.24846218850E+03  0.99051364847E+03  0.92318367229E+03 0.  0.
         23    2    4    4    0    0  0.26343573274E+03 -0.91319885846E+02 -0.50134279697E+03  0.58290422481E+03  0.10341677032E+03 0.  0.
         23    2    4    4    0    0 -0.25646540204E+03 -0.16765337609E+03  0.25288060847E+03  0.40760942367E+03  0.91184884521E+02 0.  0.
          1    1    3    3  502    0 -0.11628404089E+02  0.40575115944E+02  0.24546863421E+02  0.48827331684E+02  0.00000000000E+00 0. -1.
         -1    1    3    3    0  502  0.46580733910E+01  0.21839814599E+03  0.43330043436E+03  0.48525118674E+03  0.00000000000E+00 0.  1.
         13    1    5    5    0    0  0.25542275393E+03 -0.57777129317E+02 -0.42619692550E+03  0.50022274959E+03  0.00000000000E+00 0.  1.
        -13    1    5    5    0    0  0.80129788076E+01 -0.33542756528E+02 -0.75145871472E+02  0.82681475218E+02  0.00000000000E+00 0. -1.
          1    1    6    6  503    0 -0.23953444396E+02 -0.39970622856E+02  0.74753218986E+02  0.88087808116E+02  0.00000000000E+00 0. -1.
         -1    1    6    6    0  503 -0.23251195764E+03 -0.12768275324E+03  0.17812738949E+03  0.31952161555E+03  0.00000000000E+00 0.  1.
<mgrwt>
<rscale>  0 0.15101454E+04</rscale>
<asrwt>0</asrwt>
<pdfrwt beam="1">  1        1 0.10116977E+00 0.15101454E+04</pdfrwt>
<pdfrwt beam="2">  1       -1 0.13338287E+00 0.15101454E+04</pdfrwt>
<totfact> 0.13748490E+01</totfact>
</mgrwt>
</event>
<event>
12    3  0.4773567E-008  0.4708331E+04  0.7818608E-02  0.7875146E-01
          1   -1    0    0  501    0  0.00000000000E+00  0.00000000000E+00  0.43992879569E+04  0.43992879569E+04  0.00000000000E+00 0. -1.
         -1   -1    0    0    0  501 -0.00000000000E+00 -0.00000000000E+00 -0.12597707367E+04  0.12597707367E+04  0.00000000000E+00 0.  1.
         23    2    1    2    0    0 -0.11905029780E+04 -0.73762598049E+03  0.36008116341E+04  0.38649300639E+04  0.10222791615E+03 0.  0.
        254    2    1    2    0    0  0.11905029780E+04  0.73762598049E+03 -0.46129441391E+03  0.17941286298E+04  0.10221132893E+04 0.  0.
         23    2    4    4    0    0  0.99419107048E+03  0.65544562186E+02 -0.11366559283E+03  0.10069339659E+04  0.91017418563E+02 0.  0.
         23    2    4    4    0    0  0.19631190748E+03  0.67208141831E+03 -0.34762882108E+03  0.78719466384E+03  0.92724558130E+02 0.  0.
          1    1    3    3  502    0 -0.33786924737E+03 -0.26465865714E+03  0.10946672148E+04  0.11757959620E+04  0.00000000000E+00 0. -1.
         -1    1    3    3    0  502 -0.85263373059E+03 -0.47296732335E+03  0.25061444193E+04  0.26891341018E+04  0.00000000000E+00 0.  1.
         13    1    5    5    0    0  0.95528448478E+03  0.44997507538E+02 -0.10500852559E+03  0.96209147850E+03  0.00000000000E+00 0. -1.
        -13    1    5    5    0    0  0.38906585699E+02  0.20547054648E+02 -0.86570672419E+01  0.44842487428E+02  0.00000000000E+00 0.  1.
          1    1    6    6  503    0  0.62576706329E+02  0.37494097911E+03 -0.17567810569E+03  0.41875933280E+03  0.00000000000E+00 0. -1.
         -1    1    6    6    0  503  0.13373520115E+03  0.29714043919E+03 -0.17195071538E+03  0.36843533103E+03  0.00000000000E+00 0.  1.
<mgrwt>
<rscale>  0 0.47083306E+04</rscale>
<asrwt>0</asrwt>
<pdfrwt beam="1">  1        1 0.67681352E+00 0.47083306E+04</pdfrwt>
<pdfrwt beam="2">  1       -1 0.19381088E+00 0.47083306E+04</pdfrwt>
<totfact> 0.49659961E-03</totfact>
</mgrwt>
</event>
<event>
12    3  0.4773567E-008  0.2085662E+04  0.7818608E-02  0.8567586E-01
         -2   -1    0    0    0  501 -0.00000000000E+00  0.00000000000E+00  0.11010588388E+04  0.11010588388E+04  0.00000000000E+00 0.  1.
          2   -1    0    0  501    0  0.00000000000E+00 -0.00000000000E+00 -0.98768242170E+03  0.98768242170E+03  0.00000000000E+00 0. -1.
         23    2    1    2    0    0 -0.40929034029E+03 -0.77963359044E+02 -0.68870831646E+03  0.81001632729E+03  0.90611463352E+02 0.  0.
        254    2    1    2    0    0  0.40929034029E+03  0.77963359044E+02  0.80208473359E+03  0.12787249332E+04  0.90454445276E+03 0.  0.
         23    2    4    4    0    0  0.14714898408E+03  0.47859322159E+03  0.40212673545E+03  0.64862598801E+03  0.91134327719E+02 0.  0.
         23    2    4    4    0    0  0.26214135621E+03 -0.40062986254E+03  0.39995799814E+03  0.63009894523E+03  0.88520636633E+02 0.  0.
          2    1    3    3  502    0 -0.31822395287E+03 -0.77383618754E+02 -0.46752742549E+03  0.57082098964E+03  0.00000000000E+00 0. -1.
         -2    1    3    3    0  502 -0.91066387419E+02 -0.57974029034E+00 -0.22118089098E+03  0.23919533764E+03  0.00000000000E+00 0.  1.
         13    1    5    5    0    0  0.66595707511E+01  0.16459838910E+03  0.13889996501E+03  0.21547663413E+03  0.00000000000E+00 0. -1.
        -13    1    5    5    0    0  0.14048941333E+03  0.31399483249E+03  0.26322677045E+03  0.43314935388E+03  0.00000000000E+00 0.  1.
          1    1    6    6  503    0  0.10042736653E+03 -0.82545796214E+02  0.10257043864E+03  0.16559033578E+03  0.00000000000E+00 0. -1.
         -1    1    6    6    0  503  0.16171398968E+03 -0.31808406633E+03  0.29738755951E+03  0.46450860946E+03  0.00000000000E+00 0.  1.
<mgrwt>
<rscale>  0 0.20856620E+04</rscale>
<asrwt>0</asrwt>
<pdfrwt beam="1">  1        2 0.15195114E+00 0.20856620E+04</pdfrwt>
<pdfrwt beam="2">  1       -2 0.16939367E+00 0.20856620E+04</pdfrwt>
<totfact> 0.50940647E+00</totfact>
</mgrwt>
</event>
<event>
12    3  0.4773567E-008  0.1578960E+04  0.7818608E-02  0.8833579E-01
          2   -1    0    0  501    0  0.00000000000E+00  0.00000000000E+00  0.32285375355E+04  0.32285375355E+04  0.00000000000E+00 0. -1.
         -2   -1    0    0    0  501 -0.00000000000E+00 -0.00000000000E+00 -0.19305304567E+03  0.19305304567E+03  0.00000000000E+00 0.  1.
         23    2    1    2    0    0 -0.48525091624E+03  0.92309087320E+02  0.14587697902E+04  0.15430113252E+04  0.94261495704E+02 0.  0.
        254    2    1    2    0    0  0.48525091624E+03 -0.92309087320E+02  0.15767146996E+04  0.18785792559E+04  0.89389113296E+03 0.  0.
         23    2    4    4    0    0  0.69904235858E+02  0.10523849350E+03 -0.68222013270E+02  0.16804909131E+03  0.87318447600E+02 0.  0.
         23    2    4    4    0    0  0.41534668038E+03 -0.19754758082E+03  0.16449367129E+04  0.17105301646E+04  0.92513475541E+02 0.  0.
          4    1    3    3  502    0 -0.18716426955E+03  0.28625754754E+02  0.42562969821E+03  0.46584389835E+03  0.00000000000E+00 0. -1.
         -4    1    3    3    0  502 -0.29808664668E+03  0.63683332566E+02  0.10331400920E+04  0.10771674269E+04  0.00000000000E+00 0.  1.
         13    1    5    5    0    0  0.24894210748E+02  0.74424099671E+01 -0.53388214039E+02  0.59375184995E+02  0.00000000000E+00 0. -1.
        -13    1    5    5    0    0  0.45010025110E+02  0.97796083531E+02 -0.14833799231E+02  0.10867390632E+03  0.00000000000E+00 0.  1.
          2    1    6    6  503    0  0.38650675525E+03 -0.20724155285E+03  0.15268265294E+04  0.15885640636E+04  0.00000000000E+00 0.  1.
         -2    1    6    6    0  503  0.28839925122E+02  0.96939720371E+01  0.11811018341E+03  0.12196610103E+03  0.00000000000E+00 0. -1.
<mgrwt>
<rscale>  0 0.15789604E+04</rscale>
<asrwt>0</asrwt>
<pdfrwt beam="1">  1        2 0.49669804E+00 0.15789604E+04</pdfrwt>
<pdfrwt beam="2">  1       -2 0.29700471E-01 0.15789604E+04</pdfrwt>
<totfact> 0.12574526E+01</totfact>
</mgrwt>
</event>
<event>
12    3  0.4773567E-008  0.2648314E+04  0.7818608E-02  0.8351973E-01
         -2   -1    0    0    0  501 -0.00000000000E+00  0.00000000000E+00  0.73152961966E+03  0.73152961966E+03  0.00000000000E+00 0.  1.
          2   -1    0    0  501    0  0.00000000000E+00 -0.00000000000E+00 -0.23968849941E+04  0.23968849941E+04  0.00000000000E+00 0. -1.
         23    2    1    2    0    0 -0.20412007907E+03  0.10702556585E+04 -0.24303574905E+03  0.11200032640E+04  0.90712484243E+02 0.  0.
        254    2    1    2    0    0  0.20412007907E+03 -0.10702556585E+04 -0.14223196254E+04  0.20084113498E+04  0.90753008329E+03 0.  0.
         23    2    4    4    0    0 -0.17363847703E+03 -0.24899153673E+03  0.56787060576E+01  0.31583272166E+03  0.87011230909E+02 0.  0.
         23    2    4    4    0    0  0.37775855609E+03 -0.82126412175E+03 -0.14279983315E+04  0.16925786282E+04  0.92015723852E+02 0.  0.
          3    1    3    3  502    0 -0.38019478626E+02  0.17719950872E+03 -0.65387195172E+01  0.18135021781E+03  0.00000000000E+00 0. -1.
         -3    1    3    3    0  502 -0.16610060044E+03  0.89305614975E+03 -0.23649702954E+03  0.93865304615E+03  0.00000000000E+00 0.  1.
         13    1    5    5    0    0 -0.41171128481E+02 -0.11341412543E+03 -0.26604604136E+02  0.12355416071E+03  0.00000000000E+00 0.  1.
        -13    1    5    5    0    0 -0.13246734855E+03 -0.13557741129E+03  0.32283310193E+02  0.19227856095E+03  0.00000000000E+00 0. -1.
          1    1    6    6  503    0  0.34035482782E+03 -0.75444614244E+03 -0.12544674275E+04  0.15029034957E+04  0.00000000000E+00 0. -1.
         -1    1    6    6    0  503  0.37403728277E+02 -0.66817979307E+02 -0.17353090398E+03  0.18967513248E+03  0.00000000000E+00 0.  1.
<mgrwt>
<rscale>  0 0.26483145E+04</rscale>
<asrwt>0</asrwt>
<pdfrwt beam="1">  1        2 0.36875154E+00 0.26483145E+04</pdfrwt>
<pdfrwt beam="2">  1       -2 0.11254302E+00 0.26483145E+04</pdfrwt>
<totfact> 0.21855268E+00</totfact>
</mgrwt>
</event>
<event>
12    3  0.4773567E-008  0.2487692E+04  0.7818608E-02  0.8407384E-01
         -2   -1    0    0    0  501 -0.00000000000E+00  0.00000000000E+00  0.64384986765E+03  0.64384986765E+03  0.00000000000E+00 0.  1.
          2   -1    0    0  501    0  0.00000000000E+00 -0.00000000000E+00 -0.24029705778E+04  0.24029705778E+04  0.00000000000E+00 0. -1.
         23    2    1    2    0    0  0.92459998529E+03 -0.37232549278E+02 -0.79354729293E+02  0.93281285261E+03  0.87012926698E+02 0.  0.
        254    2    1    2    0    0 -0.92459998529E+03  0.37232549278E+02 -0.16797659809E+04  0.21140075929E+04  0.88946217272E+03 0.  0.
         23    2    4    4    0    0 -0.51484742098E+03 -0.32670165407E+03 -0.44613237720E+03  0.76109193167E+03  0.91787759600E+02 0.  0.
         23    2    4    4    0    0 -0.40975256431E+03  0.36393420334E+03 -0.12336336037E+04  0.13529156612E+04  0.90463527878E+02 0.  0.
          2    1    3    3  502    0  0.19578204214E+01 -0.75318477335E-01 -0.62312031696E+01  0.65319695817E+01  0.00000000000E+00 0. -1.
         -2    1    3    3    0  502  0.92264216487E+03 -0.37157230800E+02 -0.73123526124E+02  0.92628088303E+03  0.00000000000E+00 0.  1.
         13    1    5    5    0    0 -0.22314074557E+03 -0.95939394687E+02 -0.14819912914E+03  0.28453319958E+03  0.00000000000E+00 0. -1.
        -13    1    5    5    0    0 -0.29170667541E+03 -0.23076225938E+03 -0.29793324807E+03  0.47655873209E+03  0.00000000000E+00 0.  1.
          4    1    6    6  503    0 -0.20624819446E+03  0.21717307163E+03 -0.76092031323E+03  0.81774212551E+03  0.00000000000E+00 0.  1.
         -4    1    6    6    0  503 -0.20350436985E+03  0.14676113171E+03 -0.47271329047E+03  0.53517353570E+03  0.00000000000E+00 0. -1.
<mgrwt>
<rscale>  0 0.24876915E+04</rscale>
<asrwt>0</asrwt>
<pdfrwt beam="1">  1        2 0.36968779E+00 0.24876915E+04</pdfrwt>
<pdfrwt beam="2">  1       -2 0.99053824E-01 0.24876915E+04</pdfrwt>
<totfact> 0.29861812E+00</totfact>
</mgrwt>
</event>
<event>
12    3  0.4773567E-008  0.1471070E+04  0.7818608E-02  0.8903922E-01
          2   -1    0    0  501    0  0.00000000000E+00  0.00000000000E+00  0.47838268351E+03  0.47838268351E+03  0.00000000000E+00 0. -1.
         -2   -1    0    0    0  501 -0.00000000000E+00 -0.00000000000E+00 -0.11309183264E+04  0.11309183264E+04  0.00000000000E+00 0.  1.
         23    2    1    2    0    0 -0.23409786859E+03 -0.60791599388E+02 -0.63802148992E+03  0.68679889637E+03  0.78255171220E+02 0.  0.
        254    2    1    2    0    0  0.23409786859E+03  0.60791599388E+02 -0.14514152937E+02  0.92250211352E+03  0.89011350859E+03 0.  0.
         23    2    4    4    0    0  0.14718996385E+03  0.34355736664E+03  0.29828363500E+03  0.48475924731E+03  0.79510070510E+02 0.  0.
         23    2    4    4    0    0  0.86907904734E+02 -0.28276576725E+03 -0.31279778793E+03  0.43774286621E+03  0.79163740078E+02 0.  0.
          1    1    3    3  502    0 -0.14740406768E+03 -0.73724572862E+02 -0.37694636861E+03  0.41140228077E+03  0.00000000000E+00 0. -1.
         -1    1    3    3    0  502 -0.86693800906E+02  0.12932973474E+02 -0.26107512130E+03  0.27539661560E+03  0.00000000000E+00 0.  1.
         13    1    5    5    0    0 -0.22805837400E+01  0.32501680138E+02  0.73881569586E+01  0.33408758391E+02  0.00000000000E+00 0. -1.
        -13    1    5    5    0    0  0.14947054759E+03  0.31105568650E+03  0.29089547804E+03  0.45135048892E+03  0.00000000000E+00 0.  1.
          1    1    6    6  503    0  0.86608537149E+02 -0.15583772158E+03 -0.16500336640E+03  0.24292497833E+03  0.00000000000E+00 0. -1.
         -1    1    6    6    0  503  0.29936758482E+00 -0.12692804567E+03 -0.14779442153E+03  0.19481788788E+03  0.00000000000E+00 0.  1.
<mgrwt>
<rscale>  0 0.14710700E+04</rscale>
<asrwt>0</asrwt>
<pdfrwt beam="1">  1        2 0.73597337E-01 0.14710700E+04</pdfrwt>
<pdfrwt beam="2">  1       -2 0.17398743E+00 0.14710700E+04</pdfrwt>
<totfact> 0.12521902E+01</totfact>
</mgrwt>
</event>
<event>
12    3  0.4773567E-008  0.2988414E+04  0.7818608E-02  0.8247047E-01
          2   -1    0    0  501    0  0.00000000000E+00  0.00000000000E+00  0.47369649674E+04  0.47369649674E+04  0.00000000000E+00 0. -1.
         -2   -1    0    0    0  501 -0.00000000000E+00 -0.00000000000E+00 -0.47132608930E+03  0.47132608930E+03  0.00000000000E+00 0.  1.
         23    2    1    2    0    0  0.63865882737E+02 -0.13582938084E+04  0.18969641266E+04  0.23357306026E+04  0.90131179341E+02 0.  0.
        254    2    1    2    0    0 -0.63865882737E+02  0.13582938084E+04  0.23686747515E+04  0.28725604541E+04  0.88991154805E+03 0.  0.
         23    2    4    4    0    0 -0.16680770905E+03  0.57263356731E+03  0.34028422549E+03  0.69276708607E+03  0.91645333882E+02 0.  0.
         23    2    4    4    0    0  0.10294182631E+03  0.78566024104E+03  0.20283905260E+04  0.21797933681E+04  0.96291055501E+02 0.  0.
          4    1    3    3  502    0  0.25776399576E+02 -0.11454801512E+04  0.15655837297E+04  0.19400622707E+04  0.00000000000E+00 0. -1.
         -4    1    3    3    0  502  0.38089483161E+02 -0.21281365718E+03  0.33138039690E+03  0.39566833189E+03  0.00000000000E+00 0.  1.
         13    1    5    5    0    0 -0.10133113256E+03  0.25854815572E+03  0.20201855494E+03  0.34340449006E+03  0.00000000000E+00 0. -1.
        -13    1    5    5    0    0 -0.65476576493E+02  0.31408541159E+03  0.13826567055E+03  0.34936259601E+03  0.00000000000E+00 0.  1.
          3    1    6    6  503    0  0.18322338806E+02  0.36006307516E+03  0.81632426415E+03  0.89239365218E+03  0.00000000000E+00 0. -1.
         -3    1    6    6    0  503  0.84619487509E+02  0.42559716588E+03  0.12120662619E+04  0.12873997159E+04  0.00000000000E+00 0.  1.
<mgrwt>
<rscale>  0 0.29884144E+04</rscale>
<asrwt>0</asrwt>
<pdfrwt beam="1">  1        2 0.72876381E+00 0.29884144E+04</pdfrwt>
<pdfrwt beam="2">  1       -2 0.72511710E-01 0.29884144E+04</pdfrwt>
<totfact> 0.10308206E-01</totfact>
</mgrwt>
</event>
<event>
12    3  0.4773567E-008  0.1301347E+04  0.7818608E-02  0.9028497E-01
          1   -1    0    0  501    0  0.00000000000E+00  0.00000000000E+00  0.60247676918E+03  0.60247676918E+03  0.00000000000E+00 0. -1.
         -1   -1    0    0    0  501 -0.00000000000E+00 -0.00000000000E+00 -0.70272610588E+03  0.70272610588E+03  0.00000000000E+00 0.  1.
         23    2    1    2    0    0 -0.16899288160E+03  0.11395232978E+01 -0.35786060143E+03  0.40613015241E+03  0.91200866742E+02 0.  0.
        254    2    1    2    0    0  0.16899288160E+03 -0.11395232978E+01  0.25761126474E+03  0.89907272265E+03  0.84463501250E+03 0.  0.
         23    2    4    4    0    0  0.39517519584E+02  0.39417760878E+03  0.11733028455E+02  0.40742383245E+03  0.94439894492E+02 0.  0.
         23    2    4    4    0    0  0.12947536202E+03 -0.39531713208E+03  0.24587823628E+03  0.49164889020E+03  0.90680868299E+02 0.  0.
          3    1    3    3  502    0 -0.63841141793E+02  0.44473802062E+02 -0.13116967128E+03  0.15250932141E+03  0.00000000000E+00 0. -1.
         -3    1    3    3    0  502 -0.10515173981E+03 -0.43334278764E+02 -0.22669093015E+03  0.25362083100E+03  0.00000000000E+00 0.  1.
         13    1    5    5    0    0  0.23523361764E+02  0.30018408056E+03  0.48979958469E+02  0.30506207090E+03  0.00000000000E+00 0.  1.
        -13    1    5    5    0    0  0.15994157820E+02  0.93993528224E+02 -0.37246930013E+02  0.10236176155E+03  0.00000000000E+00 0. -1.
          4    1    6    6  503    0  0.31510464740E+02 -0.15365699621E+03  0.13988112950E+03  0.21016686766E+03  0.00000000000E+00 0. -1.
         -4    1    6    6    0  503  0.97964897277E+02 -0.24166013587E+03  0.10599710678E+03  0.28148202254E+03  0.00000000000E+00 0.  1.
<mgrwt>
<rscale>  0 0.13013472E+04</rscale>
<asrwt>0</asrwt>
<pdfrwt beam="1">  1        1 0.92688734E-01 0.13013472E+04</pdfrwt>
<pdfrwt beam="2">  1       -1 0.10811171E+00 0.13013472E+04</pdfrwt>
<totfact> 0.26603911E+01</totfact>
</mgrwt>
</event>
<event>
12    3  0.4773567E-008  0.2774242E+04  0.7818608E-02  0.8311310E-01
         -1   -1    0    0    0  501 -0.00000000000E+00  0.00000000000E+00  0.12515065075E+04  0.12515065075E+04  0.00000000000E+00 0.  1.
          1   -1    0    0  501    0  0.00000000000E+00 -0.00000000000E+00 -0.15374305601E+04  0.15374305601E+04  0.00000000000E+00 0. -1.
         23    2    1    2    0    0  0.95610358827E+03  0.74183046709E+03 -0.13725900596E+03  0.12213431539E+04  0.91610869172E+02 0.  0.
        254    2    1    2    0    0 -0.95610358827E+03 -0.74183046709E+03 -0.14866504667E+03  0.15675939137E+04  0.98529329070E+03 0.  0.
         23    2    4    4    0    0  0.15151525405E+03  0.46496667899E+01 -0.14576726246E+03  0.22879616504E+03  0.90117138878E+02 0.  0.
         23    2    4    4    0    0 -0.11076188423E+04 -0.74648013388E+03 -0.28977842104E+01  0.13387977486E+04  0.91208138253E+02 0.  0.
          1    1    3    3  502    0  0.50600703849E+03  0.35857761076E+03 -0.32961448704E+02  0.62105352671E+03  0.00000000000E+00 0. -1.
         -1    1    3    3    0  502  0.45009654978E+03  0.38325285633E+03 -0.10429755726E+03  0.60028962715E+03  0.00000000000E+00 0.  1.
         13    1    5    5    0    0  0.49064659767E+02 -0.36626985771E+02 -0.78189911556E+02  0.99310317660E+02  0.00000000000E+00 0.  1.
        -13    1    5    5    0    0  0.10245059428E+03  0.41276652561E+02 -0.67577350903E+02  0.12948584738E+03  0.00000000000E+00 0. -1.
          3    1    6    6  503    0 -0.33184382729E+03 -0.20210036741E+03 -0.38226436748E+02  0.39041791030E+03  0.00000000000E+00 0. -1.
         -3    1    6    6    0  503 -0.77577501503E+03 -0.54437976647E+03  0.35328652538E+02  0.94837983835E+03  0.00000000000E+00 0.  1.
<mgrwt>
<rscale>  0 0.27742418E+04</rscale>
<asrwt>0</asrwt>
<pdfrwt beam="1">  1        1 0.23652778E+00 0.27742418E+04</pdfrwt>
<pdfrwt beam="2">  1       -1 0.19253946E+00 0.27742418E+04</pdfrwt>
<totfact> 0.90688818E-01</totfact>
</mgrwt>
</event>
<event>
12    3  0.4773567E-008  0.1795390E+04  0.7818608E-02  0.8708755E-01
          2   -1    0    0  501    0  0.00000000000E+00  0.00000000000E+00  0.25791497128E+04  0.25791497128E+04  0.00000000000E+00 0. -1.
         -2   -1    0    0    0  501 -0.00000000000E+00 -0.00000000000E+00 -0.31245025031E+03  0.31245025031E+03  0.00000000000E+00 0.  1.
         23    2    1    2    0    0 -0.64948221171E+03 -0.11288057549E+03  0.93221289153E+03  0.11446374170E+04  0.81269758066E+02 0.  0.
        254    2    1    2    0    0  0.64948221171E+03  0.11288057549E+03  0.13344865709E+04  0.17469625461E+04  0.91457889865E+03 0.  0.
         23    2    4    4    0    0  0.58215951027E+03 -0.17040697594E+03  0.32911965445E+03  0.69645988536E+03  0.93746424611E+02 0.  0.
         23    2    4    4    0    0  0.67322701437E+02  0.28328755143E+03  0.10053669165E+04  0.10505026607E+04  0.89493131326E+02 0.  0.
          1    1    3    3  502    0 -0.23464328347E+03 -0.74507947740E+01  0.36657262208E+03  0.43530273612E+03  0.00000000000E+00 0. -1.
         -1    1    3    3    0  502 -0.41483892824E+03 -0.10542978072E+03  0.56564026945E+03  0.70933468086E+03  0.00000000000E+00 0.  1.
         13    1    5    5    0    0  0.57485514925E+03 -0.17009196048E+03  0.33529824339E+03  0.68688763976E+03  0.00000000000E+00 0.  1.
        -13    1    5    5    0    0  0.73043610215E+01 -0.31501545325E+00 -0.61785889331E+01  0.95722456024E+01  0.00000000000E+00 0. -1.
          2    1    6    6  503    0  0.53364891922E+02  0.69157812289E+02  0.23138376383E+03  0.24732379759E+03  0.00000000000E+00 0. -1.
         -2    1    6    6    0  503  0.13957809515E+02  0.21412973914E+03  0.77398315265E+03  0.80317886315E+03  0.00000000000E+00 0.  1.
<mgrwt>
<rscale>  0 0.17953896E+04</rscale>
<asrwt>0</asrwt>
<pdfrwt beam="1">  1        2 0.39679225E+00 0.17953896E+04</pdfrwt>
<pdfrwt beam="2">  1       -2 0.48069271E-01 0.17953896E+04</pdfrwt>
<totfact> 0.12139169E+01</totfact>
</mgrwt>
</event>
<event>
12    3  0.4773567E-008  0.2081105E+04  0.7818608E-02  0.8569613E-01
         -2   -1    0    0    0  501 -0.00000000000E+00  0.00000000000E+00  0.47182470111E+03  0.47182470111E+03  0.00000000000E+00 0.  1.
          2   -1    0    0  501    0  0.00000000000E+00 -0.00000000000E+00 -0.22948140274E+04  0.22948140274E+04  0.00000000000E+00 0. -1.
         23    2    1    2    0    0 -0.83633024349E+03 -0.87838965867E+02 -0.84230915853E+03  0.11940086412E+04  0.94910255774E+02 0.  0.
        254    2    1    2    0    0  0.83633024349E+03  0.87838965867E+02 -0.98068016774E+03  0.15726300873E+04  0.89680981259E+03 0.  0.
         23    2    4    4    0    0  0.88757987007E+03  0.15063684698E+03 -0.41987613035E+03  0.99662464095E+03  0.80468780905E+02 0.  0.
         23    2    4    4    0    0 -0.51249626583E+02 -0.62797881115E+02 -0.56080403740E+03  0.57600544634E+03  0.10349399862E+03 0.  0.
          3    1    3    3  502    0 -0.78027530915E+02  0.18830473115E+02 -0.71881436748E+02  0.10774888977E+03  0.00000000000E+00 0. -1.
         -3    1    3    3    0  502 -0.75830271257E+03 -0.10666943898E+03 -0.77042772179E+03  0.10862597514E+04  0.00000000000E+00 0.  1.
         13    1    5    5    0    0  0.68590268521E+03  0.11754534820E+03 -0.28644165222E+03  0.75254782080E+03  0.00000000000E+00 0.  1.
        -13    1    5    5    0    0  0.20167718486E+03  0.33091498785E+02 -0.13343447812E+03  0.24407682015E+03  0.00000000000E+00 0. -1.
          3    1    6    6  503    0 -0.88318229539E+01  0.27496230850E+02 -0.82509942670E+02  0.87418158566E+02  0.00000000000E+00 0. -1.
         -3    1    6    6    0  503 -0.42417803629E+02 -0.90294111965E+02 -0.47829409473E+03  0.48858728777E+03  0.00000000000E+00 0.  1.
<mgrwt>
<rscale>  0 0.20811054E+04</rscale>
<asrwt>0</asrwt>
<pdfrwt beam="1">  1        2 0.35304832E+00 0.20811054E+04</pdfrwt>
<pdfrwt beam="2">  1       -2 0.72588414E-01 0.20811054E+04</pdfrwt>
<totfact> 0.72316110E+00</totfact>
</mgrwt>
</event>
<event>
12    3  0.4773567E-008  0.1379202E+04  0.7818608E-02  0.8969012E-01
         -1   -1    0    0    0  501 -0.00000000000E+00  0.00000000000E+00  0.14906506056E+04  0.14906506056E+04  0.00000000000E+00 0.  1.
          1   -1    0    0  501    0  0.00000000000E+00 -0.00000000000E+00 -0.31902145084E+03  0.31902145084E+03  0.00000000000E+00 0. -1.
         23    2    1    2    0    0  0.10594339319E+03 -0.60599214780E+02  0.82843104493E+03  0.84224790834E+03  0.90483564870E+02 0.  0.
        254    2    1    2    0    0 -0.10594339319E+03  0.60599214780E+02  0.34319810982E+03  0.96742414808E+03  0.89623003315E+03 0.  0.
         23    2    4    4    0    0  0.38279194931E+03 -0.88759230695E+01  0.85737002504E+02  0.40297814210E+03  0.91826417465E+02 0.  0.
         23    2    4    4    0    0 -0.48873534250E+03  0.69475137849E+02  0.25746110731E+03  0.56444600598E+03  0.92865720831E+02 0.  0.
          4    1    3    3  502    0 -0.51346932588E+01  0.81761352830E+01  0.11866089811E+02  0.15297658332E+02  0.00000000000E+00 0. -1.
         -4    1    3    3    0  502  0.11107808645E+03 -0.68775350063E+02  0.81656495512E+03  0.82695025001E+03  0.00000000000E+00 0.  1.
         13    1    5    5    0    0  0.10690591642E+03  0.38121141567E+02  0.32923405130E+02  0.11817803097E+03  0.00000000000E+00 0.  1.
        -13    1    5    5    0    0  0.27588603289E+03 -0.46997064636E+02  0.52813597375E+02  0.28480011113E+03  0.00000000000E+00 0. -1.
          1    1    6    6  503    0 -0.14956365391E+03  0.63160734693E+02  0.97643963474E+02  0.18945423875E+03  0.00000000000E+00 0. -1.
         -1    1    6    6    0  503 -0.33917168859E+03  0.63144031565E+01  0.15981714384E+03  0.37499176723E+03  0.00000000000E+00 0.  1.
<mgrwt>
<rscale>  0 0.13792020E+04</rscale>
<asrwt>0</asrwt>
<pdfrwt beam="1">  1        1 0.49080224E-01 0.13792020E+04</pdfrwt>
<pdfrwt beam="2">  1       -1 0.22933086E+00 0.13792020E+04</pdfrwt>
<totfact> 0.75376661E+00</totfact>
</mgrwt>
</event>
<event>
12    3  0.4773567E-008  0.1201719E+04  0.7818608E-02  0.9111353E-01
          2   -1    0    0  501    0  0.00000000000E+00  0.00000000000E+00  0.22162692486E+04  0.22162692486E+04  0.00000000000E+00 0. -1.
         -2   -1    0    0    0  501 -0.00000000000E+00 -0.00000000000E+00 -0.16290077885E+03  0.16290077885E+03  0.00000000000E+00 0.  1.
         23    2    1    2    0    0  0.40631064375E+02 -0.57274010871E+02 -0.21559534941E+02  0.11516199368E+03  0.88692026298E+02 0.  0.
        254    2    1    2    0    0 -0.40631064375E+02  0.57274010871E+02  0.20749280047E+04  0.22640080338E+04  0.90303652009E+03 0.  0.
         23    2    4    4    0    0  0.21686835658E+03 -0.33489057943E+03  0.73058391657E+03  0.83729063722E+03  0.90106424605E+02 0.  0.
         23    2    4    4    0    0 -0.25749942095E+03  0.39216459030E+03  0.13443440881E+04  0.14267173966E+04  0.90346470138E+02 0.  0.
          1    1    3    3  502    0  0.52193756888E+02 -0.46151646833E+01  0.90380363108E+01  0.53171177376E+02  0.00000000000E+00 0. -1.
         -1    1    3    3    0  502 -0.11562692513E+02 -0.52658846187E+02 -0.30597571252E+02  0.61990816307E+02  0.00000000000E+00 0.  1.
         13    1    5    5    0    0  0.21521233088E+03 -0.31570646893E+03  0.72053215863E+03  0.81556944125E+03  0.00000000000E+00 0. -1.
        -13    1    5    5    0    0  0.16560256989E+01 -0.19184110497E+02  0.10051757944E+02  0.21721195972E+02  0.00000000000E+00 0.  1.
          3    1    6    6  503    0 -0.22687424738E+03  0.37334095991E+03  0.11746840489E+04  0.12532908725E+04  0.00000000000E+00 0. -1.
         -3    1    6    6    0  503 -0.30625173567E+02  0.18823630386E+02  0.16966003924E+03  0.17342652401E+03  0.00000000000E+00 0.  1.
<mgrwt>
<rscale>  0 0.12017187E+04</rscale>
<asrwt>0</asrwt>
<pdfrwt beam="1">  1        2 0.34096448E+00 0.12017187E+04</pdfrwt>
<pdfrwt beam="2">  1       -2 0.25061660E-01 0.12017187E+04</pdfrwt>
<totfact> 0.71467969E+01</totfact>
</mgrwt>
</event>
<event>
12    3  0.4773567E-008  0.2740336E+04  0.7818608E-02  0.8322035E-01
         -2   -1    0    0    0  501 -0.00000000000E+00  0.00000000000E+00  0.78118319151E+03  0.78118319151E+03  0.00000000000E+00 0.  1.
          2   -1    0    0  501    0  0.00000000000E+00 -0.00000000000E+00 -0.24032261345E+04  0.24032261345E+04  0.00000000000E+00 0. -1.
         23    2    1    2    0    0 -0.68275124702E+03  0.54863634947E+02  0.40263165638E+03  0.79977966490E+03  0.91520368903E+02 0.  0.
        254    2    1    2    0    0  0.68275124702E+03 -0.54863634947E+02 -0.20246745994E+04  0.23846296611E+04  0.10573514570E+04 0.  0.
         23    2    4    4    0    0 -0.11465723395E+03  0.28109164948E+03 -0.95394348741E+03  0.10052063806E+04  0.90955448825E+02 0.  0.
         23    2    4    4    0    0  0.79740848097E+03 -0.33595528442E+03 -0.10707311119E+04  0.13794232805E+04  0.87276767201E+02 0.  0.
          1    1    3    3  502    0 -0.26609536915E+03  0.57161018818E+02  0.12809565788E+03  0.30080329972E+03  0.00000000000E+00 0. -1.
         -1    1    3    3    0  502 -0.41665587787E+03 -0.22973838715E+01  0.27453599850E+03  0.49897636518E+03  0.00000000000E+00 0.  1.
         13    1    5    5    0    0 -0.81745212022E+02  0.16269667499E+03 -0.42840976124E+03  0.46549695086E+03  0.00000000000E+00 0. -1.
        -13    1    5    5    0    0 -0.32912021932E+02  0.11839497448E+03 -0.52553372617E+03  0.53970942971E+03  0.00000000000E+00 0.  1.
          2    1    6    6  503    0  0.57394139244E+03 -0.26211376037E+03 -0.83195674429E+03  0.10441572533E+04  0.00000000000E+00 0. -1.
         -2    1    6    6    0  503  0.22346708854E+03 -0.73841524053E+02 -0.23877436765E+03  0.33526602718E+03  0.00000000000E+00 0.  1.
<mgrwt>
<rscale>  0 0.27403356E+04</rscale>
<asrwt>0</asrwt>
<pdfrwt beam="1">  1        2 0.36972709E+00 0.27403356E+04</pdfrwt>
<pdfrwt beam="2">  1       -2 0.12018203E+00 0.27403356E+04</pdfrwt>
<totfact> 0.18307785E+00</totfact>
</mgrwt>
</event>
<event>
12    3  0.4773567E-008  0.1289748E+04  0.7818608E-02  0.9037735E-01
          2   -1    0    0  501    0  0.00000000000E+00  0.00000000000E+00  0.95570742938E+03  0.95570742938E+03  0.00000000000E+00 0. -1.
         -2   -1    0    0    0  501 -0.00000000000E+00 -0.00000000000E+00 -0.43513570971E+03  0.43513570971E+03  0.00000000000E+00 0.  1.
         23    2    1    2    0    0 -0.20076433256E+01 -0.19732360412E+03 -0.14075144787E+03  0.25909800332E+03  0.91543267768E+02 0.  0.
        254    2    1    2    0    0  0.20076433256E+01  0.19732360412E+03  0.66132316755E+03  0.11317451358E+04  0.89697161885E+03 0.  0.
         23    2    4    4    0    0  0.43824521818E+03  0.98658078779E+02  0.38207462570E+03  0.59747782532E+03  0.95950218239E+02 0.  0.
         23    2    4    4    0    0 -0.43623757485E+03  0.98665525342E+02  0.27924854185E+03  0.53426731045E+03  0.86160915063E+02 0.  0.
          1    1    3    3  502    0  0.91656024628E+01  0.39177259439E+01 -0.24438215100E+02  0.26392862716E+02  0.00000000000E+00 0. -1.
         -1    1    3    3    0  502 -0.11173245788E+02 -0.20124133006E+03 -0.11631323277E+03  0.23270514061E+03  0.00000000000E+00 0.  1.
         13    1    5    5    0    0  0.13351082688E+03  0.18695696192E+02  0.62083648110E+02  0.14842186265E+03  0.00000000000E+00 0. -1.
        -13    1    5    5    0    0  0.30473439130E+03  0.79962382587E+02  0.31999097759E+03  0.44905596267E+03  0.00000000000E+00 0.  1.
          4    1    6    6  503    0 -0.35802695323E+03  0.69496567357E+02  0.26191719050E+03  0.44901412761E+03  0.00000000000E+00 0.  1.
         -4    1    6    6    0  503 -0.78210621624E+02  0.29168957985E+02  0.17331351349E+02  0.85253182840E+02  0.00000000000E+00 0. -1.
<mgrwt>
<rscale>  0 0.12897479E+04</rscale>
<asrwt>0</asrwt>
<pdfrwt beam="1">  1        2 0.14703191E+00 0.12897479E+04</pdfrwt>
<pdfrwt beam="2">  1       -2 0.66943956E-01 0.12897479E+04</pdfrwt>
<totfact> 0.54097946E+01</totfact>
</mgrwt>
</event>
<event>
12    3  0.4773567E-008  0.2992252E+04  0.7818608E-02  0.8245947E-01
          2   -1    0    0  501    0  0.00000000000E+00  0.00000000000E+00  0.14182987054E+04  0.14182987054E+04  0.00000000000E+00 0. -1.
         -2   -1    0    0    0  501 -0.00000000000E+00 -0.00000000000E+00 -0.15782240382E+04  0.15782240382E+04  0.00000000000E+00 0.  1.
         23    2    1    2    0    0 -0.75189205614E+03  0.30164324935E+03  0.10376960936E+04  0.13196693094E+04  0.91561943718E+02 0.  0.
        254    2    1    2    0    0  0.75189205614E+03 -0.30164324935E+03 -0.11976214264E+04  0.16768534342E+04  0.84924086386E+03 0.  0.
         23    2    4    4    0    0  0.65008556216E+03 -0.47886180624E+03 -0.12044647202E+04  0.14527988055E+04  0.89270596416E+02 0.  0.
         23    2    4    4    0    0  0.10180649398E+03  0.17721855688E+03  0.68432938641E+01  0.22405462867E+03  0.91556904925E+02 0.  0.
          3    1    3    3  502    0 -0.57877175071E+03  0.26030721302E+03  0.85291194466E+03  0.10631064716E+04  0.00000000000E+00 0. -1.
         -3    1    3    3    0  502 -0.17312030544E+03  0.41336036333E+02  0.18478414895E+03  0.25656283784E+03  0.00000000000E+00 0.  1.
         13    1    5    5    0    0  0.26719805529E+03 -0.18101854667E+03 -0.55737173547E+03  0.64406969071E+03  0.00000000000E+00 0.  1.
        -13    1    5    5    0    0  0.38288750688E+03 -0.29784325957E+03 -0.64709298477E+03  0.80872911481E+03  0.00000000000E+00 0. -1.
          1    1    6    6  503    0  0.30456617591E+02  0.59855418495E+02 -0.40913094125E+02  0.78639417274E+02  0.00000000000E+00 0. -1.
         -1    1    6    6    0  503  0.71349876389E+02  0.11736313839E+03  0.47756387989E+02  0.14541521140E+03  0.00000000000E+00 0.  1.
<mgrwt>
<rscale>  0 0.29922521E+04</rscale>
<asrwt>0</asrwt>
<pdfrwt beam="1">  1        2 0.21819980E+00 0.29922521E+04</pdfrwt>
<pdfrwt beam="2">  1       -2 0.24280370E+00 0.29922521E+04</pdfrwt>
<totfact> 0.86121717E-01</totfact>
</mgrwt>
</event>
<event>
12    3  0.4773567E-008  0.2988955E+04  0.7818608E-02  0.8246892E-01
         -2   -1    0    0    0  501 -0.00000000000E+00  0.00000000000E+00  0.11608653017E+04  0.11608653017E+04  0.00000000000E+00 0.  1.
          2   -1    0    0  501    0  0.00000000000E+00 -0.00000000000E+00 -0.19239634230E+04  0.19239634230E+04  0.00000000000E+00 0. -1.
         23    2    1    2    0    0 -0.10085416397E+04 -0.60260466073E+03 -0.10525610950E+04  0.15800758008E+04  0.92011202878E+02 0.  0.
        254    2    1    2    0    0  0.10085416397E+04  0.60260466073E+03  0.28946297376E+03  0.15047529239E+04  0.89454118550E+03 0.  0.
         23    2    4    4    0    0  0.55654982298E+03  0.20727654490E+03 -0.28897844671E+03  0.66613562409E+03  0.86699801009E+02 0.  0.
         23    2    4    4    0    0  0.45199181671E+03  0.39532811583E+03  0.57844142047E+03  0.83861729977E+03  0.90019870133E+02 0.  0.
          4    1    3    3  502    0 -0.94871481266E+03 -0.53931715690E+03 -0.97018148006E+03  0.14601968688E+04  0.00000000000E+00 0. -1.
         -4    1    3    3    0  502 -0.59826827035E+02 -0.63287503834E+02 -0.82379614968E+02  0.11987893200E+03  0.00000000000E+00 0.  1.
         13    1    5    5    0    0  0.36768126264E+03  0.17509905705E+03 -0.21715716072E+03  0.46152618899E+03  0.00000000000E+00 0. -1.
        -13    1    5    5    0    0  0.18886856034E+03  0.32177487855E+02 -0.71821285992E+02  0.20460943510E+03  0.00000000000E+00 0.  1.
          1    1    6    6  503    0  0.30228241645E+03  0.25619557461E+03  0.43798281362E+03  0.59062659674E+03  0.00000000000E+00 0. -1.
         -1    1    6    6    0  503  0.14970940027E+03  0.13913254122E+03  0.14045860684E+03  0.24799070303E+03  0.00000000000E+00 0.  1.
<mgrwt>
<rscale>  0 0.29889546E+04</rscale>
<asrwt>0</asrwt>
<pdfrwt beam="1">  1        2 0.29599437E+00 0.29889546E+04</pdfrwt>
<pdfrwt beam="2">  1       -2 0.17859466E+00 0.29889546E+04</pdfrwt>
<totfact> 0.11701920E+00</totfact>
</mgrwt>
</event>
<event>
12    3  0.4773567E-008  0.1374125E+04  0.7818608E-02  0.8972764E-01
         -4   -1    0    0    0  501 -0.00000000000E+00  0.00000000000E+00  0.94644043319E+03  0.94644043319E+03  0.00000000000E+00 0. -1.
          4   -1    0    0  501    0  0.00000000000E+00 -0.00000000000E+00 -0.49876885862E+03  0.49876885862E+03  0.00000000000E+00 0.  1.
         23    2    1    2    0    0  0.41407480329E+03 -0.41007283337E+01  0.31517987050E+03  0.52832593071E+03  0.91187606603E+02 0.  0.
        254    2    1    2    0    0 -0.41407480329E+03  0.41007283337E+01  0.13249170406E+03  0.91688336110E+03  0.80724611335E+03 0.  0.
         23    2    4    4    0    0 -0.21965050836E+03  0.36153024941E+03 -0.91964314467E+02  0.44353923627E+03  0.96535754570E+02 0.  0.
         23    2    4    4    0    0 -0.19442429493E+03 -0.35742952108E+03  0.22445601853E+03  0.47334412483E+03  0.90097099092E+02 0.  0.
          4    1    3    3  502    0  0.72869072254E+02 -0.12702056179E+02  0.18872114188E+02  0.76337412952E+02  0.00000000000E+00 0.  1.
         -4    1    3    3    0  502  0.34120573104E+03  0.86013278448E+01  0.29630775631E+03  0.45198851776E+03  0.00000000000E+00 0. -1.
         13    1    5    5    0    0 -0.14656064816E+03  0.25226531231E+03 -0.10802135649E+03  0.31110516685E+03  0.00000000000E+00 0. -1.
        -13    1    5    5    0    0 -0.73089860202E+02  0.10926493710E+03  0.16057042018E+02  0.13243406942E+03  0.00000000000E+00 0.  1.
          2    1    6    6  503    0 -0.19060629125E+03 -0.30916303382E+03  0.22020991616E+03  0.42474103513E+03  0.00000000000E+00 0. -1.
         -2    1    6    6    0  503 -0.38180036828E+01 -0.48266487253E+02  0.42461023738E+01  0.48603089709E+02  0.00000000000E+00 0.  1.
<mgrwt>
<rscale>  0 0.13741252E+04</rscale>
<asrwt>0</asrwt>
<pdfrwt beam="1">  1        4 0.76733671E-01 0.13741252E+04</pdfrwt>
<pdfrwt beam="2">  1       -4 0.14560622E+00 0.13741252E+04</pdfrwt>
<totfact> 0.95750742E-01</totfact>
</mgrwt>
</event>
<event>
12    3  0.4773567E-008  0.1254190E+04  0.7818608E-02  0.9066703E-01
          1   -1    0    0  501    0  0.00000000000E+00  0.00000000000E+00  0.64175028617E+03  0.64175028617E+03  0.00000000000E+00 0. -1.
         -1   -1    0    0    0  501 -0.00000000000E+00 -0.00000000000E+00 -0.61277395458E+03  0.61277395458E+03  0.00000000000E+00 0.  1.
         23    2    1    2    0    0  0.18563724555E+03 -0.32613319107E+01  0.22974740280E+03  0.31535733413E+03  0.11042896301E+03 0.  0.
        254    2    1    2    0    0 -0.18563724555E+03  0.32613319107E+01 -0.20077107121E+03  0.93916690662E+03  0.89847294463E+03 0.  0.
         23    2    4    4    0    0  0.23349671793E+03 -0.28740707130E+03  0.71881785450E+01  0.38088225890E+03  0.88859908364E+02 0.  0.
         23    2    4    4    0    0 -0.41913396348E+03  0.29066840321E+03 -0.20795924975E+03  0.55828464772E+03  0.90957673436E+02 0.  0.
          2    1    3    3  502    0  0.11170093377E+03  0.17371765583E+02  0.20604838054E+03  0.23502087560E+03  0.00000000000E+00 0. -1.
         -2    1    3    3    0  502  0.73936311781E+02 -0.20633097494E+02  0.23699022258E+02  0.80336458523E+02  0.00000000000E+00 0.  1.
         13    1    5    5    0    0  0.67274281252E+02 -0.13375542000E+03 -0.26442182909E+02  0.15203792400E+03  0.00000000000E+00 0. -1.
        -13    1    5    5    0    0  0.16622243668E+03 -0.15365165129E+03  0.33630361454E+02  0.22884433489E+03  0.00000000000E+00 0.  1.
          2    1    6    6  503    0 -0.10976451677E+03  0.62990607795E+02 -0.12147301665E+02  0.12713623697E+03  0.00000000000E+00 0. -1.
         -2    1    6    6    0  503 -0.30936944671E+03  0.22767779541E+03 -0.19581194809E+03  0.43114841075E+03  0.00000000000E+00 0.  1.
<mgrwt>
<rscale>  0 0.12541896E+04</rscale>
<asrwt>0</asrwt>
<pdfrwt beam="1">  1        1 0.98730813E-01 0.12541896E+04</pdfrwt>
<pdfrwt beam="2">  1       -1 0.94272916E-01 0.12541896E+04</pdfrwt>
<totfact> 0.33352908E+01</totfact>
</mgrwt>
</event>
<event>
12    3  0.4773567E-008  0.2159621E+04  0.7818608E-02  0.8535425E-01
          1   -1    0    0  501    0  0.00000000000E+00  0.00000000000E+00  0.16250526340E+04  0.16250526340E+04  0.00000000000E+00 0. -1.
         -1   -1    0    0    0  501 -0.00000000000E+00 -0.00000000000E+00 -0.71750960541E+03  0.71750960541E+03  0.00000000000E+00 0.  1.
         23    2    1    2    0    0  0.48884606150E+02 -0.63956221265E+03  0.10533549273E+04  0.12364587310E+04  0.88566709342E+02 0.  0.
        254    2    1    2    0    0 -0.48884606150E+02  0.63956221265E+03 -0.14581189870E+03  0.11061035084E+04  0.88925493137E+03 0.  0.
         23    2    4    4    0    0 -0.33056503887E+03  0.33844731912E+03  0.23612079972E+03  0.53639714739E+03  0.90272005215E+02 0.  0.
         23    2    4    4    0    0  0.28168043272E+03  0.30111489353E+03 -0.38193269842E+03  0.56970636103E+03  0.93159574891E+02 0.  0.
          1    1    3    3  502    0  0.64902152089E+02 -0.27570055446E+03  0.46934357825E+03  0.54818471295E+03  0.00000000000E+00 0. -1.
         -1    1    3    3    0  502 -0.16017545939E+02 -0.36386165819E+03  0.58401134908E+03  0.68827401806E+03  0.00000000000E+00 0.  1.
         13    1    5    5    0    0  0.30055310569E+01  0.69161341370E+01 -0.37894935206E+01  0.84395728256E+01  0.00000000000E+00 0.  1.
        -13    1    5    5    0    0 -0.33357056993E+03  0.33153118499E+03  0.23991029324E+03  0.52795757457E+03  0.00000000000E+00 0. -1.
          3    1    6    6  503    0  0.22806963852E+03  0.28829156332E+03 -0.33233687426E+03  0.49555583287E+03  0.00000000000E+00 0. -1.
         -3    1    6    6    0  503  0.53610794205E+02  0.12823330207E+02 -0.49595824159E+02  0.74150528164E+02  0.00000000000E+00 0.  1.
<mgrwt>
<rscale>  0 0.21596211E+04</rscale>
<asrwt>0</asrwt>
<pdfrwt beam="1">  1        1 0.25000810E+00 0.21596211E+04</pdfrwt>
<pdfrwt beam="2">  1       -1 0.11038609E+00 0.21596211E+04</pdfrwt>
<totfact> 0.37138332E+00</totfact>
</mgrwt>
</event>
<event>
12    3  0.4773567E-008  0.1604079E+04  0.7818608E-02  0.8818046E-01
         -2   -1    0    0    0  501 -0.00000000000E+00  0.00000000000E+00  0.33443106610E+03  0.33443106610E+03  0.00000000000E+00 0.  1.
          2   -1    0    0  501    0  0.00000000000E+00 -0.00000000000E+00 -0.19234672472E+04  0.19234672472E+04  0.00000000000E+00 0. -1.
         23    2    1    2    0    0  0.52731838327E+03  0.60499984995E+02 -0.42924310434E+03  0.68820938776E+03  0.87507675464E+02 0.  0.
        254    2    1    2    0    0 -0.52731838327E+03 -0.60499984995E+02 -0.11597930767E+04  0.15696889255E+04  0.91491989622E+03 0.  0.
         23    2    4    4    0    0 -0.52284242001E+03 -0.41607966645E+03 -0.61217159712E+03  0.91085381349E+03  0.91728513754E+02 0.  0.
         23    2    4    4    0    0 -0.44759632578E+01  0.35557968146E+03 -0.54762147962E+03  0.65883511202E+03  0.87849164924E+02 0.  0.
          3    1    3    3  502    0  0.17430024110E+03 -0.55457570125E+01 -0.10021310719E+03  0.20113178844E+03  0.00000000000E+00 0. -1.
         -3    1    3    3    0  502  0.35301814217E+03  0.66045742007E+02 -0.32902999715E+03  0.48707759932E+03  0.00000000000E+00 0.  1.
         13    1    5    5    0    0 -0.29180609189E+02 -0.42637253793E+02 -0.23972483970E+02  0.56957206316E+02  0.00000000000E+00 0. -1.
        -13    1    5    5    0    0 -0.49366181082E+03 -0.37344241266E+03 -0.58819911315E+03  0.85389660718E+03  0.00000000000E+00 0.  1.
          3    1    6    6  503    0 -0.16659432293E+02  0.82718142258E+01 -0.23554732906E+02  0.30013081101E+02  0.00000000000E+00 0. -1.
         -3    1    6    6    0  503  0.12183469035E+02  0.34730786723E+03 -0.52406674672E+03  0.62882203092E+03  0.00000000000E+00 0.  1.
<mgrwt>
<rscale>  0 0.16040788E+04</rscale>
<asrwt>0</asrwt>
<pdfrwt beam="1">  1        2 0.29591804E+00 0.16040788E+04</pdfrwt>
<pdfrwt beam="2">  1       -2 0.51450933E-01 0.16040788E+04</pdfrwt>
<totfact> 0.25212887E+01</totfact>
</mgrwt>
</event>
<event>
12    3  0.4773567E-008  0.2672346E+04  0.7818608E-02  0.8344034E-01
         -1   -1    0    0    0  501 -0.00000000000E+00  0.00000000000E+00  0.16034108661E+04  0.16034108661E+04  0.00000000000E+00 0.  1.
          1   -1    0    0  501    0  0.00000000000E+00 -0.00000000000E+00 -0.11134752985E+04  0.11134752985E+04  0.00000000000E+00 0. -1.
         23    2    1    2    0    0  0.47392777702E+03  0.10731001749E+04  0.61933140154E+02  0.11779603484E+04  0.87197162467E+02 0.  0.
        254    2    1    2    0    0 -0.47392777702E+03 -0.10731001749E+04  0.42800242748E+03  0.15389258162E+04  0.89941929404E+03 0.  0.
         23    2    4    4    0    0 -0.23504506800E+02 -0.62123638826E+03  0.60334969068E+03  0.87137879342E+03  0.93717876805E+02 0.  0.
         23    2    4    4    0    0 -0.45042327022E+03 -0.45186378669E+03 -0.17534726320E+03  0.66754702277E+03  0.88376245799E+02 0.  0.
          1    1    3    3  502    0  0.39420124242E+03  0.93630743450E+03  0.29458109332E+02  0.10163336124E+04  0.00000000000E+00 0. -1.
         -1    1    3    3    0  502  0.79726534600E+02  0.13679274045E+03  0.32475030822E+02  0.16162673599E+03  0.00000000000E+00 0.  1.
         13    1    5    5    0    0  0.16532509120E+02 -0.25401944323E+03  0.29957408465E+03  0.39312063491E+03  0.00000000000E+00 0.  1.
        -13    1    5    5    0    0 -0.40037015920E+02 -0.36721694503E+03  0.30377560603E+03  0.47825815851E+03  0.00000000000E+00 0. -1.
          2    1    6    6  503    0 -0.15520531947E+03 -0.10885776791E+03 -0.28145561344E+02  0.19165301315E+03  0.00000000000E+00 0. -1.
         -2    1    6    6    0  503 -0.29521795075E+03 -0.34300601878E+03 -0.14720170186E+03  0.47589400962E+03  0.00000000000E+00 0.  1.
<mgrwt>
<rscale>  0 0.26723461E+04</rscale>
<asrwt>0</asrwt>
<pdfrwt beam="1">  1        1 0.17130389E+00 0.26723461E+04</pdfrwt>
<pdfrwt beam="2">  1       -1 0.24667860E+00 0.26723461E+04</pdfrwt>
<totfact> 0.79455811E-01</totfact>
</mgrwt>
</event>
<event>
12    3  0.4773567E-008  0.1279440E+04  0.7818608E-02  0.9046030E-01
          1   -1    0    0  501    0  0.00000000000E+00  0.00000000000E+00  0.37416536724E+03  0.37416536724E+03  0.00000000000E+00 0. -1.
         -1   -1    0    0    0  501 -0.00000000000E+00 -0.00000000000E+00 -0.10937451734E+04  0.10937451734E+04  0.00000000000E+00 0.  1.
         23    2    1    2    0    0  0.14833177033E+03  0.28194788333E+03 -0.21057727179E+03  0.39233095411E+03  0.89910328396E+02 0.  0.
        254    2    1    2    0    0 -0.14833177033E+03 -0.28194788333E+03 -0.50900253438E+03  0.10755795865E+04  0.89235135679E+03 0.  0.
         23    2    4    4    0    0 -0.27068990143E+03  0.18441666018E+03 -0.47255814331E+03  0.58319213771E+03  0.97567122474E+02 0.  0.
         23    2    4    4    0    0  0.12235813110E+03 -0.46636454351E+03 -0.36444391065E+02  0.49238744883E+03  0.93004335589E+02 0.  0.
          4    1    3    3  502    0  0.24205255757E+01  0.50961014813E+02 -0.65387675740E+02  0.82936313600E+02  0.00000000000E+00 0. -1.
         -4    1    3    3    0  502  0.14591124476E+03  0.23098686852E+03 -0.14518959605E+03  0.30939464051E+03  0.00000000000E+00 0.  1.
         13    1    5    5    0    0 -0.74210733152E+02  0.81985133537E+02 -0.22661452129E+03  0.25215657099E+03  0.00000000000E+00 0. -1.
        -13    1    5    5    0    0 -0.19647916828E+03  0.10243152664E+03 -0.24594362202E+03  0.33103556672E+03  0.00000000000E+00 0.  1.
          3    1    6    6  503    0  0.83565130042E+02 -0.41750786973E+03 -0.13774789733E+02  0.42601138140E+03  0.00000000000E+00 0. -1.
         -3    1    6    6    0  503  0.38793001054E+02 -0.48856673771E+02 -0.22669601332E+02  0.66376067429E+02  0.00000000000E+00 0.  1.
<mgrwt>
<rscale>  0 0.12794398E+04</rscale>
<asrwt>0</asrwt>
<pdfrwt beam="1">  1        1 0.57563903E-01 0.12794398E+04</pdfrwt>
<pdfrwt beam="2">  1       -1 0.16826849E+00 0.12794398E+04</pdfrwt>
<totfact> 0.16349307E+01</totfact>
</mgrwt>
</event>
<event>
12    3  0.4773567E-008  0.1633717E+04  0.7818608E-02  0.8800098E-01
          1   -1    0    0  501    0  0.00000000000E+00  0.00000000000E+00  0.26918931920E+04  0.26918931920E+04  0.00000000000E+00 0. -1.
         -1   -1    0    0    0  501 -0.00000000000E+00 -0.00000000000E+00 -0.24787663204E+03  0.24787663204E+03  0.00000000000E+00 0.  1.
         23    2    1    2    0    0  0.39044331920E+02 -0.16695399624E+03  0.19065018280E+04  0.19163378605E+04  0.90573057473E+02 0.  0.
        254    2    1    2    0    0 -0.39044331920E+02  0.16695399624E+03  0.53751473200E+03  0.10234319636E+04  0.85386931098E+03 0.  0.
         23    2    4    4    0    0  0.18199717435E+03 -0.25374961363E+03  0.40763185760E+03  0.52260962864E+03  0.97186700386E+02 0.  0.
         23    2    4    4    0    0 -0.22104150627E+03  0.42070360987E+03  0.12988287441E+03  0.50082233493E+03  0.90014305801E+02 0.  0.
          1    1    3    3  502    0  0.45931390517E+02 -0.75449121948E+02  0.58241983981E+03  0.58907990327E+03  0.00000000000E+00 0. -1.
         -1    1    3    3    0  502 -0.68870585966E+01 -0.91504874291E+02  0.13240819882E+04  0.13272579572E+04  0.00000000000E+00 0.  1.
         13    1    5    5    0    0  0.36359513542E+02 -0.49111605504E+01  0.29405171795E+02  0.47019122187E+02  0.00000000000E+00 0. -1.
        -13    1    5    5    0    0  0.14563766081E+03 -0.24883845308E+03  0.37822668580E+03  0.47559050646E+03  0.00000000000E+00 0.  1.
          2    1    6    6  503    0 -0.16337486153E+02  0.81318831598E+02 -0.24310681637E+01  0.82979370440E+02  0.00000000000E+00 0. -1.
         -2    1    6    6    0  503 -0.20470402012E+03  0.33938477827E+03  0.13231394257E+03  0.41784296449E+03  0.00000000000E+00 0.  1.
<mgrwt>
<rscale>  0 0.16337165E+04</rscale>
<asrwt>0</asrwt>
<pdfrwt beam="1">  1        1 0.41413739E+00 0.16337165E+04</pdfrwt>
<pdfrwt beam="2">  1       -1 0.38134868E-01 0.16337165E+04</pdfrwt>
<totfact> 0.63409734E+00</totfact>
</mgrwt>
</event>
<event>
12    3  0.4773567E-008  0.1009829E+04  0.7818608E-02  0.9297830E-01
         -1   -1    0    0    0  501 -0.00000000000E+00  0.00000000000E+00  0.36423269354E+03  0.36423269354E+03  0.00000000000E+00 0.  1.
          1   -1    0    0  501    0  0.00000000000E+00 -0.00000000000E+00 -0.69993321430E+03  0.69993321430E+03  0.00000000000E+00 0. -1.
         23    2    1    2    0    0  0.15136868483E+01  0.25692150389E+02 -0.12282835863E+03  0.15437620820E+03  0.89904561263E+02 0.  0.
        254    2    1    2    0    0 -0.15136868483E+01 -0.25692150389E+02 -0.21287216213E+03  0.90978969963E+03  0.88416082378E+03 0.  0.
         23    2    4    4    0    0 -0.65342998507E+01  0.41490517015E+03 -0.27837475931E+02  0.42444719789E+03  0.84802720669E+02 0.  0.
         23    2    4    4    0    0  0.50206130025E+01 -0.44059732054E+03 -0.18503468620E+03  0.48534250175E+03  0.84665834211E+02 0.  0.
          3    1    3    3  502    0 -0.30623097830E+02 -0.14870798121E+02 -0.80904078226E+02  0.87774624073E+02  0.00000000000E+00 0. -1.
         -3    1    3    3    0  502  0.32136784678E+02  0.40562948510E+02 -0.41924280405E+02  0.66601584131E+02  0.00000000000E+00 0.  1.
         13    1    5    5    0    0 -0.29789690968E+02  0.33312983141E+03  0.16431371834E+01  0.33446316712E+03  0.00000000000E+00 0. -1.
        -13    1    5    5    0    0  0.23255391117E+02  0.81775338747E+02 -0.29480613114E+02  0.89984030765E+02  0.00000000000E+00 0.  1.
          4    1    6    6  503    0  0.33676835412E+02 -0.23295780756E+03 -0.12883412919E+03  0.26833132912E+03  0.00000000000E+00 0. -1.
         -4    1    6    6    0  503 -0.28656222410E+02 -0.20763951299E+03 -0.56200557007E+02  0.21701117262E+03  0.00000000000E+00 0.  1.
<mgrwt>
<rscale>  0 0.10098288E+04</rscale>
<asrwt>0</asrwt>
<pdfrwt beam="1">  1        1 0.10768203E+00 0.10098288E+04</pdfrwt>
<pdfrwt beam="2">  1       -1 0.56035799E-01 0.10098288E+04</pdfrwt>
<totfact> 0.87967169E+01</totfact>
</mgrwt>
</event>
<event>
12    3  0.4773567E-008  0.1119569E+04  0.7818608E-02  0.9186326E-01
          2   -1    0    0  501    0  0.00000000000E+00  0.00000000000E+00  0.26111039191E+03  0.26111039191E+03  0.00000000000E+00 0. -1.
         -2   -1    0    0    0  501 -0.00000000000E+00 -0.00000000000E+00 -0.12000995615E+04  0.12000995615E+04  0.00000000000E+00 0.  1.
         23    2    1    2    0    0  0.14567183106E+02  0.17834457522E+02 -0.36965868323E+03  0.39088255343E+03  0.12494541923E+03 0.  0.
        254    2    1    2    0    0 -0.14567183106E+02 -0.17834457522E+02 -0.56933048636E+03  0.10703274000E+04  0.90605367928E+03 0.  0.
         23    2    4    4    0    0 -0.42910251844E+03  0.71201895616E+02 -0.41999920529E+03  0.61217664866E+03  0.95719566695E+02 0.  0.
         23    2    4    4    0    0  0.41453533534E+03 -0.89036353138E+02 -0.14933128106E+03  0.45815075131E+03  0.88517020953E+02 0.  0.
          3    1    3    3  502    0 -0.26124515013E+02  0.36290285250E+02 -0.45991610383E+02  0.64145953215E+02  0.00000000000E+00 0. -1.
         -3    1    3    3    0  502  0.40691698120E+02 -0.18455827728E+02 -0.32366707284E+03  0.32673660021E+03  0.00000000000E+00 0.  1.
         13    1    5    5    0    0 -0.23734955350E+03  0.10765169162E+02 -0.17412990180E+03  0.29457074212E+03  0.00000000000E+00 0. -1.
        -13    1    5    5    0    0 -0.19175296494E+03  0.60436726454E+02 -0.24586930350E+03  0.31760590654E+03  0.00000000000E+00 0.  1.
          3    1    6    6  503    0  0.98045179480E+01 -0.18526960121E+02  0.18552168360E+00  0.20962138293E+02  0.00000000000E+00 0. -1.
         -3    1    6    6    0  503  0.40473081739E+03 -0.70509393017E+02 -0.14951680275E+03  0.43718861302E+03  0.00000000000E+00 0.  1.
<mgrwt>
<rscale>  0 0.11195686E+04</rscale>
<asrwt>0</asrwt>
<pdfrwt beam="1">  1        2 0.40170829E-01 0.11195686E+04</pdfrwt>
<pdfrwt beam="2">  1       -2 0.18463070E+00 0.11195686E+04</pdfrwt>
<totfact> 0.21408937E+01</totfact>
</mgrwt>
</event>
<event>
12    3  0.4773567E-008  0.1924958E+04  0.7818608E-02  0.8642532E-01
         -1   -1    0    0    0  501 -0.00000000000E+00  0.00000000000E+00  0.25328907228E+04  0.25328907228E+04  0.00000000000E+00 0.  1.
          1   -1    0    0  501    0  0.00000000000E+00 -0.00000000000E+00 -0.36573451300E+03  0.36573451300E+03  0.00000000000E+00 0. -1.
         23    2    1    2    0    0  0.76569081048E+02 -0.74312114588E+02  0.19676425217E+04  0.19726750671E+04  0.91895117983E+02 0.  0.
        254    2    1    2    0    0 -0.76569081048E+02  0.74312114588E+02  0.19951368817E+03  0.92595016874E+03  0.89788244702E+03 0.  0.
         23    2    4    4    0    0  0.37543663083E+02 -0.40343182394E+02 -0.33895577572E+03  0.35626853209E+03  0.94863850142E+02 0.  0.
         23    2    4    4    0    0 -0.11411274413E+03  0.11465529698E+03  0.53846946389E+03  0.56968163665E+03  0.91761909813E+02 0.  0.
          3    1    3    3  502    0 -0.10067190256E+02  0.98620554905E+01  0.45461021769E+03  0.45482860342E+03  0.00000000000E+00 0. -1.
         -3    1    3    3    0  502  0.86636271305E+02 -0.84174170079E+02  0.15130323040E+04  0.15178464637E+04  0.00000000000E+00 0.  1.
         13    1    5    5    0    0  0.29931681645E+02 -0.24616847154E+02 -0.36271061567E+02  0.53079983394E+02  0.00000000000E+00 0. -1.
        -13    1    5    5    0    0  0.76119814382E+01 -0.15726335240E+02 -0.30268471415E+03  0.30318854870E+03  0.00000000000E+00 0.  1.
          4    1    6    6  503    0  0.53629347933E+01  0.16568935075E+02  0.12420182592E+02  0.21390456159E+02  0.00000000000E+00 0. -1.
         -4    1    6    6    0  503 -0.11947567892E+03  0.98086361907E+02  0.52604928130E+03  0.54829118049E+03  0.00000000000E+00 0.  1.
<mgrwt>
<rscale>  0 0.19249577E+04</rscale>
<asrwt>0</asrwt>
<pdfrwt beam="1">  1        1 0.56266850E-01 0.19249577E+04</pdfrwt>
<pdfrwt beam="2">  1       -1 0.38967549E+00 0.19249577E+04</pdfrwt>
<totfact> 0.53198112E-01</totfact>
</mgrwt>
</event>
<event>
12    3  0.4773567E-008  0.1746302E+04  0.7818608E-02  0.8735389E-01
          1   -1    0    0  501    0  0.00000000000E+00  0.00000000000E+00  0.28830077204E+04  0.28830077204E+04  0.00000000000E+00 0. -1.
         -1   -1    0    0    0  501 -0.00000000000E+00 -0.00000000000E+00 -0.26444337219E+03  0.26444337219E+03  0.00000000000E+00 0.  1.
         23    2    1    2    0    0 -0.52378122214E+03  0.85238215807E+02  0.16026058569E+04  0.16905373558E+04  0.89211528034E+02 0.  0.
        254    2    1    2    0    0  0.52378122214E+03 -0.85238215807E+02  0.10159584913E+04  0.14569137368E+04  0.89934067974E+03 0.  0.
         23    2    4    4    0    0  0.27243680820E+03  0.29899034241E+03  0.87150489968E+03  0.96542929014E+03  0.94423962933E+02 0.  0.
         23    2    4    4    0    0  0.25134441394E+03 -0.38422855822E+03  0.14445359161E+03  0.49148444662E+03  0.99420932262E+02 0.  0.
          4    1    3    3  502    0 -0.39430015105E+03  0.36878316062E+02  0.10934924315E+04  0.11629954071E+04  0.00000000000E+00 0. -1.
         -4    1    3    3    0  502 -0.12948107109E+03  0.48359899745E+02  0.50911342542E+03  0.52754194868E+03  0.00000000000E+00 0.  1.
         13    1    5    5    0    0  0.84937503601E+02  0.35718372453E+02  0.19013128739E+03  0.21128201082E+03  0.00000000000E+00 0.  1.
        -13    1    5    5    0    0  0.18749930460E+03  0.26327196995E+03  0.68137361229E+03  0.75414727932E+03  0.00000000000E+00 0. -1.
          2    1    6    6  503    0  0.10472527056E+03 -0.89526399842E+02  0.67619341929E+02  0.15347551585E+03  0.00000000000E+00 0.  1.
         -2    1    6    6    0  503  0.14661914338E+03 -0.29470215837E+03  0.76834249680E+02  0.33800893077E+03  0.00000000000E+00 0. -1.
<mgrwt>
<rscale>  0 0.17463016E+04</rscale>
<asrwt>0</asrwt>
<pdfrwt beam="1">  1        1 0.44353963E+00 0.17463016E+04</pdfrwt>
<pdfrwt beam="2">  1       -1 0.40683598E-01 0.17463016E+04</pdfrwt>
<totfact> 0.40791775E+00</totfact>
</mgrwt>
</event>
<event>
12    3  0.4773567E-008  0.1224182E+04  0.7818608E-02  0.9091949E-01
         -2   -1    0    0    0  501 -0.00000000000E+00  0.00000000000E+00  0.92415770473E+03  0.92415770473E+03  0.00000000000E+00 0.  1.
          2   -1    0    0  501    0  0.00000000000E+00 -0.00000000000E+00 -0.40540219513E+03  0.40540219513E+03  0.00000000000E+00 0. -1.
         23    2    1    2    0    0 -0.14500557444E+02 -0.18636136597E+03  0.33447322771E+03  0.39402395284E+03  0.91878781361E+02 0.  0.
        254    2    1    2    0    0  0.14500557444E+02  0.18636136597E+03  0.18428228189E+03  0.93553594702E+03  0.89795697216E+03 0.  0.
         23    2    4    4    0    0  0.19784306409E+03 -0.20930416282E+03 -0.18683360157E+03  0.35538875470E+03  0.91892664086E+02 0.  0.
         23    2    4    4    0    0 -0.18334250664E+03  0.39566552879E+03  0.37111588346E+03  0.58014719231E+03  0.93156214931E+02 0.  0.
          1    1    3    3  502    0 -0.48736838448E+02 -0.60326556696E+02  0.11796467799E+03  0.14117449528E+03  0.00000000000E+00 0. -1.
         -1    1    3    3    0  502  0.34236281004E+02 -0.12603480928E+03  0.21650854972E+03  0.25284945756E+03  0.00000000000E+00 0.  1.
         13    1    5    5    0    0  0.15464534152E+02 -0.38168586481E+02  0.31662374475E+01  0.41303969180E+02  0.00000000000E+00 0. -1.
        -13    1    5    5    0    0  0.18237852994E+03 -0.17113557634E+03 -0.18999983902E+03  0.31408478552E+03  0.00000000000E+00 0.  1.
          3    1    6    6  503    0 -0.15942067454E+02  0.29762727979E+02  0.15360068022E+01  0.33798355113E+02  0.00000000000E+00 0. -1.
         -3    1    6    6    0  503 -0.16740043919E+03  0.36590280081E+03  0.36957987666E+03  0.54634883720E+03  0.00000000000E+00 0.  1.
<mgrwt>
<rscale>  0 0.12241823E+04</rscale>
<asrwt>0</asrwt>
<pdfrwt beam="1">  1        2 0.62369569E-01 0.12241823E+04</pdfrwt>
<pdfrwt beam="2">  1       -2 0.14217811E+00 0.12241823E+04</pdfrwt>
<totfact> 0.26595953E+01</totfact>
</mgrwt>
</event>
<event>
12    3  0.4773567E-008  0.2310408E+04  0.7818608E-02  0.8473829E-01
          2   -1    0    0  501    0  0.00000000000E+00  0.00000000000E+00  0.23804950775E+04  0.23804950775E+04  0.00000000000E+00 0.  1.
         -2   -1    0    0    0  501 -0.00000000000E+00 -0.00000000000E+00 -0.56059597373E+03  0.56059597373E+03  0.00000000000E+00 0. -1.
         23    2    1    2    0    0 -0.65446388444E+03  0.70722468914E+03  0.10002823404E+04  0.13919593519E+04  0.92175592941E+02 0.  0.
        254    2    1    2    0    0  0.65446388444E+03 -0.70722468914E+03  0.81961676339E+03  0.15491316993E+04  0.89417428168E+03 0.  0.
         23    2    4    4    0    0  0.83411007796E+03 -0.49951054532E+03  0.43816953178E+03  0.10703045589E+04  0.91153184784E+02 0.  0.
         23    2    4    4    0    0 -0.17964619352E+03 -0.20771414382E+03  0.38144723162E+03  0.47882714045E+03  0.91408530969E+02 0.  0.
          3    1    3    3  502    0 -0.79993440242E+02  0.49627819443E+02  0.11313482864E+03  0.14717798883E+03  0.00000000000E+00 0. -1.
         -3    1    3    3    0  502 -0.57447044420E+03  0.65759686969E+03  0.88714751172E+03  0.12447813631E+04  0.00000000000E+00 0.  1.
         13    1    5    5    0    0  0.57724050082E+03 -0.38994975072E+03  0.29523780161E+03  0.75659286500E+03  0.00000000000E+00 0.  1.
        -13    1    5    5    0    0  0.25686957714E+03 -0.10956079460E+03  0.14293173017E+03  0.31371169386E+03  0.00000000000E+00 0. -1.
          2    1    6    6  503    0 -0.99531230578E+01 -0.18105004815E+02  0.44200377812E+00  0.20665217765E+02  0.00000000000E+00 0. -1.
         -2    1    6    6    0  503 -0.16969307047E+03 -0.18960913900E+03  0.38100522784E+03  0.45816192268E+03  0.00000000000E+00 0.  1.
<mgrwt>
<rscale>  0 0.23104077E+04</rscale>
<asrwt>0</asrwt>
<pdfrwt beam="1">  1        2 0.36623001E+00 0.23104077E+04</pdfrwt>
<pdfrwt beam="2">  1       -2 0.86245536E-01 0.23104077E+04</pdfrwt>
<totfact> 0.43062712E+00</totfact>
</mgrwt>
</event>
<event>
12    3  0.4773567E-008  0.2199335E+04  0.7818608E-02  0.8518705E-01
         -2   -1    0    0    0  501 -0.00000000000E+00  0.00000000000E+00  0.11368867455E+04  0.11368867455E+04  0.00000000000E+00 0.  1.
          2   -1    0    0  501    0  0.00000000000E+00 -0.00000000000E+00 -0.10636663370E+04  0.10636663370E+04  0.00000000000E+00 0. -1.
         23    2    1    2    0    0  0.13448383519E+03  0.10232455879E+03  0.93750401932E+03  0.95697499529E+03  0.91275068407E+02 0.  0.
        254    2    1    2    0    0 -0.13448383519E+03 -0.10232455879E+03 -0.86428361078E+03  0.12435780872E+04  0.87803421457E+03 0.  0.
         23    2    4    4    0    0 -0.14587359768E+03  0.11965847609E+03  0.11208360238E+03  0.23818346916E+03  0.92581713409E+02 0.  0.
         23    2    4    4    0    0  0.11389762483E+02 -0.22198303489E+03 -0.97636721316E+03  0.10053946181E+04  0.90106651646E+02 0.  0.
          4    1    3    3  502    0  0.19005320998E+02  0.69339087400E+02  0.36339640247E+03  0.37044035498E+03  0.00000000000E+00 0. -1.
         -4    1    3    3    0  502  0.11547851420E+03  0.32985471393E+02  0.57410761685E+03  0.58653464032E+03  0.00000000000E+00 0.  1.
         13    1    5    5    0    0 -0.96137634126E+02  0.12756693612E+03  0.87746780455E+02  0.18225055656E+03  0.00000000000E+00 0.  1.
        -13    1    5    5    0    0 -0.49735963551E+02 -0.79084600261E+01  0.24336821927E+02  0.55932912599E+02  0.00000000000E+00 0. -1.
          2    1    6    6  503    0  0.30670847725E+02 -0.19286524192E+02 -0.14905919497E+03  0.15339919987E+03  0.00000000000E+00 0. -1.
         -2    1    6    6    0  503 -0.19281085242E+02 -0.20269651069E+03 -0.82730801819E+03  0.85199541821E+03  0.00000000000E+00 0.  1.
<mgrwt>
<rscale>  0 0.21993346E+04</rscale>
<asrwt>0</asrwt>
<pdfrwt beam="1">  1        2 0.16364097E+00 0.21993346E+04</pdfrwt>
<pdfrwt beam="2">  1       -2 0.17490565E+00 0.21993346E+04</pdfrwt>
<totfact> 0.41276585E+00</totfact>
</mgrwt>
</event>
<event>
12    3  0.4773567E-008  0.2143453E+04  0.7818608E-02  0.8542340E-01
          2   -1    0    0  501    0  0.00000000000E+00  0.00000000000E+00  0.23548693955E+04  0.23548693955E+04  0.00000000000E+00 0. -1.
         -2   -1    0    0    0  501 -0.00000000000E+00 -0.00000000000E+00 -0.48775440992E+03  0.48775440992E+03  0.00000000000E+00 0.  1.
         23    2    1    2    0    0 -0.56154250172E+03  0.17056543193E+03  0.16572611510E+04  0.17600584351E+04  0.82877164205E+02 0.  0.
        254    2    1    2    0    0  0.56154250172E+03 -0.17056543193E+03  0.20985383459E+03  0.10825653704E+04  0.88514778509E+03 0.  0.
         23    2    4    4    0    0  0.26189694126E+03 -0.40537343323E+03 -0.18713229058E+03  0.52540769671E+03  0.90095090727E+02 0.  0.
         23    2    4    4    0    0  0.29964556046E+03  0.23480800130E+03  0.39698612517E+03  0.55715767368E+03  0.88906863539E+02 0.  0.
          2    1    3    3  502    0 -0.53494386683E+03  0.17760671087E+03  0.16031695884E+04  0.16993710053E+04  0.00000000000E+00 0. -1.
         -2    1    3    3    0  502 -0.26598634889E+02 -0.70412789494E+01  0.54091562629E+02  0.60687429793E+02  0.00000000000E+00 0.  1.
         13    1    5    5    0    0  0.19960991378E+03 -0.35870413373E+03 -0.17655651612E+03  0.44686124985E+03  0.00000000000E+00 0.  1.
        -13    1    5    5    0    0  0.62287027487E+02 -0.46669299499E+02 -0.10575774459E+02  0.78546446860E+02  0.00000000000E+00 0. -1.
          3    1    6    6  503    0  0.16863454631E+02  0.13637067877E+02  0.63729620858E+02  0.67318721743E+02  0.00000000000E+00 0. -1.
         -3    1    6    6    0  503  0.28278210582E+03  0.22117093343E+03  0.33325650431E+03  0.48983895193E+03  0.00000000000E+00 0.  1.
<mgrwt>
<rscale>  0 0.21434532E+04</rscale>
<asrwt>0</asrwt>
<pdfrwt beam="1">  1        2 0.36228759E+00 0.21434532E+04</pdfrwt>
<pdfrwt beam="2">  1       -2 0.75039141E-01 0.21434532E+04</pdfrwt>
<totfact> 0.61794211E+00</totfact>
</mgrwt>
</event>
<event>
12    3  0.4773567E-008  0.1420959E+04  0.7818608E-02  0.8938785E-01
          1   -1    0    0  501    0  0.00000000000E+00  0.00000000000E+00  0.23247120598E+04  0.23247120598E+04  0.00000000000E+00 0. -1.
         -1   -1    0    0    0  501 -0.00000000000E+00 -0.00000000000E+00 -0.21713720082E+03  0.21713720082E+03  0.00000000000E+00 0.  1.
         23    2    1    2    0    0  0.19267262661E+03  0.16038400481E+03  0.12202949572E+04  0.12487454873E+04  0.86021737337E+02 0.  0.
        254    2    1    2    0    0 -0.19267262661E+03 -0.16038400481E+03  0.88727990179E+03  0.12931037734E+04  0.90664545144E+03 0.  0.
         23    2    4    4    0    0 -0.26933619295E+03  0.31398771914E+03  0.57142438743E+03  0.71087044176E+03  0.87639499158E+02 0.  0.
         23    2    4    4    0    0  0.76663566349E+02 -0.47437172395E+03  0.31585551436E+03  0.58223333164E+03  0.91242049656E+02 0.  0.
          4    1    3    3  502    0  0.16521410896E+03  0.14797035861E+03  0.89555012708E+03  0.92260552727E+03  0.00000000000E+00 0.  1.
         -4    1    3    3    0  502  0.27458517647E+02  0.12413646201E+02  0.32474483015E+03  0.32613996000E+03  0.00000000000E+00 0. -1.
         13    1    5    5    0    0 -0.19193422823E+01  0.19684099905E+02  0.81872856426E+01  0.21405123453E+02  0.00000000000E+00 0.  1.
        -13    1    5    5    0    0 -0.26741685067E+03  0.29430361924E+03  0.56323710179E+03  0.68946531831E+03  0.00000000000E+00 0. -1.
          1    1    6    6  503    0 -0.63185584909E+01 -0.24684096251E+03  0.15944548853E+03  0.29392728483E+03  0.00000000000E+00 0. -1.
         -1    1    6    6    0  503  0.82982124840E+02 -0.22753076144E+03  0.15641002584E+03  0.28830604681E+03  0.00000000000E+00 0.  1.
<mgrwt>
<rscale>  0 0.14209595E+04</rscale>
<asrwt>0</asrwt>
<pdfrwt beam="1">  1        1 0.35764799E+00 0.14209595E+04</pdfrwt>
<pdfrwt beam="2">  1       -1 0.33405725E-01 0.14209595E+04</pdfrwt>
<totfact> 0.14730490E+01</totfact>
</mgrwt>
</event>
<event>
12    3  0.4773567E-008  0.2421915E+04  0.7818608E-02  0.8431344E-01
         -2   -1    0    0    0  501 -0.00000000000E+00  0.00000000000E+00  0.82786242963E+03  0.82786242963E+03  0.00000000000E+00 0. -1.
          2   -1    0    0  501    0  0.00000000000E+00 -0.00000000000E+00 -0.17713308633E+04  0.17713308633E+04  0.00000000000E+00 0.  1.
         23    2    1    2    0    0 -0.29448274387E+03  0.66194432478E+03  0.39371176651E+03  0.82942602836E+03  0.89711793469E+02 0.  0.
        254    2    1    2    0    0  0.29448274387E+03 -0.66194432478E+03 -0.13371802002E+04  0.17697672646E+04  0.90506072031E+03 0.  0.
         23    2    4    4    0    0  0.11464732715E+03  0.20577154430E+03 -0.42711789848E+03  0.49633973837E+03  0.91855857803E+02 0.  0.
         23    2    4    4    0    0  0.17983541673E+03 -0.86771586908E+03 -0.91006230168E+03  0.12734275262E+04  0.90181289369E+02 0.  0.
          3    1    3    3  502    0 -0.17016621776E+03  0.27308505868E+03  0.17090273287E+03  0.36433464705E+03  0.00000000000E+00 0. -1.
         -3    1    3    3    0  502 -0.12431652612E+03  0.38885926610E+03  0.22280903364E+03  0.46509138131E+03  0.00000000000E+00 0.  1.
         13    1    5    5    0    0  0.77666231721E+02  0.16770391601E+03 -0.24652117545E+03  0.30810604820E+03  0.00000000000E+00 0.  1.
        -13    1    5    5    0    0  0.36981095428E+02  0.38067628294E+02 -0.18059672303E+03  0.18823369016E+03  0.00000000000E+00 0. -1.
          3    1    6    6  503    0  0.88192168427E+01 -0.22451868027E+03 -0.21147961754E+03  0.30856125001E+03  0.00000000000E+00 0. -1.
         -3    1    6    6    0  503  0.17101619988E+03 -0.64319718881E+03 -0.69858268414E+03  0.96486627617E+03  0.00000000000E+00 0.  1.
<mgrwt>
<rscale>  0 0.24219152E+04</rscale>
<asrwt>0</asrwt>
<pdfrwt beam="1">  1        2 0.27251244E+00 0.24219152E+04</pdfrwt>
<pdfrwt beam="2">  1       -2 0.12736345E+00 0.24219152E+04</pdfrwt>
<totfact> 0.36753804E+00</totfact>
</mgrwt>
</event>
<event>
12    3  0.4773567E-008  0.2070531E+04  0.7818608E-02  0.8574337E-01
         -1   -1    0    0    0  501 -0.00000000000E+00  0.00000000000E+00  0.38727699831E+03  0.38727699831E+03  0.00000000000E+00 0.  1.
          1   -1    0    0  501    0  0.00000000000E+00 -0.00000000000E+00 -0.27674614365E+04  0.27674614365E+04  0.00000000000E+00 0. -1.
         23    2    1    2    0    0 -0.46959367031E+03  0.67961560039E+03 -0.11278053736E+04  0.14015796093E+04  0.10042340904E+03 0.  0.
        254    2    1    2    0    0  0.46959367031E+03 -0.67961560039E+03 -0.12523790645E+04  0.17531588254E+04  0.90703746692E+03 0.  0.
         23    2    4    4    0    0  0.56767778649E+03 -0.28150755863E+03 -0.29008528568E+03  0.70329716067E+03  0.94725120229E+02 0.  0.
         23    2    4    4    0    0 -0.98084116184E+02 -0.39810804176E+03 -0.96229377887E+03  0.10498616648E+04  0.89942712432E+02 0.  0.
          1    1    3    3  502    0 -0.43272543380E+03  0.56780697969E+03 -0.98495107487E+03  0.12164640098E+04  0.00000000000E+00 0. -1.
         -1    1    3    3    0  502 -0.36868236513E+02  0.11180862069E+03 -0.14285429874E+03  0.18511559954E+03  0.00000000000E+00 0.  1.
         13    1    5    5    0    0  0.54891668602E+03 -0.27389500475E+03 -0.25831430198E+03  0.66562322708E+03  0.00000000000E+00 0. -1.
        -13    1    5    5    0    0  0.18761100471E+02 -0.76125538841E+01 -0.31770983697E+02  0.37673933596E+02  0.00000000000E+00 0.  1.
          3    1    6    6  503    0 -0.11433155697E+03 -0.35205426088E+03 -0.86925780259E+03  0.94478729611E+03  0.00000000000E+00 0. -1.
         -3    1    6    6    0  503  0.16247440785E+02 -0.46053780878E+02 -0.93035976277E+02  0.10507436865E+03  0.00000000000E+00 0.  1.
<mgrwt>
<rscale>  0 0.20705305E+04</rscale>
<asrwt>0</asrwt>
<pdfrwt beam="1">  1        1 0.42576329E+00 0.20705305E+04</pdfrwt>
<pdfrwt beam="2">  1       -1 0.59581077E-01 0.20705305E+04</pdfrwt>
<totfact> 0.23167675E+00</totfact>
</mgrwt>
</event>
<event>
12    3  0.4773567E-008  0.2096223E+04  0.7818608E-02  0.8562909E-01
         -2   -1    0    0    0  501 -0.00000000000E+00  0.00000000000E+00  0.43568712158E+03  0.43568712158E+03  0.00000000000E+00 0.  1.
          2   -1    0    0  501    0  0.00000000000E+00 -0.00000000000E+00 -0.25213913448E+04  0.25213913448E+04  0.00000000000E+00 0. -1.
         23    2    1    2    0    0  0.46295977183E+03 -0.39982816386E+03 -0.22468451317E+02  0.62092022852E+03  0.10412870848E+03 0.  0.
        254    2    1    2    0    0 -0.46295977183E+03  0.39982816386E+03 -0.20632357719E+04  0.23361582379E+04  0.90911998710E+03 0.  0.
         23    2    4    4    0    0 -0.46529751986E+03 -0.76229785148E+02 -0.15820749423E+04  0.16533278121E+04  0.90658530667E+02 0.  0.
         23    2    4    4    0    0  0.23377480263E+01  0.47605794901E+03 -0.48116082968E+03  0.68283042581E+03  0.90027831873E+02 0.  0.
          1    1    3    3  502    0  0.23223360570E+03 -0.25086237092E+03  0.22641810098E+02  0.34260331044E+03  0.00000000000E+00 0. -1.
         -1    1    3    3    0  502  0.23072616613E+03 -0.14896579294E+03 -0.45110261415E+02  0.27831691808E+03  0.00000000000E+00 0.  1.
         13    1    5    5    0    0 -0.22435518171E+02  0.87354781219E+01 -0.40138764103E+02  0.46805784229E+02  0.00000000000E+00 0.  1.
        -13    1    5    5    0    0 -0.44286200169E+03 -0.84965263270E+02 -0.15419361782E+04  0.16065220279E+04  0.00000000000E+00 0. -1.
          3    1    6    6  503    0 -0.15168595731E+02  0.30685069468E+03 -0.25154856946E+03  0.39706941196E+03  0.00000000000E+00 0. -1.
         -3    1    6    6    0  503  0.17506343757E+02  0.16920725433E+03 -0.22961226022E+03  0.28576101384E+03  0.00000000000E+00 0.  1.
<mgrwt>
<rscale>  0 0.20962230E+04</rscale>
<asrwt>0</asrwt>
<pdfrwt beam="1">  1        2 0.38790637E+00 0.20962230E+04</pdfrwt>
<pdfrwt beam="2">  1       -2 0.67028787E-01 0.20962230E+04</pdfrwt>
<totfact> 0.63732085E+00</totfact>
</mgrwt>
</event>
<event>
12    3  0.4773567E-008  0.1470598E+04  0.7818608E-02  0.8904244E-01
         -1   -1    0    0    0  501 -0.00000000000E+00  0.00000000000E+00  0.33742544627E+03  0.33742544627E+03  0.00000000000E+00 0.  1.
          1   -1    0    0  501    0  0.00000000000E+00 -0.00000000000E+00 -0.16023234725E+04  0.16023234725E+04  0.00000000000E+00 0. -1.
         23    2    1    2    0    0 -0.20499063432E+03 -0.75899769771E+02  0.12220000476E+03  0.26576412710E+03  0.88970752935E+02 0.  0.
        254    2    1    2    0    0  0.20499063432E+03  0.75899769771E+02 -0.13870980310E+04  0.16739847917E+04  0.91126406710E+03 0.  0.
         23    2    4    4    0    0  0.51501296705E+03  0.18750423660E+03 -0.60944271916E+03  0.82458415767E+03  0.90124414917E+02 0.  0.
         23    2    4    4    0    0 -0.31002233273E+03 -0.11160446683E+03 -0.77765531183E+03  0.84940063401E+03  0.90356235198E+02 0.  0.
          3    1    3    3  502    0 -0.27827657380E+02 -0.74639910128E+00 -0.12851122776E+02  0.30660837945E+02  0.00000000000E+00 0. -1.
         -3    1    3    3    0  502 -0.17716297694E+03 -0.75153370670E+02  0.13505112754E+03  0.23510328915E+03  0.00000000000E+00 0.  1.
         13    1    5    5    0    0  0.23763623017E+03  0.42656757855E+02 -0.29118935171E+03  0.37826157012E+03  0.00000000000E+00 0. -1.
        -13    1    5    5    0    0  0.27737673688E+03  0.14484747875E+03 -0.31825336745E+03  0.44632258755E+03  0.00000000000E+00 0.  1.
          4    1    6    6  503    0 -0.90860637910E+02  0.33348465552E+01 -0.26445815964E+03  0.27965138105E+03  0.00000000000E+00 0. -1.
         -4    1    6    6    0  503 -0.21916169482E+03 -0.11493931338E+03 -0.51319715219E+03  0.56974925296E+03  0.00000000000E+00 0.  1.
<mgrwt>
<rscale>  0 0.14705981E+04</rscale>
<asrwt>0</asrwt>
<pdfrwt beam="1">  1        1 0.24651130E+00 0.14705981E+04</pdfrwt>
<pdfrwt beam="2">  1       -1 0.51911607E-01 0.14705981E+04</pdfrwt>
<totfact> 0.20138720E+01</totfact>
</mgrwt>
</event>
<event>
12    3  0.4773567E-008  0.1723007E+04  0.7818608E-02  0.8748350E-01
          1   -1    0    0  501    0  0.00000000000E+00  0.00000000000E+00  0.10939965782E+04  0.10939965782E+04  0.00000000000E+00 0. -1.
         -1   -1    0    0    0  501 -0.00000000000E+00 -0.00000000000E+00 -0.67841955839E+03  0.67841955839E+03  0.00000000000E+00 0.  1.
         23    2    1    2    0    0 -0.12260030504E+03  0.98725932803E+02  0.77485044311E+03  0.79561983765E+03  0.88544182594E+02 0.  0.
        254    2    1    2    0    0  0.12260030504E+03 -0.98725932803E+02 -0.35927342330E+03  0.97679629894E+03  0.89458145092E+03 0.  0.
         23    2    4    4    0    0 -0.14744910219E+03 -0.17729770688E+03  0.21665339931E+03  0.32920389832E+03  0.90888924718E+02 0.  0.
         23    2    4    4    0    0  0.27004940723E+03  0.78571774076E+02 -0.57592682261E+03  0.64759240062E+03  0.92649912701E+02 0.  0.
          2    1    3    3  502    0  0.11916096211E+01  0.30472200392E+01  0.19514105986E+03  0.19516848805E+03  0.00000000000E+00 0. -1.
         -2    1    3    3    0  502 -0.12379191466E+03  0.95678712764E+02  0.57970938324E+03  0.60045134960E+03  0.00000000000E+00 0.  1.
         13    1    5    5    0    0 -0.93631161811E+02 -0.91880809964E+02  0.63435946553E+02  0.14571546595E+03  0.00000000000E+00 0.  1.
        -13    1    5    5    0    0 -0.53817940376E+02 -0.85416896915E+02  0.15321745275E+03  0.18348843237E+03  0.00000000000E+00 0. -1.
          3    1    6    6  503    0  0.10526317962E+02  0.61354904785E+01 -0.99570209131E+02  0.10031288132E+03  0.00000000000E+00 0. -1.
         -3    1    6    6    0  503  0.25952308926E+03  0.72436283598E+02 -0.47635661348E+03  0.54727951930E+03  0.00000000000E+00 0.  1.
<mgrwt>
<rscale>  0 0.17230075E+04</rscale>
<asrwt>0</asrwt>
<pdfrwt beam="1">  1        1 0.16830717E+00 0.17230075E+04</pdfrwt>
<pdfrwt beam="2">  1       -1 0.10437224E+00 0.17230075E+04</pdfrwt>
<totfact> 0.10507151E+01</totfact>
</mgrwt>
</event>
<event>
12    3  0.4773567E-008  0.2843571E+04  0.7818608E-02  0.8289868E-01
          2   -1    0    0  501    0  0.00000000000E+00  0.00000000000E+00  0.11693630877E+04  0.11693630877E+04  0.00000000000E+00 0. -1.
         -2   -1    0    0    0  501 -0.00000000000E+00 -0.00000000000E+00 -0.17286965328E+04  0.17286965328E+04  0.00000000000E+00 0.  1.
         23    2    1    2    0    0  0.59093142920E+03  0.62923708469E+03 -0.12227725918E+04  0.14996294670E+04  0.92609202343E+02 0.  0.
        254    2    1    2    0    0 -0.59093142920E+03 -0.62923708469E+03  0.66343914664E+03  0.13984301535E+04  0.87767655208E+03 0.  0.
         23    2    4    4    0    0  0.39453260744E+02 -0.16056579275E+03 -0.16630202822E+03  0.25205749537E+03  0.92404993364E+02 0.  0.
         23    2    4    4    0    0 -0.63038468994E+03 -0.46867129193E+03  0.82974117486E+03  0.11463726581E+04  0.93071030738E+02 0.  0.
          2    1    3    3  502    0  0.72661136896E+02  0.45526608492E+02 -0.93905921398E+02  0.12716381156E+03  0.00000000000E+00 0. -1.
         -2    1    3    3    0  502  0.51827029230E+03  0.58371047619E+03 -0.11288666704E+04  0.13724656555E+04  0.00000000000E+00 0.  1.
         13    1    5    5    0    0  0.22323206842E+02  0.25783238965E+01 -0.73616587530E+01  0.23646719380E+02  0.00000000000E+00 0. -1.
        -13    1    5    5    0    0  0.17130053901E+02 -0.16314411665E+03 -0.15894036947E+03  0.22841077599E+03  0.00000000000E+00 0.  1.
          2    1    6    6  503    0 -0.89294770163E+02 -0.10963201380E+03  0.15938410811E+03  0.21306343737E+03  0.00000000000E+00 0. -1.
         -2    1    6    6    0  503 -0.54108991978E+03 -0.35903927813E+03  0.67035706675E+03  0.93330922072E+03  0.00000000000E+00 0.  1.
<mgrwt>
<rscale>  0 0.28435709E+04</rscale>
<asrwt>0</asrwt>
<pdfrwt beam="1">  1        2 0.17990201E+00 0.28435709E+04</pdfrwt>
<pdfrwt beam="2">  1       -2 0.26595331E+00 0.28435709E+04</pdfrwt>
<totfact> 0.87909152E-01</totfact>
</mgrwt>
</event>
<event>
12    3  0.4773567E-008  0.2228837E+04  0.7818608E-02  0.8506520E-01
         -1   -1    0    0    0  501 -0.00000000000E+00  0.00000000000E+00  0.57728819940E+03  0.57728819940E+03  0.00000000000E+00 0.  1.
          1   -1    0    0  501    0  0.00000000000E+00 -0.00000000000E+00 -0.21513153855E+04  0.21513153855E+04  0.00000000000E+00 0. -1.
         23    2    1    2    0    0 -0.37379095563E+03 -0.47249466083E+03  0.21082917052E+03  0.64472051275E+03  0.90800426173E+02 0.  0.
        254    2    1    2    0    0  0.37379095563E+03  0.47249466083E+03 -0.17848563566E+04  0.20838830722E+04  0.89100255983E+03 0.  0.
         23    2    4    4    0    0 -0.21946210916E+03  0.82850631686E+01 -0.14964691775E+03  0.28117704272E+03  0.91837191444E+02 0.  0.
         23    2    4    4    0    0  0.59325306479E+03  0.46420959766E+03 -0.16352094389E+04  0.18027060294E+04  0.91648077644E+02 0.  0.
          1    1    3    3  502    0 -0.54100032465E+02 -0.10824334112E+03  0.71022984667E+02  0.14031286028E+03  0.00000000000E+00 0. -1.
         -1    1    3    3    0  502 -0.31969092316E+03 -0.36425131971E+03  0.13980618586E+03  0.50440765247E+03  0.00000000000E+00 0.  1.
         13    1    5    5    0    0 -0.11234147868E+03 -0.34392570366E+02 -0.10485423976E+03  0.15747338926E+03  0.00000000000E+00 0. -1.
        -13    1    5    5    0    0 -0.10712063048E+03  0.42677633535E+02 -0.44792677985E+02  0.12370365346E+03  0.00000000000E+00 0.  1.
          4    1    6    6  503    0  0.31183906845E+03  0.28446145593E+03 -0.83504131639E+03  0.93565801691E+03  0.00000000000E+00 0. -1.
         -4    1    6    6    0  503  0.28141399634E+03  0.17974814173E+03 -0.80016812249E+03  0.86704801253E+03  0.00000000000E+00 0.  1.
<mgrwt>
<rscale>  0 0.22288374E+04</rscale>
<asrwt>0</asrwt>
<pdfrwt beam="1">  1        1 0.33097160E+00 0.22288374E+04</pdfrwt>
<pdfrwt beam="2">  1       -1 0.88813569E-01 0.22288374E+04</pdfrwt>
<totfact> 0.26595332E+00</totfact>
</mgrwt>
</event>
<event>
12    3  0.4773567E-008  0.1044463E+04  0.7818608E-02  0.9261080E-01
          2   -1    0    0  501    0  0.00000000000E+00  0.00000000000E+00  0.10924243542E+04  0.10924243542E+04  0.00000000000E+00 0. -1.
         -2   -1    0    0    0  501 -0.00000000000E+00 -0.00000000000E+00 -0.24965164022E+03  0.24965164022E+03  0.00000000000E+00 0.  1.
         23    2    1    2    0    0 -0.44872186710E+02  0.28552970726E+02  0.22433276005E+03  0.24801669733E+03  0.91423791471E+02 0.  0.
        254    2    1    2    0    0  0.44872186710E+02 -0.28552970726E+02  0.61843995389E+03  0.10940592970E+04  0.90092673597E+03 0.  0.
         23    2    4    4    0    0  0.18802044447E+03  0.93615969909E+02 -0.16512816018E+03  0.28226066385E+03  0.91039198774E+02 0.  0.
         23    2    4    4    0    0 -0.14314825776E+03 -0.12216894063E+03  0.78356811407E+03  0.81179863319E+03  0.98088519717E+02 0.  0.
          3    1    3    3  502    0 -0.38736500463E+02  0.24625968973E+02  0.23254911880E+03  0.23703596240E+03  0.00000000000E+00 0. -1.
         -3    1    3    3    0  502 -0.61356862468E+01  0.39270017533E+01 -0.82163587524E+01  0.10980734932E+02  0.00000000000E+00 0.  1.
         13    1    5    5    0    0  0.17856117012E+03  0.95002895899E+02 -0.17576357679E+03  0.26795984145E+03  0.00000000000E+00 0. -1.
        -13    1    5    5    0    0  0.94592743457E+01 -0.13869259904E+01  0.10635416610E+02  0.14300822400E+02  0.00000000000E+00 0.  1.
          1    1    6    6  503    0 -0.34220171763E+02 -0.90692526458E+02  0.41576088231E+03  0.42691130902E+03  0.00000000000E+00 0. -1.
         -1    1    6    6    0  503 -0.10892808599E+03 -0.31476414177E+02  0.36780723176E+03  0.38488732417E+03  0.00000000000E+00 0.  1.
<mgrwt>
<rscale>  0 0.10444626E+04</rscale>
<asrwt>0</asrwt>
<pdfrwt beam="1">  1        2 0.16806528E+00 0.10444626E+04</pdfrwt>
<pdfrwt beam="2">  1       -2 0.38407945E-01 0.10444626E+04</pdfrwt>
<totfact> 0.14030524E+02</totfact>
</mgrwt>
</event>
<event>
12    3  0.4773567E-008  0.1468094E+04  0.7818608E-02  0.8905952E-01
          2   -1    0    0  501    0  0.00000000000E+00  0.00000000000E+00  0.70428784372E+03  0.70428784372E+03  0.00000000000E+00 0. -1.
         -2   -1    0    0    0  501 -0.00000000000E+00 -0.00000000000E+00 -0.76506355919E+03  0.76506355919E+03  0.00000000000E+00 0.  1.
         23    2    1    2    0    0 -0.42513798267E+03 -0.85377744266E+02  0.40032165962E+02  0.44552756432E+03  0.94130615306E+02 0.  0.
        254    2    1    2    0    0  0.42513798267E+03  0.85377744266E+02 -0.10080788144E+03  0.10238238386E+04  0.92196602973E+03 0.  0.
         23    2    4    4    0    0  0.65554969636E+03  0.18742718659E+03 -0.23081806288E+03  0.72563874111E+03  0.91652876527E+02 0.  0.
         23    2    4    4    0    0 -0.23041171369E+03 -0.10204944232E+03  0.13001018144E+03  0.29818509748E+03  0.92239138082E+02 0.  0.
          2    1    3    3  502    0 -0.80726516343E+02 -0.45851947350E+02 -0.16446335520E+02  0.94284958868E+02  0.00000000000E+00 0.  1.
         -2    1    3    3    0  502 -0.34441146633E+03 -0.39525796915E+02  0.56478501482E+02  0.35124260546E+03  0.00000000000E+00 0. -1.
         13    1    5    5    0    0  0.34152519648E+03  0.50908405841E+02 -0.12537272193E+03  0.36735465836E+03  0.00000000000E+00 0.  1.
        -13    1    5    5    0    0  0.31402449988E+03  0.13651878074E+03 -0.10544534094E+03  0.35828408274E+03  0.00000000000E+00 0. -1.
          1    1    6    6  503    0 -0.14328882935E+03 -0.10533669745E+03  0.64675727854E+02  0.18923651397E+03  0.00000000000E+00 0. -1.
         -1    1    6    6    0  503 -0.87122884339E+02  0.32872551307E+01  0.65334453586E+02  0.10894858350E+03  0.00000000000E+00 0.  1.
<mgrwt>
<rscale>  0 0.14680940E+04</rscale>
<asrwt>0</asrwt>
<pdfrwt beam="1">  1        2 0.10835198E+00 0.14680940E+04</pdfrwt>
<pdfrwt beam="2">  1       -2 0.11770209E+00 0.14680940E+04</pdfrwt>
<totfact> 0.21931686E+01</totfact>
</mgrwt>
</event>
<event>
12    3  0.4773567E-008  0.1704210E+04  0.7818608E-02  0.8758967E-01
          2   -1    0    0  501    0  0.00000000000E+00  0.00000000000E+00  0.14591915499E+04  0.14591915499E+04  0.00000000000E+00 0. -1.
         -2   -1    0    0    0  501 -0.00000000000E+00 -0.00000000000E+00 -0.49759266285E+03  0.49759266285E+03  0.00000000000E+00 0.  1.
         23    2    1    2    0    0 -0.48409012370E+03 -0.10557979674E+03  0.73569223151E+03  0.89211329625E+03  0.95565331034E+02 0.  0.
        254    2    1    2    0    0  0.48409012370E+03  0.10557979674E+03  0.22590665558E+03  0.10646709165E+04  0.91487704209E+03 0.  0.
         23    2    4    4    0    0 -0.19579268201E+03 -0.16728286475E+03  0.17745965893E+03  0.32468908945E+03  0.87251034887E+02 0.  0.
         23    2    4    4    0    0  0.67988280571E+03  0.27286266149E+03  0.48446996654E+02  0.73998182709E+03  0.92365206680E+02 0.  0.
          4    1    3    3  502    0 -0.33769301485E+03 -0.45970912611E+02  0.56201119505E+03  0.65727199883E+03  0.00000000000E+00 0. -1.
         -4    1    3    3    0  502 -0.14639710885E+03 -0.59608884131E+02  0.17368103645E+03  0.23484129741E+03  0.00000000000E+00 0.  1.
         13    1    5    5    0    0 -0.37771649526E+02  0.50086573545E+01  0.26110602257E+02  0.46190342136E+02  0.00000000000E+00 0. -1.
        -13    1    5    5    0    0 -0.15802103249E+03 -0.17229152211E+03  0.15134905667E+03  0.27849874731E+03  0.00000000000E+00 0.  1.
          3    1    6    6  503    0  0.41424535206E+02  0.41616687273E+02 -0.43906768865E+01  0.58883094519E+02  0.00000000000E+00 0. -1.
         -3    1    6    6    0  503  0.63845827051E+03  0.23124597422E+03  0.52837673541E+02  0.68109873258E+03  0.00000000000E+00 0.  1.
<mgrwt>
<rscale>  0 0.17042101E+04</rscale>
<asrwt>0</asrwt>
<pdfrwt beam="1">  1        2 0.22449101E+00 0.17042101E+04</pdfrwt>
<pdfrwt beam="2">  1       -2 0.76552718E-01 0.17042101E+04</pdfrwt>
<totfact> 0.19429262E+01</totfact>
</mgrwt>
</event>
<event>
12    3  0.4773567E-008  0.1413119E+04  0.7818608E-02  0.8944377E-01
          2   -1    0    0  501    0  0.00000000000E+00  0.00000000000E+00  0.22657612238E+04  0.22657612238E+04  0.00000000000E+00 0. -1.
         -2   -1    0    0    0  501 -0.00000000000E+00 -0.00000000000E+00 -0.22033500356E+03  0.22033500356E+03  0.00000000000E+00 0.  1.
         23    2    1    2    0    0 -0.57601341777E+02  0.26089467187E+01  0.12880237844E+04  0.12924845341E+04  0.90478066777E+02 0.  0.
        254    2    1    2    0    0  0.57601341777E+02 -0.26089467187E+01  0.75740243593E+03  0.11936116933E+04  0.92072020903E+03 0.  0.
         23    2    4    4    0    0 -0.54955482486E+02  0.43734928276E+03  0.45701939814E+03  0.64135825832E+03  0.90438847034E+02 0.  0.
         23    2    4    4    0    0  0.11255682426E+03 -0.43995822947E+03  0.30038303779E+03  0.55225343501E+03  0.92312538257E+02 0.  0.
          1    1    3    3  502    0 -0.21577682195E+02  0.11855103386E+02  0.11251160608E+04  0.11253853963E+04  0.00000000000E+00 0. -1.
         -1    1    3    3    0  502 -0.36023659582E+02 -0.92461566671E+01  0.16290772354E+03  0.16709913780E+03  0.00000000000E+00 0.  1.
         13    1    5    5    0    0 -0.28270721134E+02  0.34500354420E+03  0.30424668438E+03  0.46086085117E+03  0.00000000000E+00 0. -1.
        -13    1    5    5    0    0 -0.26684761352E+02  0.92345738558E+02  0.15277271376E+03  0.18049740715E+03  0.00000000000E+00 0.  1.
          3    1    6    6  503    0  0.11850760988E+03 -0.44078597476E+03  0.30006401530E+03  0.54623689222E+03  0.00000000000E+00 0. -1.
         -3    1    6    6    0  503 -0.59507856217E+01  0.82774528903E+00  0.31902249285E+00  0.60165427888E+01  0.00000000000E+00 0.  1.
<mgrwt>
<rscale>  0 0.14131193E+04</rscale>
<asrwt>0</asrwt>
<pdfrwt beam="1">  1        2 0.34857863E+00 0.14131193E+04</pdfrwt>
<pdfrwt beam="2">  1       -2 0.33897695E-01 0.14131193E+04</pdfrwt>
<totfact> 0.37612025E+01</totfact>
</mgrwt>
</event>
<event>
12    3  0.4773567E-008  0.1355185E+04  0.7818608E-02  0.8986912E-01
          1   -1    0    0  501    0  0.00000000000E+00  0.00000000000E+00  0.10681205416E+04  0.10681205416E+04  0.00000000000E+00 0. -1.
         -1   -1    0    0    0  501 -0.00000000000E+00 -0.00000000000E+00 -0.42985003863E+03  0.42985003863E+03  0.00000000000E+00 0.  1.
         23    2    1    2    0    0  0.51585288987E+02  0.33315995242E+03  0.34346337969E+03  0.48868906966E+03  0.84813428634E+02 0.  0.
        254    2    1    2    0    0 -0.51585288987E+02 -0.33315995242E+03  0.29480712328E+03  0.10092815106E+04  0.90447848604E+03 0.  0.
         23    2    4    4    0    0 -0.92187303938E+02 -0.43155288272E+03 -0.20151198268E+03  0.49374200000E+03  0.91856920302E+02 0.  0.
         23    2    4    4    0    0  0.40602014951E+02  0.98392930295E+02  0.49631910596E+03  0.51553951058E+03  0.90103494269E+02 0.  0.
          1    1    3    3  502    0  0.52259746827E+02  0.22581281828E+03  0.28185437236E+03  0.36491697310E+03  0.00000000000E+00 0. -1.
         -1    1    3    3    0  502 -0.67445784028E+00  0.10734713414E+03  0.61609007329E+02  0.12377209656E+03  0.00000000000E+00 0.  1.
         13    1    5    5    0    0 -0.26771974278E+02 -0.11213282405E+03 -0.10260767993E+02  0.11574019265E+03  0.00000000000E+00 0.  1.
        -13    1    5    5    0    0 -0.65415329660E+02 -0.31942005867E+03 -0.19125121469E+03  0.37800180734E+03  0.00000000000E+00 0. -1.
          1    1    6    6  503    0  0.59015191252E+02  0.42687621554E+02  0.35728566387E+03  0.36463416110E+03  0.00000000000E+00 0. -1.
         -1    1    6    6    0  503 -0.18413176301E+02  0.55705308741E+02  0.13903344209E+03  0.15090534948E+03  0.00000000000E+00 0.  1.
<mgrwt>
<rscale>  0 0.13551851E+04</rscale>
<asrwt>0</asrwt>
<pdfrwt beam="1">  1        1 0.16432624E+00 0.13551851E+04</pdfrwt>
<pdfrwt beam="2">  1       -1 0.66130775E-01 0.13551851E+04</pdfrwt>
<totfact> 0.30395738E+01</totfact>
</mgrwt>
</event>
<event>
12    3  0.4773567E-008  0.1792618E+04  0.7818608E-02  0.8710235E-01
         -1   -1    0    0    0  501 -0.00000000000E+00  0.00000000000E+00  0.97209366202E+03  0.97209366202E+03  0.00000000000E+00 0. -1.
          1   -1    0    0  501    0  0.00000000000E+00 -0.00000000000E+00 -0.82643213540E+03  0.82643213540E+03  0.00000000000E+00 0.  1.
         23    2    1    2    0    0  0.61391323925E+03  0.17142087489E+03  0.22767357296E+03  0.68275943787E+03  0.89725205433E+02 0.  0.
        254    2    1    2    0    0 -0.61391323925E+03 -0.17142087489E+03 -0.82012046340E+02  0.11157663596E+04  0.91210416713E+03 0.  0.
         23    2    4    4    0    0 -0.55443022021E+03 -0.63256033302E+02 -0.44647917262E+03  0.72058186675E+03  0.92197506932E+02 0.  0.
         23    2    4    4    0    0 -0.59483019045E+02 -0.10816484159E+03  0.36446712628E+03  0.39518449280E+03  0.89981301973E+02 0.  0.
          3    1    3    3  502    0  0.38161000066E+03  0.85730248604E+02  0.97806975004E+02  0.40316506854E+03  0.00000000000E+00 0. -1.
         -3    1    3    3    0  502  0.23230323859E+03  0.85690626289E+02  0.12986659796E+03  0.27959436933E+03  0.00000000000E+00 0.  1.
         13    1    5    5    0    0 -0.36126354314E+03 -0.65650968586E+02 -0.33779625322E+03  0.49892655368E+03  0.00000000000E+00 0. -1.
        -13    1    5    5    0    0 -0.19316667707E+03  0.23949352841E+01 -0.10868291939E+03  0.22165531307E+03  0.00000000000E+00 0.  1.
          3    1    6    6  503    0 -0.78904195889E+02 -0.80154738098E+02  0.31977096717E+03  0.33897511061E+03  0.00000000000E+00 0. -1.
         -3    1    6    6    0  503  0.19421176844E+02 -0.28010103493E+02  0.44696159109E+02  0.56209382195E+02  0.00000000000E+00 0.  1.
<mgrwt>
<rscale>  0 0.17926176E+04</rscale>
<asrwt>0</asrwt>
<pdfrwt beam="1">  1        1 0.12714340E+00 0.17926176E+04</pdfrwt>
<pdfrwt beam="2">  1       -1 0.14955287E+00 0.17926176E+04</pdfrwt>
<totfact> 0.69662890E+00</totfact>
</mgrwt>
</event>
<event>
12    3  0.4773567E-008  0.1813819E+04  0.7818608E-02  0.8698985E-01
         -1   -1    0    0    0  501 -0.00000000000E+00  0.00000000000E+00  0.67207738197E+03  0.67207738197E+03  0.00000000000E+00 0.  1.
          1   -1    0    0  501    0  0.00000000000E+00 -0.00000000000E+00 -0.12237943354E+04  0.12237943354E+04  0.00000000000E+00 0. -1.
         23    2    1    2    0    0  0.65545053514E+03  0.14819022403E+03 -0.11008386293E+03  0.68695206693E+03  0.90603194590E+02 0.  0.
        254    2    1    2    0    0 -0.65545053514E+03 -0.14819022403E+03 -0.44163309053E+03  0.12089196505E+04  0.90270215916E+03 0.  0.
         23    2    4    4    0    0 -0.19948753926E+03 -0.47073869768E+03 -0.51063789207E+02  0.52126559688E+03  0.87864168570E+02 0.  0.
         23    2    4    4    0    0 -0.45596299588E+03  0.32254847364E+03 -0.39056930132E+03  0.68765405359E+03  0.91563894764E+02 0.  0.
          4    1    3    3  502    0  0.60582748909E+03  0.15486027606E+03 -0.11775711221E+03  0.63629819198E+03  0.00000000000E+00 0.  1.
         -4    1    3    3    0  502  0.49623046042E+02 -0.66700520257E+01  0.76732492818E+01  0.50653874946E+02  0.00000000000E+00 0. -1.
         13    1    5    5    0    0 -0.12157264903E+03 -0.21666491646E+03  0.97897140597E+01  0.24863514136E+03  0.00000000000E+00 0. -1.
        -13    1    5    5    0    0 -0.77914890226E+02 -0.25407378122E+03 -0.60853503267E+02  0.27263045553E+03  0.00000000000E+00 0.  1.
          3    1    6    6  503    0 -0.20701549995E+03  0.15985530488E+03 -0.23696589240E+03  0.35293337881E+03  0.00000000000E+00 0. -1.
         -3    1    6    6    0  503 -0.24894749594E+03  0.16269316876E+03 -0.15360340892E+03  0.33472067478E+03  0.00000000000E+00 0.  1.
<mgrwt>
<rscale>  0 0.18138186E+04</rscale>
<asrwt>0</asrwt>
<pdfrwt beam="1">  1        1 0.18827605E+00 0.18138186E+04</pdfrwt>
<pdfrwt beam="2">  1       -1 0.10339652E+00 0.18138186E+04</pdfrwt>
<totfact> 0.85391950E+00</totfact>
</mgrwt>
</event>
<event>
12    3  0.4773567E-008  0.1043472E+04  0.7818608E-02  0.9262110E-01
          1   -1    0    0  501    0  0.00000000000E+00  0.00000000000E+00  0.25905640805E+04  0.25905640805E+04  0.00000000000E+00 0. -1.
         -1   -1    0    0    0  501 -0.00000000000E+00 -0.00000000000E+00 -0.10507684054E+03  0.10507684054E+03  0.00000000000E+00 0.  1.
         23    2    1    2    0    0  0.85787030339E+01 -0.10503371830E+03  0.36754235447E+03  0.39316374200E+03  0.91567841329E+02 0.  0.
        254    2    1    2    0    0 -0.85787030339E+01  0.10503371830E+03  0.21179448855E+04  0.23024771790E+04  0.89699774019E+03 0.  0.
         23    2    4    4    0    0 -0.14198392137E+01  0.48576012918E+03  0.94498451636E+03  0.10663119458E+04  0.89780345645E+02 0.  0.
         23    2    4    4    0    0 -0.71588638202E+01 -0.38072641089E+03  0.11729603691E+04  0.12361652333E+04  0.85232664778E+02 0.  0.
          4    1    3    3  502    0  0.19762221263E+02 -0.47253285274E+02  0.29658823513E+03  0.30097840384E+03  0.00000000000E+00 0. -1.
         -4    1    3    3    0  502 -0.11183518229E+02 -0.57780433021E+02  0.70954119340E+02  0.92185338159E+02  0.00000000000E+00 0.  1.
         13    1    5    5    0    0  0.18681505064E+02  0.43972778609E+03  0.80303353138E+03  0.91573597560E+03  0.00000000000E+00 0. -1.
        -13    1    5    5    0    0 -0.20101344278E+02  0.46032343092E+02  0.14195098498E+03  0.15057597016E+03  0.00000000000E+00 0.  1.
          2    1    6    6  503    0  0.34929279553E+02 -0.93747187750E+02  0.31459966481E+03  0.33012352064E+03  0.00000000000E+00 0.  1.
         -2    1    6    6    0  503 -0.42088143373E+02 -0.28697922314E+03  0.85836070430E+03  0.90604171262E+03  0.00000000000E+00 0. -1.
<mgrwt>
<rscale>  0 0.10434717E+04</rscale>
<asrwt>0</asrwt>
<pdfrwt beam="1">  1        1 0.39854827E+00 0.10434717E+04</pdfrwt>
<pdfrwt beam="2">  1       -1 0.16165670E-01 0.10434717E+04</pdfrwt>
<totfact> 0.34530372E+01</totfact>
</mgrwt>
</event>
<event>
12    3  0.4773567E-008  0.2705720E+04  0.7818608E-02  0.8333151E-01
          2   -1    0    0  501    0  0.00000000000E+00  0.00000000000E+00  0.21173955649E+04  0.21173955649E+04  0.00000000000E+00 0.  1.
         -2   -1    0    0    0  501 -0.00000000000E+00 -0.00000000000E+00 -0.86437819176E+03  0.86437819176E+03  0.00000000000E+00 0. -1.
         23    2    1    2    0    0 -0.13163836658E+02 -0.26740674577E+03 -0.73102100401E+03  0.78374385196E+03  0.90460283598E+02 0.  0.
        254    2    1    2    0    0  0.13163836658E+02  0.26740674577E+03  0.19840383771E+04  0.21980299047E+04  0.90732988803E+03 0.  0.
         23    2    4    4    0    0  0.33109007599E+03  0.12037372962E+03  0.28549026983E+03  0.46134041790E+03  0.84969487545E+02 0.  0.
         23    2    4    4    0    0 -0.31792623933E+03  0.14703301614E+03  0.16985481073E+04  0.17366894868E+04  0.91262803168E+02 0.  0.
          3    1    3    3  502    0 -0.14059873961E+02 -0.17839060608E+03 -0.59379699211E+03  0.62017397256E+03  0.00000000000E+00 0. -1.
         -3    1    3    3    0  502  0.89603730295E+00 -0.89016139691E+02 -0.13722401189E+03  0.16356987940E+03  0.00000000000E+00 0.  1.
         13    1    5    5    0    0  0.65234700324E+02  0.11049889707E+02  0.97646673102E+02  0.11795142626E+03  0.00000000000E+00 0.  1.
        -13    1    5    5    0    0  0.26585537567E+03  0.10932383992E+03  0.18784359673E+03  0.34338899164E+03  0.00000000000E+00 0. -1.
          1    1    6    6  503    0 -0.99745504273E+02  0.29823952069E+02  0.70977290627E+03  0.71736755727E+03  0.00000000000E+00 0. -1.
         -1    1    6    6    0  503 -0.21818073506E+03  0.11720906407E+03  0.98877520101E+03  0.10193219295E+04  0.00000000000E+00 0.  1.
<mgrwt>
<rscale>  0 0.27057203E+04</rscale>
<asrwt>0</asrwt>
<pdfrwt beam="1">  1        2 0.32575316E+00 0.27057203E+04</pdfrwt>
<pdfrwt beam="2">  1       -2 0.13298126E+00 0.27057203E+04</pdfrwt>
<totfact> 0.20655802E+00</totfact>
</mgrwt>
</event>
<event>
12    3  0.4773567E-008  0.1522578E+04  0.7818608E-02  0.8869576E-01
          2   -1    0    0  501    0  0.00000000000E+00  0.00000000000E+00  0.68022145995E+03  0.68022145995E+03  0.00000000000E+00 0. -1.
         -2   -1    0    0    0  501 -0.00000000000E+00 -0.00000000000E+00 -0.85201835836E+03  0.85201835836E+03  0.00000000000E+00 0.  1.
         23    2    1    2    0    0  0.24128505154E+03 -0.29795032602E+03 -0.36189567489E+03  0.53506535236E+03  0.91288438055E+02 0.  0.
        254    2    1    2    0    0 -0.24128505154E+03  0.29795032602E+03  0.19009877648E+03  0.99717446594E+03  0.90068112995E+03 0.  0.
         23    2    4    4    0    0 -0.72445322264E+01 -0.21709964772E+03 -0.19601650140E+03  0.30651589978E+03  0.91349809577E+02 0.  0.
         23    2    4    4    0    0 -0.23404051931E+03  0.51504997373E+03  0.38611527788E+03  0.69065856616E+03  0.88728840191E+02 0.  0.
          1    1    3    3  502    0  0.54827362524E+02 -0.23087691178E+02 -0.78222529317E+02  0.98274336721E+02  0.00000000000E+00 0. -1.
         -1    1    3    3    0  502  0.18645768901E+03 -0.27486263484E+03 -0.28367314557E+03  0.43679101564E+03  0.00000000000E+00 0.  1.
         13    1    5    5    0    0 -0.39295105055E+02 -0.10571844192E+03 -0.13372273766E+03  0.17493503025E+03  0.00000000000E+00 0.  1.
        -13    1    5    5    0    0  0.32050572828E+02 -0.11138120580E+03 -0.62293763743E+02  0.13158086953E+03  0.00000000000E+00 0. -1.
          3    1    6    6  503    0 -0.77757273484E+02  0.21520969573E+03  0.10888617007E+03  0.25341192700E+03  0.00000000000E+00 0. -1.
         -3    1    6    6    0  503 -0.15628324583E+03  0.29984027800E+03  0.27722910781E+03  0.43724663916E+03  0.00000000000E+00 0.  1.
<mgrwt>
<rscale>  0 0.15225783E+04</rscale>
<asrwt>0</asrwt>
<pdfrwt beam="1">  1        2 0.10464946E+00 0.15225783E+04</pdfrwt>
<pdfrwt beam="2">  1       -2 0.13107975E+00 0.15225783E+04</pdfrwt>
<totfact> 0.17421219E+01</totfact>
</mgrwt>
</event>
<event>
12    3  0.4773567E-008  0.1205134E+04  0.7818608E-02  0.9108374E-01
          1   -1    0    0  501    0  0.00000000000E+00  0.00000000000E+00  0.56811283792E+03  0.56811283792E+03  0.00000000000E+00 0. -1.
         -1   -1    0    0    0  501 -0.00000000000E+00 -0.00000000000E+00 -0.63911080957E+03  0.63911080957E+03  0.00000000000E+00 0.  1.
         23    2    1    2    0    0  0.20480192162E+03 -0.13855795303E+03  0.49681378281E+02  0.26770793942E+03  0.89761729230E+02 0.  0.
        254    2    1    2    0    0 -0.20480192162E+03  0.13855795303E+03 -0.12067934994E+03  0.93951570807E+03  0.89832295237E+03 0.  0.
         23    2    4    4    0    0 -0.43898800699E+03 -0.20432696434E+03 -0.14463697312E+03  0.51362869500E+03  0.91840098521E+02 0.  0.
         23    2    4    4    0    0  0.23418608537E+03  0.34288491736E+03  0.23957623179E+02  0.42588701307E+03  0.91611085899E+02 0.  0.
          1    1    3    3  502    0  0.14638118807E+03 -0.14270576358E+03  0.40949550210E+02  0.20849281245E+03  0.00000000000E+00 0. -1.
         -1    1    3    3    0  502  0.58420733549E+02  0.41478105540E+01  0.87318280707E+01  0.59215126972E+02  0.00000000000E+00 0.  1.
         13    1    5    5    0    0 -0.85297188060E+02 -0.32963180419E+02 -0.66119246258E+02  0.11284474414E+03  0.00000000000E+00 0.  1.
        -13    1    5    5    0    0 -0.35369081893E+03 -0.17136378392E+03 -0.78517726858E+02  0.40078395086E+03  0.00000000000E+00 0. -1.
          1    1    6    6  503    0  0.18846299679E+03  0.21541450225E+03 -0.95555966789E+01  0.28637915141E+03  0.00000000000E+00 0. -1.
         -1    1    6    6    0  503  0.45723088581E+02  0.12747041512E+03  0.33513219857E+02  0.13950786166E+03  0.00000000000E+00 0.  1.
<mgrwt>
<rscale>  0 0.12051341E+04</rscale>
<asrwt>0</asrwt>
<pdfrwt beam="1">  1        1 0.87401975E-01 0.12051341E+04</pdfrwt>
<pdfrwt beam="2">  1       -1 0.98324740E-01 0.12051341E+04</pdfrwt>
<totfact> 0.36326620E+01</totfact>
</mgrwt>
</event>
<event>
12    3  0.4773567E-008  0.2157930E+04  0.7818608E-02  0.8536146E-01
          1   -1    0    0  501    0  0.00000000000E+00  0.00000000000E+00  0.19396744507E+04  0.19396744507E+04  0.00000000000E+00 0. -1.
         -1   -1    0    0    0  501 -0.00000000000E+00 -0.00000000000E+00 -0.60018574925E+03  0.60018574925E+03  0.00000000000E+00 0.  1.
         23    2    1    2    0    0 -0.54361445037E+03 -0.74083112693E+02 -0.27652481701E+03  0.62137259511E+03  0.92913665806E+02 0.  0.
        254    2    1    2    0    0  0.54361445037E+03  0.74083112693E+02  0.16160135185E+04  0.19184876049E+04  0.87640745083E+03 0.  0.
         23    2    4    4    0    0  0.16438419687E+03 -0.34837218199E+03  0.99787644004E+03  0.10736686038E+04  0.92852247183E+02 0.  0.
         23    2    4    4    0    0  0.37923025350E+03  0.42245529468E+03  0.61813707846E+03  0.84481900109E+03  0.96652137428E+02 0.  0.
          4    1    3    3  502    0 -0.38427975542E+03 -0.65472473186E+02 -0.23967972697E+03  0.45760675988E+03  0.00000000000E+00 0.  1.
         -4    1    3    3    0  502 -0.15933469495E+03 -0.86106395076E+01 -0.36845090044E+02  0.16376583523E+03  0.00000000000E+00 0. -1.
         13    1    5    5    0    0  0.17013928367E+03 -0.34829308813E+03  0.95914362659E+03  0.10345104869E+04  0.00000000000E+00 0. -1.
        -13    1    5    5    0    0 -0.57550867998E+01 -0.79093854438E-01  0.38732813454E+02  0.39158116885E+02  0.00000000000E+00 0.  1.
          1    1    6    6  503    0  0.25718919098E+03  0.34526978902E+03  0.44148215513E+03  0.61665549577E+03  0.00000000000E+00 0. -1.
         -1    1    6    6    0  503  0.12204106252E+03  0.77185505665E+02  0.17665492332E+03  0.22816350532E+03  0.00000000000E+00 0.  1.
<mgrwt>
<rscale>  0 0.21579295E+04</rscale>
<asrwt>0</asrwt>
<pdfrwt beam="1">  1        1 0.29841145E+00 0.21579295E+04</pdfrwt>
<pdfrwt beam="2">  1       -1 0.92336270E-01 0.21579295E+04</pdfrwt>
<totfact> 0.34189492E+00</totfact>
</mgrwt>
</event>
<event>
12    3  0.4773567E-008  0.1394010E+04  0.7818608E-02  0.8958166E-01
         -2   -1    0    0    0  501 -0.00000000000E+00  0.00000000000E+00  0.27211858040E+03  0.27211858040E+03  0.00000000000E+00 0.  1.
          2   -1    0    0  501    0  0.00000000000E+00 -0.00000000000E+00 -0.17853092148E+04  0.17853092148E+04  0.00000000000E+00 0. -1.
         23    2    1    2    0    0  0.36712271585E+03  0.11576285806E+03 -0.29328288615E+03  0.49245560872E+03  0.91200589067E+02 0.  0.
        254    2    1    2    0    0 -0.36712271585E+03 -0.11576285806E+03 -0.12199077482E+04  0.15649721865E+04  0.90154473124E+03 0.  0.
         23    2    4    4    0    0 -0.64478945769E+03 -0.18707303455E+03 -0.80000439234E+03  0.10482693854E+04  0.90066151764E+02 0.  0.
         23    2    4    4    0    0  0.27766674185E+03  0.71310176492E+02 -0.41990335588E+03  0.51670280102E+03  0.92081461204E+02 0.  0.
          2    1    3    3  502    0  0.29873383684E+03  0.95963732552E+02 -0.27893266180E+03  0.41982659880E+03  0.00000000000E+00 0. -1.
         -2    1    3    3    0  502  0.68388879008E+02  0.19799125508E+02 -0.14350224357E+02  0.72629009920E+02  0.00000000000E+00 0.  1.
         13    1    5    5    0    0 -0.48225182759E+03 -0.15192680031E+03 -0.54115522046E+03  0.74060620474E+03  0.00000000000E+00 0.  1.
        -13    1    5    5    0    0 -0.16253763011E+03 -0.35146234240E+02 -0.25884917188E+03  0.30766318071E+03  0.00000000000E+00 0. -1.
          4    1    6    6  503    0  0.95453759737E+02  0.66926902595E+02 -0.13367149198E+03  0.17736600099E+03  0.00000000000E+00 0. -1.
         -4    1    6    6    0  503  0.18221298211E+03  0.43832738975E+01 -0.28623186390E+03  0.33933680002E+03  0.00000000000E+00 0.  1.
<mgrwt>
<rscale>  0 0.13940098E+04</rscale>
<asrwt>0</asrwt>
<pdfrwt beam="1">  1        2 0.27466295E+00 0.13940098E+04</pdfrwt>
<pdfrwt beam="2">  1       -2 0.41864398E-01 0.13940098E+04</pdfrwt>
<totfact> 0.46291491E+01</totfact>
</mgrwt>
</event>
<event>
12    3  0.4773567E-008  0.1415003E+04  0.7818608E-02  0.8943029E-01
         -2   -1    0    0    0  501 -0.00000000000E+00  0.00000000000E+00  0.10722870489E+04  0.10722870489E+04  0.00000000000E+00 0. -1.
          2   -1    0    0  501    0  0.00000000000E+00 -0.00000000000E+00 -0.46681405061E+03  0.46681405061E+03  0.00000000000E+00 0.  1.
         23    2    1    2    0    0  0.32949202353E+02 -0.40030383073E+03  0.63744218403E+02  0.41675524272E+03  0.91064812756E+02 0.  0.
        254    2    1    2    0    0 -0.32949202353E+02  0.40030383073E+03  0.54172877984E+03  0.11223458567E+04  0.89714064918E+03 0.  0.
         23    2    4    4    0    0 -0.25734694283E+03  0.60104115839E+03  0.43155593587E+03  0.78887553095E+03  0.92769361847E+02 0.  0.
         23    2    4    4    0    0  0.22439774048E+03 -0.20073732765E+03  0.11017284398E+03  0.33347032579E+03  0.91731030688E+02 0.  0.
          2    1    3    3  502    0  0.56769652151E+01 -0.84776497053E+02  0.52447639685E+02  0.99850074086E+02  0.00000000000E+00 0. -1.
         -2    1    3    3    0  502  0.27272237138E+02 -0.31552733368E+03  0.11296578718E+02  0.31690516864E+03  0.00000000000E+00 0.  1.
         13    1    5    5    0    0 -0.32939101355E+02  0.17450449228E+03  0.99074629928E+02  0.20335334892E+03  0.00000000000E+00 0.  1.
        -13    1    5    5    0    0 -0.22440784148E+03  0.42653666611E+03  0.33248130594E+03  0.58552218203E+03  0.00000000000E+00 0. -1.
          4    1    6    6  503    0  0.19170861360E+03 -0.14175116334E+03  0.11719097144E+03  0.26566766574E+03  0.00000000000E+00 0. -1.
         -4    1    6    6    0  503  0.32689126879E+02 -0.58986164317E+02 -0.70181274622E+01  0.67802660051E+02  0.00000000000E+00 0.  1.
<mgrwt>
<rscale>  0 0.14150034E+04</rscale>
<asrwt>0</asrwt>
<pdfrwt beam="1">  1        2 0.71817546E-01 0.14150034E+04</pdfrwt>
<pdfrwt beam="2">  1       -2 0.16496724E+00 0.14150034E+04</pdfrwt>
<totfact> 0.15000726E+01</totfact>
</mgrwt>
</event>
<event>
12    3  0.4773567E-008  0.1372756E+04  0.7818608E-02  0.8973779E-01
         -1   -1    0    0    0  501 -0.00000000000E+00  0.00000000000E+00  0.33098278096E+03  0.33098278096E+03  0.00000000000E+00 0.  1.
          1   -1    0    0  501    0  0.00000000000E+00 -0.00000000000E+00 -0.14233804652E+04  0.14233804652E+04  0.00000000000E+00 0. -1.
         23    2    1    2    0    0 -0.38247613683E+03 -0.25130346224E+02 -0.29271701635E+03  0.49060217591E+03  0.89931717437E+02 0.  0.
        254    2    1    2    0    0  0.38247613683E+03  0.25130346224E+02 -0.79968066788E+03  0.12637610702E+04  0.90037955468E+03 0.  0.
         23    2    4    4    0    0 -0.12715417615E+03  0.32712655492E+03 -0.19170164783E+03  0.41019763729E+03  0.91283144184E+02 0.  0.
         23    2    4    4    0    0  0.50963031299E+03 -0.30199620869E+03 -0.60797902004E+03  0.85356343293E+03  0.89483402084E+02 0.  0.
          1    1    3    3  502    0 -0.15197899174E+03 -0.38314922276E+02 -0.76976388816E+02  0.17461675645E+03  0.00000000000E+00 0. -1.
         -1    1    3    3    0  502 -0.23049714509E+03  0.13184576053E+02 -0.21574062753E+03  0.31598541946E+03  0.00000000000E+00 0.  1.
         13    1    5    5    0    0 -0.10885383289E+03  0.31699233047E+03 -0.15801191490E+03  0.37054157630E+03  0.00000000000E+00 0.  1.
        -13    1    5    5    0    0 -0.18300343263E+02  0.10134224445E+02 -0.33689732932E+02  0.39656060995E+02  0.00000000000E+00 0. -1.
          4    1    6    6  503    0  0.37227826972E+03 -0.24382357325E+03 -0.40536944725E+03  0.60196796737E+03  0.00000000000E+00 0.  1.
         -4    1    6    6    0  503  0.13735204327E+03 -0.58172635447E+02 -0.20260957280E+03  0.25159546557E+03  0.00000000000E+00 0. -1.
<mgrwt>
<rscale>  0 0.13727555E+04</rscale>
<asrwt>0</asrwt>
<pdfrwt beam="1">  1        1 0.21898161E+00 0.13727555E+04</pdfrwt>
<pdfrwt beam="2">  1       -1 0.50920428E-01 0.13727555E+04</pdfrwt>
<totfact> 0.28017970E+01</totfact>
</mgrwt>
</event>
<event>
12    3  0.4773567E-008  0.1300343E+04  0.7818608E-02  0.9029293E-01
          2   -1    0    0  501    0  0.00000000000E+00  0.00000000000E+00  0.14637156358E+04  0.14637156358E+04  0.00000000000E+00 0. -1.
         -2   -1    0    0    0  501 -0.00000000000E+00 -0.00000000000E+00 -0.28880115864E+03  0.28880115864E+03  0.00000000000E+00 0.  1.
         23    2    1    2    0    0  0.10835743790E+03 -0.20504074233E+03 -0.12793010145E+02  0.24822082248E+03  0.87560694616E+02 0.  0.
        254    2    1    2    0    0 -0.10835743790E+03  0.20504074233E+03  0.11877074873E+04  0.15042959719E+04  0.89357386683E+03 0.  0.
         23    2    4    4    0    0 -0.68780916069E+01  0.18324057787E+03  0.13070190819E+04  0.13231730951E+04  0.94147446039E+02 0.  0.
         23    2    4    4    0    0 -0.10147934629E+03  0.21800164466E+02 -0.11931159465E+03  0.18112287682E+03  0.88300254787E+02 0.  0.
          4    1    3    3  502    0  0.21567734573E+02 -0.71008053687E+01 -0.22373697141E+02  0.31877436146E+02  0.00000000000E+00 0.  1.
         -4    1    3    3    0  502  0.86789703323E+02 -0.19793993696E+03  0.95806869966E+01  0.21634338634E+03  0.00000000000E+00 0. -1.
         13    1    5    5    0    0  0.90006515038E+01  0.16046237360E+03  0.12436005033E+04  0.12539423419E+04  0.00000000000E+00 0. -1.
        -13    1    5    5    0    0 -0.15878743111E+02  0.22778204264E+02  0.63418578653E+02  0.69230753215E+02  0.00000000000E+00 0.  1.
          3    1    6    6  503    0 -0.94294873519E+02  0.23929357945E+02 -0.46321004947E+02  0.10774865588E+03  0.00000000000E+00 0. -1.
         -3    1    6    6    0  503 -0.71844727700E+01 -0.21291934793E+01 -0.72990589705E+02  0.73374220945E+02  0.00000000000E+00 0.  1.
<mgrwt>
<rscale>  0 0.13003427E+04</rscale>
<asrwt>0</asrwt>
<pdfrwt beam="1">  1        2 0.22518702E+00 0.13003427E+04</pdfrwt>
<pdfrwt beam="2">  1       -2 0.44430948E-01 0.13003427E+04</pdfrwt>
<totfact> 0.62643497E+01</totfact>
</mgrwt>
</event>
<event>
12    3  0.4773567E-008  0.1745349E+04  0.7818608E-02  0.8735915E-01
         -2   -1    0    0    0  501 -0.00000000000E+00  0.00000000000E+00  0.50367321165E+03  0.50367321165E+03  0.00000000000E+00 0.  1.
          2   -1    0    0  501    0  0.00000000000E+00 -0.00000000000E+00 -0.15120137201E+04  0.15120137201E+04  0.00000000000E+00 0. -1.
         23    2    1    2    0    0  0.89162661040E+02 -0.94177489970E+02  0.34407964783E+03  0.37830364441E+03  0.88901426222E+02 0.  0.
        254    2    1    2    0    0 -0.89162661040E+02  0.94177489970E+02 -0.13524201563E+04  0.16373832873E+04  0.91387327940E+03 0.  0.
         23    2    4    4    0    0  0.42364324800E+02 -0.14913153843E+03 -0.13313233885E+04  0.13436070410E+04  0.93930634098E+02 0.  0.
         23    2    4    4    0    0 -0.13152698584E+03  0.24330902840E+03 -0.21096767797E+02  0.29377624638E+03  0.96751113789E+02 0.  0.
          4    1    3    3  502    0  0.14472840390E+02  0.16880765329E+02  0.66999288993E+02  0.70592691354E+02  0.00000000000E+00 0. -1.
         -4    1    3    3    0  502  0.74689820651E+02 -0.11105825530E+03  0.27708035884E+03  0.30771095306E+03  0.00000000000E+00 0.  1.
         13    1    5    5    0    0  0.17526729547E+02  0.97496543595E+01 -0.17804544869E+03  0.17917149273E+03  0.00000000000E+00 0. -1.
        -13    1    5    5    0    0  0.24837595254E+02 -0.15888119279E+03 -0.11532779398E+04  0.11644355482E+04  0.00000000000E+00 0.  1.
          4    1    6    6  503    0 -0.51333137593E+02  0.54526914301E+02  0.32720039305E+02  0.81724392751E+02  0.00000000000E+00 0. -1.
         -4    1    6    6    0  503 -0.80193848248E+02  0.18878211410E+03 -0.53816807102E+02  0.21205185363E+03  0.00000000000E+00 0.  1.
<mgrwt>
<rscale>  0 0.17453490E+04</rscale>
<asrwt>0</asrwt>
<pdfrwt beam="1">  1        2 0.23261749E+00 0.17453490E+04</pdfrwt>
<pdfrwt beam="2">  1       -2 0.77488187E-01 0.17453490E+04</pdfrwt>
<totfact> 0.17593781E+01</totfact>
</mgrwt>
</event>
<event>
12    3  0.4773567E-008  0.1340037E+04  0.7818608E-02  0.8998404E-01
         -1   -1    0    0    0  501 -0.00000000000E+00  0.00000000000E+00  0.28911121687E+03  0.28911121687E+03  0.00000000000E+00 0.  1.
          1   -1    0    0  501    0  0.00000000000E+00 -0.00000000000E+00 -0.15527753004E+04  0.15527753004E+04  0.00000000000E+00 0. -1.
         23    2    1    2    0    0  0.28480766311E+03  0.20941330993E+03 -0.24259794223E+03  0.43854346411E+03  0.92180632434E+02 0.  0.
        254    2    1    2    0    0 -0.28480766311E+03 -0.20941330993E+03 -0.10210661413E+04  0.14033430531E+04  0.89544755323E+03 0.  0.
         23    2    4    4    0    0  0.64649818674E+02 -0.46301079724E+03 -0.32132113482E+03  0.57472433221E+03  0.92207314934E+02 0.  0.
         23    2    4    4    0    0 -0.34945748178E+03  0.25359748732E+03 -0.69974500644E+03  0.82861872092E+03  0.10263378330E+03 0.  0.
          3    1    3    3  502    0  0.96254656847E+02  0.23640982444E+02 -0.48738855593E+02  0.11045058198E+03  0.00000000000E+00 0. -1.
         -3    1    3    3    0  502  0.18855300626E+03  0.18577232748E+03 -0.19385908664E+03  0.32809288212E+03  0.00000000000E+00 0.  1.
         13    1    5    5    0    0  0.84588867941E+02 -0.42288321554E+03 -0.28361190898E+03  0.51616005801E+03  0.00000000000E+00 0.  1.
        -13    1    5    5    0    0 -0.19939049267E+02 -0.40127581705E+02 -0.37709225840E+02  0.58564274200E+02  0.00000000000E+00 0. -1.
          1    1    6    6  503    0 -0.13831608352E+03  0.15942153718E+03 -0.36868174088E+03  0.42482089347E+03  0.00000000000E+00 0. -1.
         -1    1    6    6    0  503 -0.21114139826E+03  0.94175950140E+02 -0.33106326557E+03  0.40379782745E+03  0.00000000000E+00 0.  1.
<mgrwt>
<rscale>  0 0.13400369E+04</rscale>
<asrwt>0</asrwt>
<pdfrwt beam="1">  1        1 0.23888851E+00 0.13400369E+04</pdfrwt>
<pdfrwt beam="2">  1       -1 0.44478649E-01 0.13400369E+04</pdfrwt>
<totfact> 0.29484874E+01</totfact>
</mgrwt>
</event>
<event>
12    3  0.4773567E-008  0.2316445E+04  0.7818608E-02  0.8471465E-01
         -1   -1    0    0    0  501 -0.00000000000E+00  0.00000000000E+00  0.14389927402E+04  0.14389927402E+04  0.00000000000E+00 0.  1.
          1   -1    0    0  501    0  0.00000000000E+00 -0.00000000000E+00 -0.93223499398E+03  0.93223499398E+03  0.00000000000E+00 0. -1.
         23    2    1    2    0    0  0.75008222417E+02  0.69691833339E+03  0.90481932309E+03  0.11478936838E+04  0.87409982337E+02 0.  0.
        254    2    1    2    0    0 -0.75008222417E+02 -0.69691833339E+03 -0.39806157687E+03  0.12233340504E+04  0.92020203381E+03 0.  0.
         23    2    4    4    0    0 -0.13893651698E+03 -0.18564168368E+03  0.27408804853E+03  0.37157519962E+03  0.95800209587E+02 0.  0.
         23    2    4    4    0    0  0.63928294558E+02 -0.51127664971E+03 -0.67214962540E+03  0.85175885078E+03  0.90649774288E+02 0.  0.
          3    1    3    3  502    0 -0.50292610988E+01  0.22160854694E+01  0.16247530307E+02  0.17151872874E+02  0.00000000000E+00 0. -1.
         -3    1    3    3    0  502  0.80037483516E+02  0.69470224792E+03  0.88857179278E+03  0.11307418109E+04  0.00000000000E+00 0.  1.
         13    1    5    5    0    0  0.83472960887E+01 -0.16154871679E+02  0.54724426178E+02  0.57666455166E+02  0.00000000000E+00 0. -1.
        -13    1    5    5    0    0 -0.14728381306E+03 -0.16948681200E+03  0.21936362235E+03  0.31390874445E+03  0.00000000000E+00 0.  1.
          1    1    6    6  503    0  0.11873290770E+02 -0.18245850283E+03 -0.17260019006E+03  0.25144165506E+03  0.00000000000E+00 0. -1.
         -1    1    6    6    0  503  0.52055003788E+02 -0.32881814687E+03 -0.49954943533E+03  0.60031719572E+03  0.00000000000E+00 0.  1.
<mgrwt>
<rscale>  0 0.23164450E+04</rscale>
<asrwt>0</asrwt>
<pdfrwt beam="1">  1        1 0.14342077E+00 0.23164450E+04</pdfrwt>
<pdfrwt beam="2">  1       -1 0.22138350E+00 0.23164450E+04</pdfrwt>
<totfact> 0.16654417E+00</totfact>
</mgrwt>
</event>
<event>
12    3  0.4773567E-008  0.1451177E+04  0.7818608E-02  0.8917585E-01
         -1   -1    0    0    0  501 -0.00000000000E+00  0.00000000000E+00  0.30365716664E+03  0.30365716664E+03  0.00000000000E+00 0.  1.
          1   -1    0    0  501    0  0.00000000000E+00 -0.00000000000E+00 -0.17337941677E+04  0.17337941677E+04  0.00000000000E+00 0. -1.
         23    2    1    2    0    0 -0.31195608744E+03 -0.29704039088E+03 -0.57083201919E+03  0.72090898652E+03  0.91164567703E+02 0.  0.
        254    2    1    2    0    0  0.31195608744E+03  0.29704039088E+03 -0.85930498188E+03  0.13165423478E+04  0.89962720471E+03 0.  0.
         23    2    4    4    0    0  0.13140870676E+03  0.40206056614E+03 -0.50531382208E+01  0.43243946307E+03  0.89763065662E+02 0.  0.
         23    2    4    4    0    0  0.18054738068E+03 -0.10502017526E+03 -0.85425184366E+03  0.88410288477E+03  0.90912620555E+02 0.  0.
          3    1    3    3  502    0 -0.27802853235E+03 -0.22630133561E+03 -0.49983545423E+03  0.61509969972E+03  0.00000000000E+00 0. -1.
         -3    1    3    3    0  502 -0.33927555093E+02 -0.70739055271E+02 -0.70996564959E+02  0.10580928679E+03  0.00000000000E+00 0.  1.
         13    1    5    5    0    0  0.96596770601E+02  0.28010671302E+03  0.37516321074E+02  0.29866064541E+03  0.00000000000E+00 0.  1.
        -13    1    5    5    0    0  0.34811936161E+02  0.12195385311E+03 -0.42569459295E+02  0.13377881766E+03  0.00000000000E+00 0. -1.
          2    1    6    6  503    0  0.18806050820E+02 -0.31985516827E+02 -0.29613561864E+03  0.29845107716E+03  0.00000000000E+00 0. -1.
         -2    1    6    6    0  503  0.16174132986E+03 -0.73034658430E+02 -0.55811622502E+03  0.58565180761E+03  0.00000000000E+00 0.  1.
<mgrwt>
<rscale>  0 0.14511775E+04</rscale>
<asrwt>0</asrwt>
<pdfrwt beam="1">  1        1 0.26673757E+00 0.14511775E+04</pdfrwt>
<pdfrwt beam="2">  1       -1 0.46716486E-01 0.14511775E+04</pdfrwt>
<totfact> 0.20040342E+01</totfact>
</mgrwt>
</event>
<event>
12    3  0.4773567E-008  0.1906354E+04  0.7818608E-02  0.8651700E-01
         -1   -1    0    0    0  501 -0.00000000000E+00  0.00000000000E+00  0.52726450067E+03  0.52726450067E+03  0.00000000000E+00 0.  1.
          1   -1    0    0  501    0  0.00000000000E+00 -0.00000000000E+00 -0.17231322067E+04  0.17231322067E+04  0.00000000000E+00 0. -1.
         23    2    1    2    0    0  0.62018555569E+02  0.11923917168E+03 -0.12982915976E+04  0.13084460414E+04  0.91682547840E+02 0.  0.
        254    2    1    2    0    0 -0.62018555569E+02 -0.11923917168E+03  0.10242389154E+03  0.94195066600E+03  0.92666937056E+03 0.  0.
         23    2    4    4    0    0  0.13373866922E+03  0.22695797695E+03  0.36325594246E+03  0.45785595655E+03  0.91001331149E+02 0.  0.
         23    2    4    4    0    0 -0.19575722479E+03 -0.34619714863E+03 -0.26083205092E+03  0.48409470945E+03  0.90227335930E+02 0.  0.
          4    1    3    3  502    0  0.60348341342E+02  0.13003740426E+03 -0.12708320624E+04  0.12788924035E+04  0.00000000000E+00 0. -1.
         -4    1    3    3    0  502  0.16702142268E+01 -0.10798232578E+02 -0.27459535187E+02  0.29553637933E+02  0.00000000000E+00 0.  1.
         13    1    5    5    0    0 -0.31048940769E+01  0.65387656734E+02  0.10708777066E+03  0.12551086266E+03  0.00000000000E+00 0.  1.
        -13    1    5    5    0    0  0.13684356330E+03  0.16157032021E+03  0.25616817180E+03  0.33234509389E+03  0.00000000000E+00 0. -1.
          1    1    6    6  503    0 -0.19995936405E+03 -0.29623222757E+03 -0.22280167964E+03  0.42116252014E+03  0.00000000000E+00 0. -1.
         -1    1    6    6    0  503  0.42021392572E+01 -0.49964921061E+02 -0.38030371284E+02  0.62932189307E+02  0.00000000000E+00 0.  1.
<mgrwt>
<rscale>  0 0.19063541E+04</rscale>
<asrwt>0</asrwt>
<pdfrwt beam="1">  1        1 0.26509726E+00 0.19063541E+04</pdfrwt>
<pdfrwt beam="2">  1       -1 0.81117615E-01 0.19063541E+04</pdfrwt>
<totfact> 0.65074189E+00</totfact>
</mgrwt>
</event>
<event>
12    3  0.4773567E-008  0.1360725E+04  0.7818608E-02  0.8982749E-01
         -2   -1    0    0    0  501 -0.00000000000E+00  0.00000000000E+00  0.43444002841E+03  0.43444002841E+03  0.00000000000E+00 0.  1.
          2   -1    0    0  501    0  0.00000000000E+00 -0.00000000000E+00 -0.10654941378E+04  0.10654941378E+04  0.00000000000E+00 0. -1.
         23    2    1    2    0    0  0.58254862667E+02  0.35411454971E+03 -0.86128776554E+02  0.38745067793E+03  0.11793692524E+03 0.  0.
        254    2    1    2    0    0 -0.58254862667E+02 -0.35411454971E+03 -0.54492533281E+03  0.11124834883E+04  0.90104669689E+03 0.  0.
         23    2    4    4    0    0 -0.88819387291E+02 -0.23177647471E+03  0.21263960149E+03  0.33916546360E+03  0.90600186465E+02 0.  0.
         23    2    4    4    0    0  0.30564524624E+02 -0.12233807500E+03 -0.75756493430E+03  0.77331802467E+03  0.90638528398E+02 0.  0.
          3    1    3    3  502    0  0.56831861014E+02  0.35308882437E+03 -0.61648774324E+02  0.36290790801E+03  0.00000000000E+00 0. -1.
         -3    1    3    3    0  502  0.14230016525E+01  0.10257253445E+01 -0.24480002230E+02  0.24542769921E+02  0.00000000000E+00 0.  1.
         13    1    5    5    0    0 -0.68818557976E+02 -0.60238670552E+02  0.69881512138E+02  0.11510046521E+03  0.00000000000E+00 0. -1.
        -13    1    5    5    0    0 -0.20000829314E+02 -0.17153780416E+03  0.14275808935E+03  0.22406499839E+03  0.00000000000E+00 0.  1.
          1    1    6    6  503    0  0.62242842637E+02 -0.69261382744E+02 -0.42911081135E+03  0.43909839332E+03  0.00000000000E+00 0. -1.
         -1    1    6    6    0  503 -0.31678318013E+02 -0.53076692255E+02 -0.32845412295E+03  0.33421963134E+03  0.00000000000E+00 0.  1.
<mgrwt>
<rscale>  0 0.13607253E+04</rscale>
<asrwt>0</asrwt>
<pdfrwt beam="1">  1        2 0.16392217E+00 0.13607253E+04</pdfrwt>
<pdfrwt beam="2">  1       -2 0.66836928E-01 0.13607253E+04</pdfrwt>
<totfact> 0.45933860E+01</totfact>
</mgrwt>
</event>
<event>
12    3  0.4773567E-008  0.3351498E+04  0.7818608E-02  0.8149914E-01
         -2   -1    0    0    0  501 -0.00000000000E+00  0.00000000000E+00  0.16390327340E+04  0.16390327340E+04  0.00000000000E+00 0. -1.
          2   -1    0    0  501    0  0.00000000000E+00 -0.00000000000E+00 -0.17132878231E+04  0.17132878231E+04  0.00000000000E+00 0.  1.
         23    2    1    2    0    0 -0.67588156132E+02 -0.57710803395E+03  0.14063017822E+04  0.15243730696E+04  0.91688118530E+02 0.  0.
        254    2    1    2    0    0  0.67588156132E+02  0.57710803395E+03 -0.14805568713E+04  0.18279474876E+04  0.90095589599E+03 0.  0.
         23    2    4    4    0    0  0.15839026543E+03  0.13517873186E+03  0.47049086609E+02  0.23248405389E+03  0.92056792432E+02 0.  0.
         23    2    4    4    0    0 -0.90802109300E+02  0.44192930209E+03 -0.15276059579E+04  0.15954634337E+04  0.91526359808E+02 0.  0.
          2    1    3    3  502    0 -0.35883428873E+02 -0.52562281712E+03  0.12858846085E+04  0.13896280772E+04  0.00000000000E+00 0. -1.
         -2    1    3    3    0  502 -0.31704727260E+02 -0.51485216825E+02  0.12041717365E+03  0.13474499245E+03  0.00000000000E+00 0.  1.
         13    1    5    5    0    0 -0.37403436844E+01  0.14712412067E+01 -0.13254645858E+02  0.13850644692E+02  0.00000000000E+00 0.  1.
        -13    1    5    5    0    0  0.16213060912E+03  0.13370749065E+03  0.60303732467E+02  0.21863340920E+03  0.00000000000E+00 0. -1.
          1    1    6    6  503    0 -0.10808968581E+03  0.33997289366E+03 -0.12034666173E+04  0.12552278070E+04  0.00000000000E+00 0. -1.
         -1    1    6    6    0  503  0.17287576511E+02  0.10195640843E+03 -0.32413934059E+03  0.34023562665E+03  0.00000000000E+00 0.  1.
<mgrwt>
<rscale>  0 0.33514981E+04</rscale>
<asrwt>0</asrwt>
<pdfrwt beam="1">  1        2 0.26358274E+00 0.33514981E+04</pdfrwt>
<pdfrwt beam="2">  1       -2 0.25215888E+00 0.33514981E+04</pdfrwt>
<totfact> 0.49980504E-01</totfact>
</mgrwt>
</event>
<event>
12    3  0.4773567E-008  0.1492194E+04  0.7818608E-02  0.8889660E-01
         -1   -1    0    0    0  501 -0.00000000000E+00  0.00000000000E+00  0.42916566465E+03  0.42916566465E+03  0.00000000000E+00 0.  1.
          1   -1    0    0  501    0  0.00000000000E+00 -0.00000000000E+00 -0.12970766769E+04  0.12970766769E+04  0.00000000000E+00 0. -1.
         23    2    1    2    0    0  0.17789830273E+03 -0.66674531760E+02  0.22401360904E+03  0.30727244518E+03  0.90227264338E+02 0.  0.
        254    2    1    2    0    0 -0.17789830273E+03  0.66674531760E+02 -0.10919246212E+04  0.14189698963E+04  0.88604903302E+03 0.  0.
         23    2    4    4    0    0  0.12964228125E+03 -0.98710187239E+02  0.73582679824E+02  0.19894953079E+03  0.87267879997E+02 0.  0.
         23    2    4    4    0    0 -0.30754058398E+03  0.16538471900E+03 -0.11655073011E+04  0.12200203655E+04  0.90050582576E+02 0.  0.
          4    1    3    3  502    0  0.10568703513E+03 -0.25255590304E+02  0.61957593362E+02  0.12508532132E+03  0.00000000000E+00 0. -1.
         -4    1    3    3    0  502  0.72211267603E+02 -0.41418941456E+02  0.16205601568E+03  0.18218712385E+03  0.00000000000E+00 0.  1.
         13    1    5    5    0    0  0.64245263327E+02 -0.49402833390E+01  0.28148659962E+01  0.64496385402E+02  0.00000000000E+00 0. -1.
        -13    1    5    5    0    0  0.65397017921E+02 -0.93769903900E+02  0.70767813828E+02  0.13445314539E+03  0.00000000000E+00 0.  1.
          3    1    6    6  503    0 -0.44826810866E+02  0.17317099622E+02 -0.29186067350E+03  0.29579042859E+03  0.00000000000E+00 0. -1.
         -3    1    6    6    0  503 -0.26271377311E+03  0.14806761938E+03 -0.87364662757E+03  0.92422993695E+03  0.00000000000E+00 0.  1.
<mgrwt>
<rscale>  0 0.14921941E+04</rscale>
<asrwt>0</asrwt>
<pdfrwt beam="1">  1        1 0.19955026E+00 0.14921941E+04</pdfrwt>
<pdfrwt beam="2">  1       -1 0.66025487E-01 0.14921941E+04</pdfrwt>
<totfact> 0.20454072E+01</totfact>
</mgrwt>
</event>
<event>
12    3  0.4773567E-008  0.1066797E+04  0.7818608E-02  0.9238172E-01
          2   -1    0    0  501    0  0.00000000000E+00  0.00000000000E+00  0.10945587123E+04  0.10945587123E+04  0.00000000000E+00 0. -1.
         -2   -1    0    0    0  501 -0.00000000000E+00 -0.00000000000E+00 -0.25993469748E+03  0.25993469748E+03  0.00000000000E+00 0.  1.
         23    2    1    2    0    0  0.10700902885E+03  0.18431718776E+02  0.17236274159E+03  0.22373559543E+03  0.92509683084E+02 0.  0.
        254    2    1    2    0    0 -0.10700902885E+03 -0.18431718776E+02  0.66226127322E+03  0.11307578143E+04  0.91007284332E+03 0.  0.
         23    2    4    4    0    0 -0.23830793699E+03  0.16064175531E+02  0.84722994489E+03  0.88500815447E+03  0.91608533374E+02 0.  0.
         23    2    4    4    0    0  0.13129890814E+03 -0.34495894307E+02 -0.18496867167E+03  0.24574965987E+03  0.88034742135E+02 0.  0.
          2    1    3    3  502    0  0.46700378460E+02  0.37820865860E+02  0.14052713529E+03  0.15283723040E+03  0.00000000000E+00 0. -1.
         -2    1    3    3    0  502  0.60308650389E+02 -0.19389147084E+02  0.31835606295E+02  0.70898365035E+02  0.00000000000E+00 0.  1.
         13    1    5    5    0    0 -0.89422051100E+02  0.40396255027E+02  0.23922904208E+03  0.25857048404E+03  0.00000000000E+00 0. -1.
        -13    1    5    5    0    0 -0.14888588589E+03 -0.24332079496E+02  0.60800090281E+03  0.62643767043E+03  0.00000000000E+00 0.  1.
          3    1    6    6  503    0  0.45104457934E+02  0.24340120425E+02 -0.31499065649E+02  0.60158496695E+02  0.00000000000E+00 0. -1.
         -3    1    6    6    0  503  0.86194450209E+02 -0.58836014732E+02 -0.15346960602E+03  0.18559116317E+03  0.00000000000E+00 0.  1.
<mgrwt>
<rscale>  0 0.10667967E+04</rscale>
<asrwt>0</asrwt>
<pdfrwt beam="1">  1        2 0.16839364E+00 0.10667967E+04</pdfrwt>
<pdfrwt beam="2">  1       -2 0.39989954E-01 0.10667967E+04</pdfrwt>
<totfact> 0.12912937E+02</totfact>
</mgrwt>
</event>
<event>
12    3  0.4773567E-008  0.1625731E+04  0.7818608E-02  0.8804895E-01
          1   -1    0    0  501    0  0.00000000000E+00  0.00000000000E+00  0.74846949128E+03  0.74846949128E+03  0.00000000000E+00 0. -1.
         -1   -1    0    0    0  501 -0.00000000000E+00 -0.00000000000E+00 -0.88280157113E+03  0.88280157113E+03  0.00000000000E+00 0.  1.
         23    2    1    2    0    0  0.39682741586E+03 -0.32269120001E+03 -0.28379302010E+03  0.59058672885E+03  0.81563456825E+02 0.  0.
        254    2    1    2    0    0 -0.39682741586E+03  0.32269120001E+03  0.14946094025E+03  0.10406843336E+04  0.89391481748E+03 0.  0.
         23    2    4    4    0    0 -0.57232907803E+03  0.41068509257E+03 -0.92828035943E+02  0.71612800133E+03  0.89439651224E+02 0.  0.
         23    2    4    4    0    0  0.17550166217E+03 -0.87993892554E+02  0.24228897619E+03  0.32455633223E+03  0.89939458841E+02 0.  0.
          3    1    3    3  502    0  0.17360915472E+03 -0.91655103948E+02 -0.11838421255E+03  0.22925012206E+03  0.00000000000E+00 0. -1.
         -3    1    3    3    0  502  0.22321826114E+03 -0.23103609607E+03 -0.16540880755E+03  0.36133660679E+03  0.00000000000E+00 0.  1.
         13    1    5    5    0    0 -0.25670903020E+03  0.23346587417E+03 -0.25337257594E+02  0.34791926824E+03  0.00000000000E+00 0. -1.
        -13    1    5    5    0    0 -0.31562004783E+03  0.17721921840E+03 -0.67490778349E+02  0.36820873309E+03  0.00000000000E+00 0.  1.
          3    1    6    6  503    0  0.18753589764E-01  0.85720841821E+01 -0.18472129812E+01  0.87688753395E+01  0.00000000000E+00 0. -1.
         -3    1    6    6    0  503  0.17548290858E+03 -0.96565976736E+02  0.24413618917E+03  0.31578745689E+03  0.00000000000E+00 0.  1.
<mgrwt>
<rscale>  0 0.16257307E+04</rscale>
<asrwt>0</asrwt>
<pdfrwt beam="1">  1        1 0.11514915E+00 0.16257307E+04</pdfrwt>
<pdfrwt beam="2">  1       -1 0.13581563E+00 0.16257307E+04</pdfrwt>
<totfact> 0.10672731E+01</totfact>
</mgrwt>
</event>
<event>
12    3  0.4773567E-008  0.1537928E+04  0.7818608E-02  0.8859616E-01
          2   -1    0    0  501    0  0.00000000000E+00  0.00000000000E+00  0.58953048836E+03  0.58953048836E+03  0.00000000000E+00 0. -1.
         -2   -1    0    0    0  501 -0.00000000000E+00 -0.00000000000E+00 -0.10030108781E+04  0.10030108781E+04  0.00000000000E+00 0.  1.
         23    2    1    2    0    0 -0.44194996885E+03 -0.18760667619E+03 -0.29543309005E+02  0.49741046104E+03  0.12660300047E+03 0.  0.
        254    2    1    2    0    0  0.44194996885E+03  0.18760667619E+03 -0.38393708070E+03  0.10951309054E+04  0.90630457247E+03 0.  0.
         23    2    4    4    0    0  0.28439741624E+03  0.53349896533E+03 -0.34731770597E+03  0.70265621342E+03  0.87138562087E+02 0.  0.
         23    2    4    4    0    0  0.15755255260E+03 -0.34589228915E+03 -0.36619374729E+02  0.39247469196E+03  0.90725535001E+02 0.  0.
          2    1    3    3  502    0 -0.67537021127E+02 -0.75430047749E+02  0.20690071425E+02  0.10333934576E+03  0.00000000000E+00 0. -1.
         -2    1    3    3    0  502 -0.37441294772E+03 -0.11217662844E+03 -0.50233380431E+02  0.39407111528E+03  0.00000000000E+00 0.  1.
         13    1    5    5    0    0  0.39803259281E+02  0.31001319536E+02 -0.43102684460E+02  0.66356783150E+02  0.00000000000E+00 0. -1.
        -13    1    5    5    0    0  0.24459415696E+03  0.50249764580E+03 -0.30421502151E+03  0.63629943027E+03  0.00000000000E+00 0.  1.
          3    1    6    6  503    0  0.72506078528E+02 -0.92077262412E+02 -0.42664053342E+02  0.12472199134E+03  0.00000000000E+00 0. -1.
         -3    1    6    6    0  503  0.85046474072E+02 -0.25381502673E+03  0.60446786120E+01  0.26775270062E+03  0.00000000000E+00 0.  1.
<mgrwt>
<rscale>  0 0.15379278E+04</rscale>
<asrwt>0</asrwt>
<pdfrwt beam="1">  1        2 0.90696999E-01 0.15379278E+04</pdfrwt>
<pdfrwt beam="2">  1       -2 0.15430936E+00 0.15379278E+04</pdfrwt>
<totfact> 0.13550533E+01</totfact>
</mgrwt>
</event>
<event>
12    3  0.4773567E-008  0.2212339E+04  0.7818608E-02  0.8513310E-01
          1   -1    0    0  501    0  0.00000000000E+00  0.00000000000E+00  0.14365320321E+04  0.14365320321E+04  0.00000000000E+00 0. -1.
         -1   -1    0    0    0  501 -0.00000000000E+00 -0.00000000000E+00 -0.85178107274E+03  0.85178107274E+03  0.00000000000E+00 0.  1.
         23    2    1    2    0    0  0.42049350005E+03 -0.33808815326E+02 -0.60560201904E+03  0.74361739274E+03  0.90858140751E+02 0.  0.
        254    2    1    2    0    0 -0.42049350005E+03  0.33808815326E+02  0.11903529784E+04  0.15446957121E+04  0.88948682408E+03 0.  0.
         23    2    4    4    0    0 -0.68423796759E+03 -0.27350100156E+02  0.93367469022E+03  0.11609979064E+04  0.85076949351E+02 0.  0.
         23    2    4    4    0    0  0.26374446754E+03  0.61158915482E+02  0.25667828814E+03  0.38369780563E+03  0.89658827501E+02 0.  0.
          3    1    3    3  502    0  0.23344529592E+03  0.26300697339E+02 -0.33895466064E+03  0.41240598303E+03  0.00000000000E+00 0. -1.
         -3    1    3    3    0  502  0.18704820413E+03 -0.60109512665E+02 -0.26664735840E+03  0.33121140971E+03  0.00000000000E+00 0.  1.
         13    1    5    5    0    0 -0.61136668835E+03 -0.45976965753E+02  0.85562938918E+03  0.10526085505E+04  0.00000000000E+00 0.  1.
        -13    1    5    5    0    0 -0.72871279239E+02  0.18626865597E+02  0.78045301039E+02  0.10838935591E+03  0.00000000000E+00 0. -1.
          4    1    6    6  503    0  0.42400514062E+02 -0.18379741707E+02  0.67766081479E+02  0.82023535019E+02  0.00000000000E+00 0. -1.
         -4    1    6    6    0  503  0.22134395348E+03  0.79538657189E+02  0.18891220666E+03  0.30167427062E+03  0.00000000000E+00 0.  1.
<mgrwt>
<rscale>  0 0.22123388E+04</rscale>
<asrwt>0</asrwt>
<pdfrwt beam="1">  1        1 0.22100493E+00 0.22123388E+04</pdfrwt>
<pdfrwt beam="2">  1       -1 0.13104324E+00 0.22123388E+04</pdfrwt>
<totfact> 0.32782987E+00</totfact>
</mgrwt>
</event>
<event>
12    3  0.4773567E-008  0.1546383E+04  0.7818608E-02  0.8854182E-01
         -1   -1    0    0    0  501 -0.00000000000E+00  0.00000000000E+00  0.41050357436E+03  0.41050357436E+03  0.00000000000E+00 0.  1.
          1   -1    0    0  501    0  0.00000000000E+00 -0.00000000000E+00 -0.14563209675E+04  0.14563209675E+04  0.00000000000E+00 0. -1.
         23    2    1    2    0    0  0.33268045719E+03 -0.33820432411E+03 -0.54640084404E+03  0.73089917419E+03  0.10296246417E+03 0.  0.
        254    2    1    2    0    0 -0.33268045719E+03  0.33820432411E+03 -0.49941654908E+03  0.11359253676E+04  0.90324476192E+03 0.  0.
         23    2    4    4    0    0  0.56588930056E+02  0.55269099160E+03 -0.22999294560E+03  0.60816965495E+03  0.91125929242E+02 0.  0.
         23    2    4    4    0    0 -0.38926938724E+03 -0.21448666749E+03 -0.26942360348E+03  0.52775571270E+03  0.91661484807E+02 0.  0.
          4    1    3    3  502    0  0.23586208111E+03 -0.22664298653E+03 -0.44261407366E+03  0.55036822478E+03  0.00000000000E+00 0. -1.
         -4    1    3    3    0  502  0.96818376081E+02 -0.11156133758E+03 -0.10378677038E+03  0.18053094941E+03  0.00000000000E+00 0.  1.
         13    1    5    5    0    0  0.42722199413E+02  0.45011020617E+03 -0.22374818524E+03  0.50446767431E+03  0.00000000000E+00 0. -1.
        -13    1    5    5    0    0  0.13866730643E+02  0.10258078543E+03 -0.62447603565E+01  0.10370198065E+03  0.00000000000E+00 0.  1.
          1    1    6    6  503    0 -0.18152715156E+03 -0.13945826269E+03 -0.10205760249E+03  0.25063213683E+03  0.00000000000E+00 0. -1.
         -1    1    6    6    0  503 -0.20774223569E+03 -0.75028404798E+02 -0.16736600099E+03  0.27712357587E+03  0.00000000000E+00 0.  1.
<mgrwt>
<rscale>  0 0.15463828E+04</rscale>
<asrwt>0</asrwt>
<pdfrwt beam="1">  1        1 0.22404938E+00 0.15463828E+04</pdfrwt>
<pdfrwt beam="2">  1       -1 0.63154395E-01 0.15463828E+04</pdfrwt>
<totfact> 0.17192814E+01</totfact>
</mgrwt>
</event>
<event>
12    3  0.4773567E-008  0.1112012E+04  0.7818608E-02  0.9193563E-01
         -2   -1    0    0    0  501 -0.00000000000E+00  0.00000000000E+00  0.36801674047E+03  0.36801674047E+03  0.00000000000E+00 0.  1.
          2   -1    0    0  501    0  0.00000000000E+00 -0.00000000000E+00 -0.84002344947E+03  0.84002344947E+03  0.00000000000E+00 0. -1.
         23    2    1    2    0    0 -0.17127449268E+03 -0.22113382913E+02 -0.19322603153E+02  0.19496995959E+03  0.88407966861E+02 0.  0.
        254    2    1    2    0    0  0.17127449268E+03  0.22113382913E+02 -0.45268410586E+03  0.10130702303E+04  0.88969907181E+03 0.  0.
         23    2    4    4    0    0  0.20969810241E+03  0.30780610267E+02 -0.70425250843E+03  0.74101964475E+03  0.90651961695E+02 0.  0.
         23    2    4    4    0    0 -0.38423609728E+02 -0.86672273540E+01  0.25156840257E+03  0.27205058560E+03  0.95777687056E+02 0.  0.
          4    1    3    3  502    0 -0.66752172509E+00  0.80672511569E+01 -0.20146683550E+02  0.21712093048E+02  0.00000000000E+00 0. -1.
         -4    1    3    3    0  502 -0.17060697095E+03 -0.30180634070E+02  0.82408039667E+00  0.17325786654E+03  0.00000000000E+00 0.  1.
         13    1    5    5    0    0  0.21152755946E+03  0.12654376601E+02 -0.65922607221E+03  0.69244715029E+03  0.00000000000E+00 0.  1.
        -13    1    5    5    0    0 -0.18294570541E+01  0.18126233666E+02 -0.45026436215E+02  0.48572494462E+02  0.00000000000E+00 0. -1.
          3    1    6    6  503    0 -0.29311374147E+02 -0.40358768156E+02  0.61701590010E+02  0.79341496276E+02  0.00000000000E+00 0. -1.
         -3    1    6    6    0  503 -0.91122355806E+01  0.31691540802E+02  0.18986681256E+03  0.19270908932E+03  0.00000000000E+00 0.  1.
<mgrwt>
<rscale>  0 0.11120120E+04</rscale>
<asrwt>0</asrwt>
<pdfrwt beam="1">  1        2 0.12923437E+00 0.11120120E+04</pdfrwt>
<pdfrwt beam="2">  1       -2 0.56617961E-01 0.11120120E+04</pdfrwt>
<totfact> 0.93666890E+01</totfact>
</mgrwt>
</event>
<event>
12    3  0.4773567E-008  0.1702529E+04  0.7818608E-02  0.8759923E-01
          1   -1    0    0  501    0  0.00000000000E+00  0.00000000000E+00  0.17054032228E+04  0.17054032228E+04  0.00000000000E+00 0. -1.
         -1   -1    0    0    0  501 -0.00000000000E+00 -0.00000000000E+00 -0.42491491942E+03  0.42491491942E+03  0.00000000000E+00 0.  1.
         23    2    1    2    0    0  0.26346600186E+03  0.14762249400E+03 -0.19337059885E+03  0.37030454263E+03  0.92339216559E+02 0.  0.
        254    2    1    2    0    0 -0.26346600186E+03 -0.14762249400E+03  0.14738589022E+04  0.17600135996E+04  0.91333513683E+03 0.  0.
         23    2    4    4    0    0 -0.40829706230E+03  0.27574829829E+03  0.68586519953E+03  0.84925165385E+03  0.89853684122E+02 0.  0.
         23    2    4    4    0    0  0.14483106044E+03 -0.42337079230E+03  0.78799370269E+03  0.91076194572E+03  0.91292839053E+02 0.  0.
          2    1    3    3  502    0  0.57302256430E+02  0.26065813635E+02 -0.89458723868E+02  0.10938847521E+03  0.00000000000E+00 0. -1.
         -2    1    3    3    0  502  0.20616374543E+03  0.12155668037E+03 -0.10391187498E+03  0.26091606742E+03  0.00000000000E+00 0.  1.
         13    1    5    5    0    0 -0.32561030483E+03  0.21015313806E+03  0.59447132899E+03  0.70963552126E+03  0.00000000000E+00 0. -1.
        -13    1    5    5    0    0 -0.82686757469E+02  0.65595160235E+02  0.91393870543E+02  0.13961613259E+03  0.00000000000E+00 0.  1.
          3    1    6    6  503    0  0.13115660465E+03 -0.40081962830E+03  0.68474215804E+03  0.80419540683E+03  0.00000000000E+00 0. -1.
         -3    1    6    6    0  503  0.13674455794E+02 -0.22551163996E+02  0.10325154465E+03  0.10656653889E+03  0.00000000000E+00 0.  1.
<mgrwt>
<rscale>  0 0.17025290E+04</rscale>
<asrwt>0</asrwt>
<pdfrwt beam="1">  1        1 0.26236972E+00 0.17025290E+04</pdfrwt>
<pdfrwt beam="2">  1       -1 0.65371527E-01 0.17025290E+04</pdfrwt>
<totfact> 0.10665322E+01</totfact>
</mgrwt>
</event>
<event>
12    3  0.4773567E-008  0.1547421E+04  0.7818608E-02  0.8853517E-01
          2   -1    0    0  501    0  0.00000000000E+00  0.00000000000E+00  0.12786818970E+04  0.12786818970E+04  0.00000000000E+00 0. -1.
         -2   -1    0    0    0  501 -0.00000000000E+00 -0.00000000000E+00 -0.46815996644E+03  0.46815996644E+03  0.00000000000E+00 0.  1.
         23    2    1    2    0    0  0.42627476921E+03 -0.15916271107E+03  0.52508803125E+03  0.70088946651E+03  0.92117621773E+02 0.  0.
        254    2    1    2    0    0 -0.42627476921E+03  0.15916271107E+03  0.28543389926E+03  0.10459523969E+04  0.89749705193E+03 0.  0.
         23    2    4    4    0    0 -0.59151988908E+03  0.31801160577E+03  0.12501071608E+02  0.67764261693E+03  0.89532557828E+02 0.  0.
         23    2    4    4    0    0  0.16524511987E+03 -0.15884889470E+03  0.27293282765E+03  0.36830977995E+03  0.92848503519E+02 0.  0.
          3    1    3    3  502    0  0.87670650033E+02 -0.43548188572E+02  0.17378163410E+03  0.19945586969E+03  0.00000000000E+00 0. -1.
         -3    1    3    3    0  502  0.33860411918E+03 -0.11561452250E+03  0.35130639715E+03  0.50143359682E+03  0.00000000000E+00 0.  1.
         13    1    5    5    0    0 -0.25727498042E+02  0.33258626185E+02  0.13732565658E+02  0.44233739733E+02  0.00000000000E+00 0.  1.
        -13    1    5    5    0    0 -0.56579239103E+03  0.28475297959E+03 -0.12314940494E+01  0.63340887720E+03  0.00000000000E+00 0. -1.
          1    1    6    6  503    0  0.16952279791E+03 -0.15009942020E+03  0.22430780655E+03  0.31871900952E+03  0.00000000000E+00 0. -1.
         -1    1    6    6    0  503 -0.42776780403E+01 -0.87494745022E+01  0.48625021106E+02  0.49590770422E+02  0.00000000000E+00 0.  1.
<mgrwt>
<rscale>  0 0.15474207E+04</rscale>
<asrwt>0</asrwt>
<pdfrwt beam="1">  1        2 0.19672029E+00 0.15474207E+04</pdfrwt>
<pdfrwt beam="2">  1       -2 0.72024611E-01 0.15474207E+04</pdfrwt>
<totfact> 0.28604077E+01</totfact>
</mgrwt>
</event>
<event>
12    3  0.4773567E-008  0.1820242E+04  0.7818608E-02  0.8695608E-01
          4   -1    0    0  501    0  0.00000000000E+00  0.00000000000E+00  0.31042513387E+03  0.31042513387E+03  0.00000000000E+00 0.  1.
         -4   -1    0    0    0  501 -0.00000000000E+00 -0.00000000000E+00 -0.26683425569E+04  0.26683425569E+04  0.00000000000E+00 0. -1.
         23    2    1    2    0    0 -0.20728807516E+03 -0.44087605271E+03 -0.86730728735E+02  0.50375633326E+03  0.94383176703E+02 0.  0.
        254    2    1    2    0    0  0.20728807516E+03  0.44087605271E+03 -0.22711866943E+04  0.24750113575E+04  0.85443090971E+03 0.  0.
         23    2    4    4    0    0 -0.32285782297E+03  0.20414593942E+03 -0.82668065923E+03  0.91567471615E+03  0.95637518841E+02 0.  0.
         23    2    4    4    0    0  0.53014589813E+03  0.23673011328E+03 -0.14445060350E+04  0.15593366413E+04  0.88528277364E+02 0.  0.
          2    1    3    3  502    0 -0.61634856098E+02 -0.13933305783E+03  0.16700987318E+02  0.15326930374E+03  0.00000000000E+00 0. -1.
         -2    1    3    3    0  502 -0.14565321906E+03 -0.30154299487E+03 -0.10343171605E+03  0.35048702953E+03  0.00000000000E+00 0.  1.
         13    1    5    5    0    0 -0.72513092259E+02  0.53048453600E+02 -0.30121002557E+03  0.31432430145E+03  0.00000000000E+00 0. -1.
        -13    1    5    5    0    0 -0.25034473071E+03  0.15109748582E+03 -0.52547063366E+03  0.60135041470E+03  0.00000000000E+00 0.  1.
          2    1    6    6  503    0  0.17557199550E+03  0.50849701826E+02 -0.37036506771E+03  0.41301513430E+03  0.00000000000E+00 0. -1.
         -2    1    6    6    0  503  0.35457390263E+03  0.18588041146E+03 -0.10741409673E+04  0.11463215070E+04  0.00000000000E+00 0.  1.
<mgrwt>
<rscale>  0 0.18202424E+04</rscale>
<asrwt>0</asrwt>
<pdfrwt beam="1">  1        4 0.47757711E-01 0.18202424E+04</pdfrwt>
<pdfrwt beam="2">  1       -4 0.41051425E+00 0.18202424E+04</pdfrwt>
<totfact> 0.46439676E-02</totfact>
</mgrwt>
</event>
<event>
12    3  0.4773567E-008  0.2304983E+04  0.7818608E-02  0.8475959E-01
          1   -1    0    0  501    0  0.00000000000E+00  0.00000000000E+00  0.16180522623E+04  0.16180522623E+04  0.00000000000E+00 0. -1.
         -1   -1    0    0    0  501 -0.00000000000E+00 -0.00000000000E+00 -0.82088640848E+03  0.82088640848E+03  0.00000000000E+00 0.  1.
         23    2    1    2    0    0  0.68500791232E+03  0.68788012132E+03  0.49226791441E+03  0.10923592585E+04  0.92228785257E+02 0.  0.
        254    2    1    2    0    0 -0.68500791232E+03 -0.68788012132E+03  0.30489793946E+03  0.13465794123E+04  0.88198552083E+03 0.  0.
         23    2    4    4    0    0 -0.81117900593E+03 -0.69297979590E+03  0.81720269923E+02  0.10738417221E+04  0.90694345667E+02 0.  0.
         23    2    4    4    0    0  0.12617109362E+03  0.50996745756E+01  0.22317766954E+03  0.27273769026E+03  0.92910838783E+02 0.  0.
          4    1    3    3  502    0  0.68564097437E+03  0.67545230711E+03  0.48861319527E+03  0.10793897440E+04  0.00000000000E+00 0. -1.
         -4    1    3    3    0  502 -0.63306205730E+00  0.12427814214E+02  0.36547191366E+01  0.12969514473E+02  0.00000000000E+00 0.  1.
         13    1    5    5    0    0 -0.26033786695E+02 -0.46726581396E+02  0.99487689209E+01  0.54406887998E+02  0.00000000000E+00 0. -1.
        -13    1    5    5    0    0 -0.78514521924E+03 -0.64625321450E+03  0.71771501002E+02  0.10194348341E+04  0.00000000000E+00 0.  1.
          4    1    6    6  503    0  0.13906931705E+02 -0.59718975409E+01 -0.67923582190E+01  0.16589226620E+02  0.00000000000E+00 0. -1.
         -4    1    6    6    0  503  0.11226416191E+03  0.11071572117E+02  0.22997002776E+03  0.25614846364E+03  0.00000000000E+00 0.  1.
<mgrwt>
<rscale>  0 0.23049834E+04</rscale>
<asrwt>0</asrwt>
<pdfrwt beam="1">  1        1 0.24893112E+00 0.23049834E+04</pdfrwt>
<pdfrwt beam="2">  1       -1 0.12629022E+00 0.23049834E+04</pdfrwt>
<totfact> 0.26725238E+00</totfact>
</mgrwt>
</event>
<event>
12    3  0.4773567E-008  0.1195973E+04  0.7818608E-02  0.9116389E-01
         -3   -1    0    0    0  501 -0.00000000000E+00  0.00000000000E+00  0.36959629615E+03  0.36959629615E+03  0.00000000000E+00 0.  1.
          3   -1    0    0  501    0  0.00000000000E+00 -0.00000000000E+00 -0.96750856907E+03  0.96750856907E+03  0.00000000000E+00 0. -1.
         23    2    1    2    0    0  0.70608561002E+02 -0.33718025783E+01  0.12035219579E+03  0.16663625217E+03  0.91027751626E+02 0.  0.
        254    2    1    2    0    0 -0.70608561002E+02  0.33718025783E+01 -0.71826446871E+03  0.11704686131E+04  0.92146404661E+03 0.  0.
         23    2    4    4    0    0 -0.46133525802E+03  0.15221141955E+03 -0.42783637615E+03  0.65353005711E+03  0.89772124038E+02 0.  0.
         23    2    4    4    0    0  0.39072669702E+03 -0.14883961698E+03 -0.29042809256E+03  0.51693855594E+03  0.89757508440E+02 0.  0.
          4    1    3    3  502    0  0.41040135638E+02 -0.44544647963E+02  0.43492727821E+02  0.74566317923E+02  0.00000000000E+00 0. -1.
         -4    1    3    3    0  502  0.29568425364E+02  0.41172845385E+02  0.76859467966E+02  0.92069934244E+02  0.00000000000E+00 0.  1.
         13    1    5    5    0    0 -0.38257481559E+03  0.93746898746E+02 -0.36523742604E+03  0.53716882628E+03  0.00000000000E+00 0. -1.
        -13    1    5    5    0    0 -0.78760442431E+02  0.58464520808E+02 -0.62598950108E+02  0.11636123083E+03  0.00000000000E+00 0.  1.
          2    1    6    6  503    0  0.63408286299E+02 -0.55727312644E+02 -0.83075072989E+02  0.11843821975E+03  0.00000000000E+00 0.  1.
         -2    1    6    6    0  503  0.32731841072E+03 -0.93112304332E+02 -0.20735301957E+03  0.39850033619E+03  0.00000000000E+00 0. -1.
<mgrwt>
<rscale>  0 0.11959725E+04</rscale>
<asrwt>0</asrwt>
<pdfrwt beam="1">  1        3 0.14884747E+00 0.11959725E+04</pdfrwt>
<pdfrwt beam="2">  1       -3 0.56860969E-01 0.11959725E+04</pdfrwt>
<totfact> 0.25963904E+00</totfact>
</mgrwt>
</event>
<event>
12    3  0.4773567E-008  0.1279690E+04  0.7818608E-02  0.9045828E-01
         -1   -1    0    0    0  501 -0.00000000000E+00  0.00000000000E+00  0.68264849248E+03  0.68264849248E+03  0.00000000000E+00 0.  1.
          1   -1    0    0  501    0  0.00000000000E+00 -0.00000000000E+00 -0.59972562510E+03  0.59972562510E+03  0.00000000000E+00 0. -1.
         23    2    1    2    0    0 -0.27068112835E+03  0.14980571660E+03 -0.10675182347E+03  0.33975910010E+03  0.91270303555E+02 0.  0.
        254    2    1    2    0    0  0.27068112835E+03 -0.14980571660E+03  0.18967469086E+03  0.94261501749E+03  0.86996353766E+03 0.  0.
         23    2    4    4    0    0 -0.29052905534E+03 -0.17497602203E+03  0.11452124524E+03  0.36915121499E+03  0.90187380686E+02 0.  0.
         23    2    4    4    0    0  0.56121018369E+03  0.25170305430E+02  0.75153445619E+02  0.57346380250E+03  0.87305657528E+02 0.  0.
          2    1    3    3  502    0 -0.16448444841E+03  0.13827177665E+03 -0.59600022213E+02  0.22299412691E+03  0.00000000000E+00 0. -1.
         -2    1    3    3    0  502 -0.10619667994E+03  0.11533939946E+02 -0.47151801262E+02  0.11676497319E+03  0.00000000000E+00 0.  1.
         13    1    5    5    0    0 -0.44197686886E+02 -0.57640857867E+02  0.51720700888E+02  0.89168015129E+02  0.00000000000E+00 0. -1.
        -13    1    5    5    0    0 -0.24633136845E+03 -0.11733516416E+03  0.62800544352E+02  0.27998319986E+03  0.00000000000E+00 0.  1.
          1    1    6    6  503    0  0.41250187047E+02 -0.19961079879E+02  0.14342824759E+02  0.48018113910E+02  0.00000000000E+00 0. -1.
         -1    1    6    6    0  503  0.51995999664E+03  0.45131385309E+02  0.60810620860E+02  0.52544568859E+03  0.00000000000E+00 0.  1.
<mgrwt>
<rscale>  0 0.12796903E+04</rscale>
<asrwt>0</asrwt>
<pdfrwt beam="1">  1        1 0.92265481E-01 0.12796903E+04</pdfrwt>
<pdfrwt beam="2">  1       -1 0.10502284E+00 0.12796903E+04</pdfrwt>
<totfact> 0.28710588E+01</totfact>
</mgrwt>
</event>
<event>
12    3  0.4773567E-008  0.2211388E+04  0.7818608E-02  0.8513703E-01
         -1   -1    0    0    0  501 -0.00000000000E+00  0.00000000000E+00  0.14263397621E+04  0.14263397621E+04  0.00000000000E+00 0.  1.
          1   -1    0    0  501    0  0.00000000000E+00 -0.00000000000E+00 -0.85713023492E+03  0.85713023492E+03  0.00000000000E+00 0. -1.
         23    2    1    2    0    0 -0.51492507111E+03 -0.15762274291E+03 -0.53521315652E+03  0.76480518356E+03  0.92092822406E+02 0.  0.
        254    2    1    2    0    0  0.51492507111E+03  0.15762274291E+03  0.11044226837E+04  0.15186648135E+04  0.89252484192E+03 0.  0.
         23    2    4    4    0    0  0.31058720053E+02  0.14464307046E+03  0.10009628698E+04  0.10158982124E+04  0.90753783619E+02 0.  0.
         23    2    4    4    0    0  0.48386635106E+03  0.12979672448E+02  0.10345981391E+03  0.50276660110E+03  0.88177120086E+02 0.  0.
          2    1    3    3  502    0 -0.40374202637E+03 -0.82389859301E+02 -0.40650790648E+03  0.57883019168E+03  0.00000000000E+00 0. -1.
         -2    1    3    3    0  502 -0.11118304474E+03 -0.75232883607E+02 -0.12870525004E+03  0.18597499187E+03  0.00000000000E+00 0.  1.
         13    1    5    5    0    0 -0.19583808863E+02  0.46236769437E+02  0.51746390913E+03  0.51989447167E+03  0.00000000000E+00 0. -1.
        -13    1    5    5    0    0  0.50642528916E+02  0.98406301023E+02  0.48349896068E+03  0.49600374071E+03  0.00000000000E+00 0.  1.
          2    1    6    6  503    0  0.45779467763E+03  0.20198992200E+02  0.76514531524E+02  0.46458415781E+03  0.00000000000E+00 0. -1.
         -2    1    6    6    0  503  0.26071673427E+02 -0.72193197520E+01  0.26945282385E+02  0.38182443293E+02  0.00000000000E+00 0.  1.
<mgrwt>
<rscale>  0 0.22113877E+04</rscale>
<asrwt>0</asrwt>
<pdfrwt beam="1">  1        1 0.13186619E+00 0.22113877E+04</pdfrwt>
<pdfrwt beam="2">  1       -1 0.21943689E+00 0.22113877E+04</pdfrwt>
<totfact> 0.19970253E+00</totfact>
</mgrwt>
</event>
<event>
12    3  0.4773567E-008  0.1497643E+04  0.7818608E-02  0.8886022E-01
          2   -1    0    0  501    0  0.00000000000E+00  0.00000000000E+00  0.14558304598E+04  0.14558304598E+04  0.00000000000E+00 0. -1.
         -2   -1    0    0    0  501 -0.00000000000E+00 -0.00000000000E+00 -0.38516387946E+03  0.38516387946E+03  0.00000000000E+00 0.  1.
         23    2    1    2    0    0 -0.18950407797E+03  0.39964479043E+02 -0.20942258276E+03  0.29939017679E+03  0.90926919204E+02 0.  0.
        254    2    1    2    0    0  0.18950407797E+03 -0.39964479043E+02  0.12800891631E+04  0.15416041625E+04  0.83690272619E+03 0.  0.
         23    2    4    4    0    0  0.17312694093E+02  0.19897196615E+03 -0.57804957524E+01  0.21927963706E+03  0.90335886599E+02 0.  0.
         23    2    4    4    0    0  0.17219138387E+03 -0.23893644519E+03  0.12858696589E+04  0.13223245254E+04  0.91328382378E+02 0.  0.
          3    1    3    3  502    0 -0.47986608238E+02 -0.15140985010E+02 -0.10084227606E+03  0.11269928411E+03  0.00000000000E+00 0. -1.
         -3    1    3    3    0  502 -0.14151746973E+03  0.55105464053E+02 -0.10858030670E+03  0.18669089268E+03  0.00000000000E+00 0.  1.
         13    1    5    5    0    0 -0.30569081061E+02  0.27394986570E+02  0.13897203735E+00  0.41048426514E+02  0.00000000000E+00 0. -1.
        -13    1    5    5    0    0  0.47881775154E+02  0.17157697958E+03 -0.59194677897E+01  0.17823121054E+03  0.00000000000E+00 0.  1.
          2    1    6    6  503    0  0.10114011091E+03 -0.66808334016E+02  0.45782595762E+03  0.47360034101E+03  0.00000000000E+00 0. -1.
         -2    1    6    6    0  503  0.71051272958E+02 -0.17212811117E+03  0.82804370124E+03  0.84872418441E+03  0.00000000000E+00 0.  1.
<mgrwt>
<rscale>  0 0.14976426E+04</rscale>
<asrwt>0</asrwt>
<pdfrwt beam="1">  1        2 0.22397392E+00 0.14976426E+04</pdfrwt>
<pdfrwt beam="2">  1       -2 0.59255982E-01 0.14976426E+04</pdfrwt>
<totfact> 0.34550980E+01</totfact>
</mgrwt>
</event>
<event>
12    3  0.4773567E-008  0.1613118E+04  0.7818608E-02  0.8812529E-01
          2   -1    0    0  501    0  0.00000000000E+00  0.00000000000E+00  0.81564237399E+03  0.81564237399E+03  0.00000000000E+00 0.  1.
         -2   -1    0    0    0  501 -0.00000000000E+00 -0.00000000000E+00 -0.79757697244E+03  0.79757697244E+03  0.00000000000E+00 0. -1.
         23    2    1    2    0    0  0.13415293629E+03  0.36332674819E+03 -0.38761883281E+03  0.55357914026E+03  0.78728449249E+02 0.  0.
        254    2    1    2    0    0 -0.13415293629E+03 -0.36332674819E+03  0.40568423435E+03  0.10596402062E+04  0.89902966151E+03 0.  0.
         23    2    4    4    0    0 -0.43063770121E+03 -0.13833268620E+03  0.48384517912E+03  0.66838511802E+03  0.89709235048E+02 0.  0.
         23    2    4    4    0    0  0.29648476492E+03 -0.22499406199E+03 -0.78160944767E+02  0.39125508816E+03  0.91901398040E+02 0.  0.
          1    1    3    3  502    0  0.45288068826E+02  0.19888519379E+03 -0.24290481941E+03  0.31718934532E+03  0.00000000000E+00 0. -1.
         -1    1    3    3    0  502  0.88864867464E+02  0.16444155439E+03 -0.14471401339E+03  0.23638979494E+03  0.00000000000E+00 0.  1.
         13    1    5    5    0    0 -0.38573441555E+02 -0.21567446285E+02  0.16213774563E+02  0.47073895295E+02  0.00000000000E+00 0.  1.
        -13    1    5    5    0    0 -0.39206425966E+03 -0.11676523991E+03  0.46763140456E+03  0.62131122272E+03  0.00000000000E+00 0. -1.
          1    1    6    6  503    0  0.13637386300E+03 -0.57931835056E+02 -0.38548963647E+01  0.14821871761E+03  0.00000000000E+00 0. -1.
         -1    1    6    6    0  503  0.16011090192E+03 -0.16706222693E+03 -0.74306048403E+02  0.24303637055E+03  0.00000000000E+00 0.  1.
<mgrwt>
<rscale>  0 0.16131182E+04</rscale>
<asrwt>0</asrwt>
<pdfrwt beam="1">  1        2 0.12548344E+00 0.16131182E+04</pdfrwt>
<pdfrwt beam="2">  1       -2 0.12270415E+00 0.16131182E+04</pdfrwt>
<totfact> 0.16149262E+01</totfact>
</mgrwt>
</event>
<event>
12    3  0.4773567E-008  0.2483564E+04  0.7818608E-02  0.8408864E-01
          3   -1    0    0  501    0  0.00000000000E+00  0.00000000000E+00  0.45931580669E+04  0.45931580669E+04  0.00000000000E+00 0. -1.
         -3   -1    0    0    0  501 -0.00000000000E+00 -0.00000000000E+00 -0.33572173275E+03  0.33572173275E+03  0.00000000000E+00 0.  1.
         23    2    1    2    0    0  0.36518570682E+03 -0.22973826707E+03  0.37949592598E+04  0.38205743066E+04  0.94509137849E+02 0.  0.
        254    2    1    2    0    0 -0.36518570682E+03  0.22973826707E+03  0.46247707435E+03  0.11083054930E+04  0.91011853608E+03 0.  0.
         23    2    4    4    0    0 -0.62720651805E+03  0.29555431678E+03  0.21991601307E+03  0.73418362702E+03  0.99610114565E+02 0.  0.
         23    2    4    4    0    0  0.26202081124E+03 -0.65816049709E+02  0.24256106128E+03  0.37412186599E+03  0.90247682769E+02 0.  0.
          3    1    3    3  502    0  0.33875049096E+03 -0.19829683640E+03  0.35999122090E+04  0.36212486027E+04  0.00000000000E+00 0. -1.
         -3    1    3    3    0  502  0.26435215851E+02 -0.31441430674E+02  0.19504705078E+03  0.19932570386E+03  0.00000000000E+00 0.  1.
         13    1    5    5    0    0 -0.16536194067E+03  0.10944244334E+03  0.26749528142E+02  0.20009437044E+03  0.00000000000E+00 0. -1.
        -13    1    5    5    0    0 -0.46184457738E+03  0.18611187344E+03  0.19316648493E+03  0.53408925658E+03  0.00000000000E+00 0.  1.
          3    1    6    6  503    0  0.23240167534E+02  0.18316594410E+02  0.12809055456E+02  0.32243990439E+02  0.00000000000E+00 0. -1.
         -3    1    6    6    0  503  0.23878064370E+03 -0.84132644119E+02  0.22975200583E+03  0.34187787556E+03  0.00000000000E+00 0.  1.
<mgrwt>
<rscale>  0 0.24835644E+04</rscale>
<asrwt>0</asrwt>
<pdfrwt beam="1">  1        3 0.70663966E+00 0.24835644E+04</pdfrwt>
<pdfrwt beam="2">  1       -3 0.51649501E-01 0.24835644E+04</pdfrwt>
<totfact> 0.26214233E-03</totfact>
</mgrwt>
</event>
<event>
12    3  0.4773567E-008  0.1323407E+04  0.7818608E-02  0.9011206E-01
         -2   -1    0    0    0  501 -0.00000000000E+00  0.00000000000E+00  0.23830289368E+03  0.23830289368E+03  0.00000000000E+00 0.  1.
          2   -1    0    0  501    0  0.00000000000E+00 -0.00000000000E+00 -0.18373749353E+04  0.18373749353E+04  0.00000000000E+00 0. -1.
         23    2    1    2    0    0  0.19232573356E+03 -0.22528174187E+03 -0.17376042332E+03  0.35561191214E+03  0.92336863367E+02 0.  0.
        254    2    1    2    0    0 -0.19232573356E+03  0.22528174187E+03 -0.14253116183E+04  0.17200659169E+04  0.91617274463E+03 0.  0.
         23    2    4    4    0    0  0.73596709538E+02 -0.27297032510E+03 -0.17493510463E+03  0.34498678909E+03  0.92110367380E+02 0.  0.
         23    2    4    4    0    0 -0.26592244310E+03  0.49825206697E+03 -0.12503765137E+04  0.13750791278E+04  0.91822184882E+02 0.  0.
          3    1    3    3  502    0 -0.10393648904E+02 -0.14206396305E+02 -0.91955836337E+01  0.19859717820E+02  0.00000000000E+00 0. -1.
         -3    1    3    3    0  502  0.20271938247E+03 -0.21107534557E+03 -0.16456483968E+03  0.33575219433E+03  0.00000000000E+00 0.  1.
         13    1    5    5    0    0 -0.16988132070E+02 -0.10299991566E+03 -0.53551652094E+02  0.11732586543E+03  0.00000000000E+00 0. -1.
        -13    1    5    5    0    0  0.90584841608E+02 -0.16997040944E+03 -0.12138345254E+03  0.22766092367E+03  0.00000000000E+00 0.  1.
          3    1    6    6  503    0 -0.71392993046E+02  0.20736159233E+03 -0.55096795605E+03  0.59301052101E+03  0.00000000000E+00 0. -1.
         -3    1    6    6    0  503 -0.19452945005E+03  0.29089047464E+03 -0.69940855765E+03  0.78206860676E+03  0.00000000000E+00 0.  1.
<mgrwt>
<rscale>  0 0.13234074E+04</rscale>
<asrwt>0</asrwt>
<pdfrwt beam="1">  1        2 0.28267307E+00 0.13234074E+04</pdfrwt>
<pdfrwt beam="2">  1       -2 0.36661983E-01 0.13234074E+04</pdfrwt>
<totfact> 0.56417111E+01</totfact>
</mgrwt>
</event>
<event>
12    3  0.4773567E-008  0.2508098E+04  0.7818608E-02  0.8400106E-01
          1   -1    0    0  501    0  0.00000000000E+00  0.00000000000E+00  0.20461965950E+04  0.20461965950E+04  0.00000000000E+00 0. -1.
         -1   -1    0    0    0  501 -0.00000000000E+00 -0.00000000000E+00 -0.76856675405E+03  0.76856675405E+03  0.00000000000E+00 0.  1.
         23    2    1    2    0    0  0.92638318117E+03 -0.53175693249E+03  0.79240577751E+03  0.13332977675E+04  0.93940336873E+02 0.  0.
        254    2    1    2    0    0 -0.92638318117E+03  0.53175693249E+03  0.48522406348E+03  0.14814655816E+04  0.90462514013E+03 0.  0.
         23    2    4    4    0    0 -0.81155740295E+02  0.37941193866E+03 -0.13238963635E+03  0.42061217333E+03  0.94063335899E+02 0.  0.
         23    2    4    4    0    0 -0.84522744088E+03  0.15234499382E+03  0.61761369983E+03  0.10608534083E+04  0.79654552380E+02 0.  0.
          4    1    3    3  502    0  0.90516252979E+03 -0.50715340335E+03  0.75182987873E+03  0.12813164896E+04  0.00000000000E+00 0. -1.
         -4    1    3    3    0  502  0.21220651380E+02 -0.24603529134E+02  0.40575898774E+02  0.51981277900E+02  0.00000000000E+00 0.  1.
         13    1    5    5    0    0 -0.45147016245E+02  0.33794654591E+03 -0.13223392510E+03  0.36569376795E+03  0.00000000000E+00 0. -1.
        -13    1    5    5    0    0 -0.36008724050E+02  0.41465392748E+02 -0.15571124659E+00  0.54918405380E+02  0.00000000000E+00 0.  1.
          1    1    6    6  503    0 -0.77886272320E+03  0.15930261111E+03  0.55692148591E+03  0.97065236051E+03  0.00000000000E+00 0. -1.
         -1    1    6    6    0  503 -0.66364717673E+02 -0.69576172825E+01  0.60692213920E+02  0.90201047780E+02  0.00000000000E+00 0.  1.
<mgrwt>
<rscale>  0 0.25080978E+04</rscale>
<asrwt>0</asrwt>
<pdfrwt beam="1">  1        1 0.31479947E+00 0.25080978E+04</pdfrwt>
<pdfrwt beam="2">  1       -1 0.11824104E+00 0.25080978E+04</pdfrwt>
<totfact> 0.15794434E+00</totfact>
</mgrwt>
</event>
<event>
12    3  0.4773567E-008  0.1208984E+04  0.7818608E-02  0.9105029E-01
         -2   -1    0    0    0  501 -0.00000000000E+00  0.00000000000E+00  0.34171843056E+03  0.34171843056E+03  0.00000000000E+00 0. -1.
          2   -1    0    0  501    0  0.00000000000E+00 -0.00000000000E+00 -0.10693328595E+04  0.10693328595E+04  0.00000000000E+00 0.  1.
         23    2    1    2    0    0 -0.21477759240E+03 -0.95812480893E+01 -0.33121236667E+03  0.40396032628E+03  0.85212081667E+02 0.  0.
        254    2    1    2    0    0  0.21477759240E+03  0.95812480893E+01 -0.39640206227E+03  0.10070909638E+04  0.90048675718E+03 0.  0.
         23    2    4    4    0    0  0.85393048510E+02 -0.31737666210E+03 -0.52168943795E+03  0.62312342387E+03  0.90016739180E+02 0.  0.
         23    2    4    4    0    0  0.12938454389E+03  0.32695791019E+03  0.12528737567E+03  0.38396753991E+03  0.89957267460E+02 0.  0.
          4    1    3    3  502    0  0.61642065225E+01 -0.70730099009E+01 -0.74206955589E+01  0.11962091527E+02  0.00000000000E+00 0. -1.
         -4    1    3    3    0  502 -0.22094179892E+03 -0.25082381884E+01 -0.32379167111E+03  0.39199823475E+03  0.00000000000E+00 0.  1.
         13    1    5    5    0    0  0.72012674136E+02 -0.28983161375E+03 -0.50864663017E+03  0.58983860839E+03  0.00000000000E+00 0.  1.
        -13    1    5    5    0    0  0.13380374374E+02 -0.27545048351E+02 -0.13042807780E+02  0.33284815485E+02  0.00000000000E+00 0. -1.
          2    1    6    6  503    0  0.46029205216E+02  0.34232666867E+02  0.86016643220E+01  0.58004757070E+02  0.00000000000E+00 0. -1.
         -2    1    6    6    0  503  0.83355338673E+02  0.29272524333E+03  0.11668571135E+03  0.32596278284E+03  0.00000000000E+00 0.  1.
<mgrwt>
<rscale>  0 0.12089843E+04</rscale>
<asrwt>0</asrwt>
<pdfrwt beam="1">  1        2 0.16451274E+00 0.12089843E+04</pdfrwt>
<pdfrwt beam="2">  1       -2 0.52572067E-01 0.12089843E+04</pdfrwt>
<totfact> 0.76628040E+01</totfact>
</mgrwt>
</event>
<event>
12    3  0.4773567E-008  0.2113750E+04  0.7818608E-02  0.8555210E-01
          2   -1    0    0  501    0  0.00000000000E+00  0.00000000000E+00  0.38757782513E+04  0.38757782513E+04  0.00000000000E+00 0.  1.
         -2   -1    0    0    0  501 -0.00000000000E+00 -0.00000000000E+00 -0.28819635180E+03  0.28819635180E+03  0.00000000000E+00 0. -1.
         23    2    1    2    0    0  0.68050004379E+03  0.29195225179E+03  0.60552284417E+03  0.96096398616E+03  0.92073019714E+02 0.  0.
        254    2    1    2    0    0 -0.68050004379E+03 -0.29195225179E+03  0.29820590553E+04  0.32030106169E+04  0.90459072287E+03 0.  0.
         23    2    4    4    0    0 -0.77436537766E+03 -0.44778137742E+03  0.27559978962E+04  0.28988566017E+04  0.87722818361E+02 0.  0.
         23    2    4    4    0    0  0.93865333879E+02  0.15582912563E+03  0.22606115908E+03  0.30415401527E+03  0.91173461394E+02 0.  0.
          1    1    3    3  502    0  0.60553504167E+03  0.28683890185E+03  0.55889920053E+03  0.87253513319E+03  0.00000000000E+00 0. -1.
         -1    1    3    3    0  502  0.74965002117E+02  0.51133499383E+01  0.46623643643E+02  0.88428852964E+02  0.00000000000E+00 0.  1.
         13    1    5    5    0    0 -0.25821600535E+03 -0.19772924707E+03  0.98326625352E+03  0.10356567413E+04  0.00000000000E+00 0.  1.
        -13    1    5    5    0    0 -0.51614937232E+03 -0.25005213035E+03  0.17727316427E+04  0.18631998603E+04  0.00000000000E+00 0. -1.
          3    1    6    6  503    0  0.86782483252E+02  0.93202938810E+02  0.95510614995E+02  0.15918625813E+03  0.00000000000E+00 0. -1.
         -3    1    6    6    0  503  0.70828506277E+01  0.62626186822E+02  0.13055054409E+03  0.14496775714E+03  0.00000000000E+00 0.  1.
<mgrwt>
<rscale>  0 0.21137504E+04</rscale>
<asrwt>0</asrwt>
<pdfrwt beam="1">  1        2 0.59627354E+00 0.21137504E+04</pdfrwt>
<pdfrwt beam="2">  1       -2 0.44337903E-01 0.21137504E+04</pdfrwt>
<totfact> 0.19209312E+00</totfact>
</mgrwt>
</event>
<event>
12    3  0.4773567E-008  0.1645045E+04  0.7818608E-02  0.8793343E-01
          1   -1    0    0  501    0  0.00000000000E+00  0.00000000000E+00  0.49184209843E+03  0.49184209843E+03  0.00000000000E+00 0. -1.
         -1   -1    0    0    0  501 -0.00000000000E+00 -0.00000000000E+00 -0.13755294587E+04  0.13755294587E+04  0.00000000000E+00 0.  1.
         23    2    1    2    0    0  0.21889561920E+02  0.18418521076E+03  0.30238477845E+03  0.36761874546E+03  0.96455393787E+02 0.  0.
        254    2    1    2    0    0 -0.21889561920E+02 -0.18418521076E+03 -0.11860721387E+04  0.14997528117E+04  0.89893716857E+03 0.  0.
         23    2    4    4    0    0 -0.10763272662E+02  0.21097655466E+03  0.16804817095E+02  0.23031031498E+03  0.90185833989E+02 0.  0.
         23    2    4    4    0    0 -0.11126289257E+02 -0.39516176543E+03 -0.12028769558E+04  0.12694424967E+04  0.91075058963E+02 0.  0.
          1    1    3    3  502    0  0.11102736940E+02  0.18476944830E+03  0.23387506107E+03  0.29826257556E+03  0.00000000000E+00 0. -1.
         -1    1    3    3    0  502  0.10786824980E+02 -0.58423753748E+00  0.68509717388E+02  0.69356169901E+02  0.00000000000E+00 0.  1.
         13    1    5    5    0    0  0.26656133002E+02  0.17746854431E+03  0.13907292329E+02  0.17999735117E+03  0.00000000000E+00 0. -1.
        -13    1    5    5    0    0 -0.37419405664E+02  0.33508010353E+02  0.28975247657E+01  0.50312963815E+02  0.00000000000E+00 0.  1.
          4    1    6    6  503    0 -0.21155550877E+02 -0.25040719149E+03 -0.62505548558E+03  0.67368069509E+03  0.00000000000E+00 0. -1.
         -4    1    6    6    0  503  0.10029261619E+02 -0.14475457394E+03 -0.57782147023E+03  0.59576180158E+03  0.00000000000E+00 0.  1.
<mgrwt>
<rscale>  0 0.16450450E+04</rscale>
<asrwt>0</asrwt>
<pdfrwt beam="1">  1        1 0.75668016E-01 0.16450450E+04</pdfrwt>
<pdfrwt beam="2">  1       -1 0.21161991E+00 0.16450450E+04</pdfrwt>
<totfact> 0.54321983E+00</totfact>
</mgrwt>
</event>
<event>
12    3  0.4773567E-008  0.1322138E+04  0.7818608E-02  0.9012192E-01
         -2   -1    0    0    0  501 -0.00000000000E+00  0.00000000000E+00  0.57639172655E+03  0.57639172655E+03  0.00000000000E+00 0.  1.
          2   -1    0    0  501    0  0.00000000000E+00 -0.00000000000E+00 -0.75818576600E+03  0.75818576600E+03  0.00000000000E+00 0. -1.
         23    2    1    2    0    0 -0.21372463720E+03 -0.26368267996E+03 -0.13654595940E+02  0.35180871533E+03  0.91521297715E+02 0.  0.
        254    2    1    2    0    0  0.21372463720E+03  0.26368267996E+03 -0.16813944351E+03  0.98276877721E+03  0.90683891664E+03 0.  0.
         23    2    4    4    0    0 -0.33052986407E+03  0.23298723350E+03 -0.60975848350E+02  0.41905122778E+03  0.91393847772E+02 0.  0.
         23    2    4    4    0    0  0.54425450127E+03  0.30695446464E+02 -0.10716359516E+03  0.56371754943E+03  0.95594282389E+02 0.  0.
          3    1    3    3  502    0 -0.22228284684E+03 -0.24422895366E+03 -0.11382136663E+02  0.33043456060E+03  0.00000000000E+00 0. -1.
         -3    1    3    3    0  502  0.85582096395E+01 -0.19453726306E+02 -0.22724592771E+01  0.21374154734E+02  0.00000000000E+00 0.  1.
         13    1    5    5    0    0 -0.10386569880E+03  0.99367231668E+02  0.16695124892E+02  0.14470887088E+03  0.00000000000E+00 0.  1.
        -13    1    5    5    0    0 -0.22666416527E+03  0.13362000183E+03 -0.77670973242E+02  0.27434235690E+03  0.00000000000E+00 0. -1.
          1    1    6    6  503    0  0.11558135881E+03 -0.66137992134E+01  0.14195223749E+02  0.11663746062E+03  0.00000000000E+00 0. -1.
         -1    1    6    6    0  503  0.42867314246E+03  0.37309245678E+02 -0.12135881891E+03  0.44708008881E+03  0.00000000000E+00 0.  1.
<mgrwt>
<rscale>  0 0.13221377E+04</rscale>
<asrwt>0</asrwt>
<pdfrwt beam="1">  1        2 0.11664396E+00 0.13221377E+04</pdfrwt>
<pdfrwt beam="2">  1       -2 0.88675650E-01 0.13221377E+04</pdfrwt>
<totfact> 0.39585540E+01</totfact>
</mgrwt>
</event>
<event>
12    3  0.4773567E-008  0.2418238E+04  0.7818608E-02  0.8432707E-01
          1   -1    0    0  501    0  0.00000000000E+00  0.00000000000E+00  0.12815832935E+04  0.12815832935E+04  0.00000000000E+00 0. -1.
         -1   -1    0    0    0  501 -0.00000000000E+00 -0.00000000000E+00 -0.11407517303E+04  0.11407517303E+04  0.00000000000E+00 0.  1.
         23    2    1    2    0    0  0.25704507661E+03 -0.22391787667E+03 -0.92401868527E+03  0.98945988679E+03  0.94915488394E+02 0.  0.
        254    2    1    2    0    0 -0.25704507661E+03  0.22391787667E+03  0.10648502484E+04  0.14328751370E+04  0.89611032794E+03 0.  0.
         23    2    4    4    0    0 -0.31191034256E+03 -0.13850440900E+03  0.98540527770E+03  0.10467212423E+04  0.90167980180E+02 0.  0.
         23    2    4    4    0    0  0.54865265952E+02  0.36242228567E+03  0.79444970699E+02  0.38615389471E+03  0.91886976618E+02 0.  0.
          3    1    3    3  502    0  0.16857054444E+03 -0.15585824311E+03 -0.48686332589E+03  0.53827847672E+03  0.00000000000E+00 0. -1.
         -3    1    3    3    0  502  0.88474532169E+02 -0.68059633566E+02 -0.43715535938E+03  0.45118141007E+03  0.00000000000E+00 0.  1.
         13    1    5    5    0    0 -0.26345566296E+03 -0.14187745081E+03  0.90037719617E+03  0.94879776179E+03  0.00000000000E+00 0. -1.
        -13    1    5    5    0    0 -0.48454679601E+02  0.33730418116E+01  0.85028081537E+02  0.97923480514E+02  0.00000000000E+00 0.  1.
          2    1    6    6  503    0  0.61029105824E+02  0.35785267705E+03  0.63599608350E+02  0.36854850483E+03  0.00000000000E+00 0. -1.
         -2    1    6    6    0  503 -0.61638398723E+01  0.45696086216E+01  0.15845362349E+02  0.17605389882E+02  0.00000000000E+00 0.  1.
<mgrwt>
<rscale>  0 0.24182377E+04</rscale>
<asrwt>0</asrwt>
<pdfrwt beam="1">  1        1 0.19716666E+00 0.24182377E+04</pdfrwt>
<pdfrwt beam="2">  1       -1 0.17550027E+00 0.24182377E+04</pdfrwt>
<totfact> 0.18714707E+00</totfact>
</mgrwt>
</event>
<event>
12    3  0.4773567E-008  0.2595398E+04  0.7818608E-02  0.8369766E-01
         -2   -1    0    0    0  501 -0.00000000000E+00  0.00000000000E+00  0.81041209993E+03  0.81041209993E+03  0.00000000000E+00 0.  1.
          2   -1    0    0  501    0  0.00000000000E+00 -0.00000000000E+00 -0.20779828598E+04  0.20779828598E+04  0.00000000000E+00 0. -1.
         23    2    1    2    0    0  0.54346530105E+03 -0.98144024838E+03 -0.31147717204E+03  0.11678885627E+04  0.91466778531E+02 0.  0.
        254    2    1    2    0    0 -0.54346530105E+03  0.98144024838E+03 -0.95609358782E+03  0.17205063970E+04  0.88738256631E+03 0.  0.
         23    2    4    4    0    0 -0.32933837548E+03  0.28281790508E+03 -0.87131268359E+03  0.97799019451E+03  0.93964328213E+02 0.  0.
         23    2    4    4    0    0 -0.21412692557E+03  0.69862234330E+03 -0.84780904235E+02  0.74251620253E+03  0.10108902260E+03 0.  0.
          1    1    3    3  502    0  0.82998044211E+02 -0.18318540517E+03 -0.88687831663E+02  0.21979786053E+03  0.00000000000E+00 0. -1.
         -1    1    3    3    0  502  0.46046725684E+03 -0.79825484321E+03 -0.22278934037E+03  0.94809070216E+03  0.00000000000E+00 0.  1.
         13    1    5    5    0    0 -0.51771074288E+02  0.45271969363E+02 -0.22835102271E+03  0.23848267215E+03  0.00000000000E+00 0. -1.
        -13    1    5    5    0    0 -0.27756730119E+03  0.23754593572E+03 -0.64296166088E+03  0.73950752236E+03  0.00000000000E+00 0.  1.
          2    1    6    6  503    0 -0.17381068011E+01  0.94914484676E+00 -0.91019046909E+01  0.93148569605E+01  0.00000000000E+00 0. -1.
         -2    1    6    6    0  503 -0.21238881877E+03  0.69767319845E+03 -0.75678999545E+02  0.73320134557E+03  0.00000000000E+00 0.  1.
<mgrwt>
<rscale>  0 0.25953978E+04</rscale>
<asrwt>0</asrwt>
<pdfrwt beam="1">  1        2 0.31968966E+00 0.25953978E+04</pdfrwt>
<pdfrwt beam="2">  1       -2 0.12467879E+00 0.25953978E+04</pdfrwt>
<totfact> 0.25812993E+00</totfact>
</mgrwt>
</event>
<event>
12    3  0.4773567E-008  0.1299950E+04  0.7818608E-02  0.9029605E-01
          1   -1    0    0  501    0  0.00000000000E+00  0.00000000000E+00  0.50838274932E+03  0.50838274932E+03  0.00000000000E+00 0. -1.
         -1   -1    0    0    0  501 -0.00000000000E+00 -0.00000000000E+00 -0.83100223791E+03  0.83100223791E+03  0.00000000000E+00 0.  1.
         23    2    1    2    0    0 -0.23539799528E+03  0.85821197405E+02 -0.31473694540E+03  0.41233481845E+03  0.90460840151E+02 0.  0.
        254    2    1    2    0    0  0.23539799528E+03 -0.85821197405E+02 -0.78825431843E+01  0.92705016878E+03  0.89251464237E+03 0.  0.
         23    2    4    4    0    0 -0.47060328124E+02 -0.54871299786E+02  0.40288320573E+03  0.41915359722E+03  0.90273620615E+02 0.  0.
         23    2    4    4    0    0  0.28245832341E+03 -0.30949897618E+02 -0.41076574892E+03  0.50789657156E+03  0.92140253358E+02 0.  0.
          2    1    3    3  502    0 -0.88569197815E+01  0.32387161710E+02 -0.37056699981E+02  0.50005722524E+02  0.00000000000E+00 0. -1.
         -2    1    3    3    0  502 -0.22654107550E+03  0.53434035695E+02 -0.27768024542E+03  0.36232909593E+03  0.00000000000E+00 0.  1.
         13    1    5    5    0    0 -0.79012949757E+01 -0.70216237631E+02  0.20456087671E+03  0.21642066161E+03  0.00000000000E+00 0.  1.
        -13    1    5    5    0    0 -0.39159033148E+02  0.15344937845E+02  0.19832232902E+03  0.20273293562E+03  0.00000000000E+00 0. -1.
          4    1    6    6  503    0  0.28392120765E+03 -0.25360520146E+02 -0.41289960367E+03  0.50173747203E+03  0.00000000000E+00 0. -1.
         -4    1    6    6    0  503 -0.14628842446E+01 -0.55893774723E+01  0.21338547462E+01  0.61590995218E+01  0.00000000000E+00 0.  1.
<mgrwt>
<rscale>  0 0.12999495E+04</rscale>
<asrwt>0</asrwt>
<pdfrwt beam="1">  1        1 0.78212731E-01 0.12999495E+04</pdfrwt>
<pdfrwt beam="2">  1       -1 0.12784650E+00 0.12999495E+04</pdfrwt>
<totfact> 0.22517402E+01</totfact>
</mgrwt>
</event>
<event>
12    3  0.4773567E-008  0.1240358E+04  0.7818608E-02  0.9078247E-01
         -4   -1    0    0    0  501 -0.00000000000E+00  0.00000000000E+00  0.16092403361E+03  0.16092403361E+03  0.00000000000E+00 0.  1.
          4   -1    0    0  501    0  0.00000000000E+00 -0.00000000000E+00 -0.23900833707E+04  0.23900833707E+04  0.00000000000E+00 0. -1.
         23    2    1    2    0    0  0.11733994514E+03  0.26318814774E+03 -0.54516053986E+03  0.62355252969E+03  0.92634114837E+02 0.  0.
        254    2    1    2    0    0 -0.11733994514E+03 -0.26318814774E+03 -0.16839987972E+04  0.19274548746E+04  0.89229685686E+03 0.  0.
         23    2    4    4    0    0  0.34303843347E+03 -0.11293688115E+03 -0.11109261563E+04  0.11717386187E+04  0.91566149746E+02 0.  0.
         23    2    4    4    0    0 -0.46037837861E+03 -0.15025126659E+03 -0.57307264086E+03  0.75571625588E+03  0.90394209362E+02 0.  0.
          3    1    3    3  502    0  0.24043302430E+02  0.19676353174E+02 -0.19274391616E+02  0.36561474781E+02  0.00000000000E+00 0. -1.
         -3    1    3    3    0  502  0.93296642713E+02  0.24351179456E+03 -0.52588614824E+03  0.58699105491E+03  0.00000000000E+00 0.  1.
         13    1    5    5    0    0  0.17804922881E+02 -0.28731511964E+02 -0.15048869288E+03  0.15423800357E+03  0.00000000000E+00 0. -1.
        -13    1    5    5    0    0  0.32523351059E+03 -0.84205369189E+02 -0.96043746346E+03  0.10175006152E+04  0.00000000000E+00 0.  1.
          2    1    6    6  503    0 -0.16168091715E+03 -0.79182828318E+02 -0.26827241693E+03  0.32308006586E+03  0.00000000000E+00 0. -1.
         -2    1    6    6    0  503 -0.29869746147E+03 -0.71068438268E+02 -0.30480022394E+03  0.43263619002E+03  0.00000000000E+00 0.  1.
<mgrwt>
<rscale>  0 0.12403578E+04</rscale>
<asrwt>0</asrwt>
<pdfrwt beam="1">  1        4 0.36770513E+00 0.12403578E+04</pdfrwt>
<pdfrwt beam="2">  1       -4 0.24757544E-01 0.12403578E+04</pdfrwt>
<totfact> 0.35329034E-01</totfact>
</mgrwt>
</event>
<event>
12    3  0.4773567E-008  0.2978019E+04  0.7818608E-02  0.8250036E-01
         -3   -1    0    0    0  501 -0.00000000000E+00  0.00000000000E+00  0.14491590085E+04  0.14491590085E+04  0.00000000000E+00 0.  1.
          3   -1    0    0  501    0  0.00000000000E+00 -0.00000000000E+00 -0.15299557200E+04  0.15299557200E+04  0.00000000000E+00 0. -1.
         23    2    1    2    0    0 -0.15736039121E+03  0.52558382418E+03  0.11993920021E+04  0.13219997787E+04  0.90230765727E+02 0.  0.
        254    2    1    2    0    0  0.15736039121E+03 -0.52558382418E+03 -0.12801887135E+04  0.16571149498E+04  0.89785642827E+03 0.  0.
         23    2    4    4    0    0  0.51505320808E+03 -0.28053081811E+03 -0.59288045282E+03  0.83913120135E+03  0.93040822690E+02 0.  0.
         23    2    4    4    0    0 -0.35769281687E+03 -0.24505300607E+03 -0.68730826071E+03  0.81798374849E+03  0.93325454880E+02 0.  0.
          1    1    3    3  502    0 -0.52176100588E+02  0.95346819117E+02  0.30845952766E+03  0.32704837806E+03  0.00000000000E+00 0. -1.
         -1    1    3    3    0  502 -0.10518429062E+03  0.43023700506E+03  0.89093247446E+03  0.99495140060E+03  0.00000000000E+00 0.  1.
         13    1    5    5    0    0  0.29824304488E+03 -0.20050380168E+03 -0.31668136016E+03  0.47899663065E+03  0.00000000000E+00 0. -1.
        -13    1    5    5    0    0  0.21681016320E+03 -0.80027016430E+02 -0.27619909266E+03  0.36013457070E+03  0.00000000000E+00 0.  1.
          2    1    6    6  503    0 -0.45853225376E+02 -0.43026908196E+01 -0.10801019998E+03  0.11741905606E+03  0.00000000000E+00 0. -1.
         -2    1    6    6    0  503 -0.31183959150E+03 -0.24075031525E+03 -0.57929806072E+03  0.70056469243E+03  0.00000000000E+00 0.  1.
<mgrwt>
<rscale>  0 0.29780189E+04</rscale>
<asrwt>0</asrwt>
<pdfrwt beam="1">  1        3 0.23537780E+00 0.29780189E+04</pdfrwt>
<pdfrwt beam="2">  1       -3 0.22294754E+00 0.29780189E+04</pdfrwt>
<totfact> 0.21116256E-02</totfact>
</mgrwt>
</event>
<event>
12    3  0.4773567E-008  0.1519077E+04  0.7818608E-02  0.8871865E-01
         -1   -1    0    0    0  501 -0.00000000000E+00  0.00000000000E+00  0.11661240825E+03  0.11661240825E+03  0.00000000000E+00 0.  1.
          1   -1    0    0  501    0  0.00000000000E+00 -0.00000000000E+00 -0.49471488575E+04  0.49471488575E+04  0.00000000000E+00 0. -1.
         23    2    1    2    0    0  0.14635042022E+03  0.45796329800E+03 -0.17059963742E+04  0.17747192739E+04  0.89755469637E+02 0.  0.
        254    2    1    2    0    0 -0.14635042022E+03 -0.45796329800E+03 -0.31245400750E+04  0.32890419919E+04  0.90768811614E+03 0.  0.
         23    2    4    4    0    0  0.32542580013E+03 -0.15254260185E+03 -0.19347544855E+04  0.19700033774E+04  0.92017341990E+02 0.  0.
         23    2    4    4    0    0 -0.47177622035E+03 -0.30542069615E+03 -0.11897855896E+04  0.13190386145E+04  0.91752458476E+02 0.  0.
          1    1    3    3  502    0  0.11339308329E+03  0.33875969454E+03 -0.11115695469E+04  0.11675628375E+04  0.00000000000E+00 0. -1.
         -1    1    3    3    0  502  0.32957336928E+02  0.11920360346E+03 -0.59442682731E+03  0.60715643632E+03  0.00000000000E+00 0.  1.
         13    1    5    5    0    0  0.90706712653E+02 -0.55410944186E+02 -0.80850713121E+03  0.81546420012E+03  0.00000000000E+00 0.  1.
        -13    1    5    5    0    0  0.23471908748E+03 -0.97131657668E+02 -0.11262473543E+04  0.11545391773E+04  0.00000000000E+00 0. -1.
          2    1    6    6  503    0 -0.44079776729E+03 -0.26014648592E+03 -0.11086301930E+04  0.12210813939E+04  0.00000000000E+00 0. -1.
         -2    1    6    6    0  503 -0.30978453060E+02 -0.45274210226E+02 -0.81155396565E+02  0.97957220546E+02  0.00000000000E+00 0.  1.
<mgrwt>
<rscale>  0 0.15190773E+04</rscale>
<asrwt>0</asrwt>
<pdfrwt beam="1">  1        1 0.76109981E+00 0.15190773E+04</pdfrwt>
<pdfrwt beam="2">  1       -1 0.17940371E-01 0.15190773E+04</pdfrwt>
<totfact> 0.24888031E-01</totfact>
</mgrwt>
</event>
<event>
12    3  0.4773567E-008  0.1598810E+04  0.7818608E-02  0.8821279E-01
          2   -1    0    0  501    0  0.00000000000E+00  0.00000000000E+00  0.27265921735E+04  0.27265921735E+04  0.00000000000E+00 0. -1.
         -2   -1    0    0    0  501 -0.00000000000E+00 -0.00000000000E+00 -0.23437625858E+03  0.23437625858E+03  0.00000000000E+00 0.  1.
         23    2    1    2    0    0 -0.33688678780E+02 -0.12079948461E+03  0.18191010588E+04  0.18255998271E+04  0.89211121631E+02 0.  0.
        254    2    1    2    0    0  0.33688678780E+02  0.12079948461E+03  0.67311485611E+03  0.11353686049E+04  0.90567699371E+03 0.  0.
         23    2    4    4    0    0 -0.38975755729E+03  0.19923062576E+03  0.47884905116E+03  0.65494418555E+03  0.89731135575E+02 0.  0.
         23    2    4    4    0    0  0.42344623607E+03 -0.78431141149E+02  0.19426580495E+03  0.48042441936E+03  0.87236809891E+02 0.  0.
          3    1    3    3  502    0  0.17450209418E+02 -0.94974140265E+02  0.11193323140E+04  0.11234898425E+04  0.00000000000E+00 0. -1.
         -3    1    3    3    0  502 -0.51138888198E+02 -0.25825344349E+02  0.69976874479E+03  0.70210998460E+03  0.00000000000E+00 0.  1.
         13    1    5    5    0    0 -0.49905055064E+02  0.47370351435E+02  0.40392535003E+02  0.79787352381E+02  0.00000000000E+00 0. -1.
        -13    1    5    5    0    0 -0.33985250222E+03  0.15186027433E+03  0.43845651616E+03  0.57515683317E+03  0.00000000000E+00 0.  1.
          3    1    6    6  503    0  0.10460079658E+03 -0.46724275126E+02  0.82093048753E+02  0.14093882781E+03  0.00000000000E+00 0. -1.
         -3    1    6    6    0  503  0.31884543948E+03 -0.31706866023E+02  0.11217275620E+03  0.33948559154E+03  0.00000000000E+00 0.  1.
<mgrwt>
<rscale>  0 0.15988101E+04</rscale>
<asrwt>0</asrwt>
<pdfrwt beam="1">  1        2 0.41947570E+00 0.15988101E+04</pdfrwt>
<pdfrwt beam="2">  1       -2 0.36057888E-01 0.15988101E+04</pdfrwt>
<totfact> 0.17828465E+01</totfact>
</mgrwt>
</event>
<event>
12    3  0.4773567E-008  0.1503989E+04  0.7818608E-02  0.8881804E-01
          2   -1    0    0  501    0  0.00000000000E+00  0.00000000000E+00  0.21051359501E+04  0.21051359501E+04  0.00000000000E+00 0.  1.
         -2   -1    0    0    0  501 -0.00000000000E+00 -0.00000000000E+00 -0.26862677666E+03  0.26862677666E+03  0.00000000000E+00 0. -1.
         23    2    1    2    0    0  0.22760006045E+03 -0.20747701200E+03  0.16178476529E+02  0.32146063420E+03  0.90701147788E+02 0.  0.
        254    2    1    2    0    0 -0.22760006045E+03  0.20747701200E+03  0.18203306969E+04  0.20523020926E+04  0.89637689340E+03 0.  0.
         23    2    4    4    0    0 -0.47508994209E+03  0.26299410650E+03  0.16325446226E+04  0.17227735073E+04  0.88714483185E+02 0.  0.
         23    2    4    4    0    0  0.24748988164E+03 -0.55517094505E+02  0.18778607432E+03  0.32952858528E+03  0.94826628708E+02 0.  0.
          3    1    3    3  502    0  0.13592610323E+03 -0.98786229207E+02 -0.32546357492E+02  0.17115457927E+03  0.00000000000E+00 0. -1.
         -3    1    3    3    0  502  0.91673957227E+02 -0.10869078279E+03  0.48724834021E+02  0.15030605493E+03  0.00000000000E+00 0.  1.
         13    1    5    5    0    0 -0.39121512255E+03  0.17523878480E+03  0.12546351078E+04  0.13258458272E+04  0.00000000000E+00 0. -1.
        -13    1    5    5    0    0 -0.83874819549E+02  0.87755321706E+02  0.37790951486E+03  0.39692768014E+03  0.00000000000E+00 0.  1.
          4    1    6    6  503    0  0.20501030893E+03 -0.68817773938E+01  0.15503369339E+03  0.25712260055E+03  0.00000000000E+00 0. -1.
         -4    1    6    6    0  503  0.42479572711E+02 -0.48635317111E+02  0.32752380927E+02  0.72405984729E+02  0.00000000000E+00 0.  1.
<mgrwt>
<rscale>  0 0.15039892E+04</rscale>
<asrwt>0</asrwt>
<pdfrwt beam="1">  1        2 0.32386706E+00 0.15039892E+04</pdfrwt>
<pdfrwt beam="2">  1       -2 0.41327198E-01 0.15039892E+04</pdfrwt>
<totfact> 0.31294178E+01</totfact>
</mgrwt>
</event>
<event>
12    3  0.4773567E-008  0.2410087E+04  0.7818608E-02  0.8435737E-01
         -2   -1    0    0    0  501 -0.00000000000E+00  0.00000000000E+00  0.79885121207E+03  0.79885121207E+03  0.00000000000E+00 0.  1.
          2   -1    0    0  501    0  0.00000000000E+00 -0.00000000000E+00 -0.18177719179E+04  0.18177719179E+04  0.00000000000E+00 0. -1.
         23    2    1    2    0    0  0.97082318860E+03  0.28791470058E+03 -0.66172864529E+03  0.12130386561E+04  0.90473437233E+02 0.  0.
        254    2    1    2    0    0 -0.97082318860E+03 -0.28791470058E+03 -0.35719206050E+03  0.14035844738E+04  0.90391961413E+03 0.  0.
         23    2    4    4    0    0 -0.12061471864E+03  0.24676599721E+03  0.86871734527E+02  0.30172923788E+03  0.89735539238E+02 0.  0.
         23    2    4    4    0    0 -0.85020846996E+03 -0.53468069779E+03 -0.44406379503E+03  0.11018552360E+04  0.90301805037E+02 0.  0.
          1    1    3    3  502    0  0.93853728252E+03  0.26517815695E+03 -0.64926542116E+03  0.11716301775E+04  0.00000000000E+00 0. -1.
         -1    1    3    3    0  502  0.32285906074E+02  0.22736543632E+02 -0.12463224136E+02  0.41408478639E+02  0.00000000000E+00 0.  1.
         13    1    5    5    0    0 -0.77002844713E+02  0.81466217711E+02  0.50792314899E+01  0.11221399786E+03  0.00000000000E+00 0.  1.
        -13    1    5    5    0    0 -0.43611873924E+02  0.16529977950E+03  0.81792503037E+02  0.18951524002E+03  0.00000000000E+00 0. -1.
          1    1    6    6  503    0 -0.53503498795E+03 -0.32161293864E+03 -0.32137251674E+03  0.70212364662E+03  0.00000000000E+00 0. -1.
         -1    1    6    6    0  503 -0.31517348201E+03 -0.21306775915E+03 -0.12269127829E+03  0.39973158934E+03  0.00000000000E+00 0.  1.
<mgrwt>
<rscale>  0 0.24100866E+04</rscale>
<asrwt>0</asrwt>
<pdfrwt beam="1">  1        2 0.27965722E+00 0.24100866E+04</pdfrwt>
<pdfrwt beam="2">  1       -2 0.12290019E+00 0.24100866E+04</pdfrwt>
<totfact> 0.37918395E+00</totfact>
</mgrwt>
</event>
<event>
12    3  0.4773567E-008  0.1868256E+04  0.7818608E-02  0.8670821E-01
          2   -1    0    0  501    0  0.00000000000E+00  0.00000000000E+00  0.24696116667E+04  0.24696116667E+04  0.00000000000E+00 0. -1.
         -2   -1    0    0    0  501 -0.00000000000E+00 -0.00000000000E+00 -0.35333275979E+03  0.35333275979E+03  0.00000000000E+00 0.  1.
         23    2    1    2    0    0 -0.65459967021E+03  0.28218439566E+03  0.81842003081E+03  0.10892006032E+04  0.91748818595E+02 0.  0.
        254    2    1    2    0    0  0.65459967021E+03 -0.28218439566E+03  0.12978588761E+04  0.17337438233E+04  0.90183214694E+03 0.  0.
         23    2    4    4    0    0  0.61470643410E+03 -0.12366313014E+03  0.13890752777E+04  0.15269477624E+04  0.94248458472E+02 0.  0.
         23    2    4    4    0    0  0.39893236106E+02 -0.15852126551E+03 -0.91216401627E+02  0.20679606096E+03  0.87884680092E+02 0.  0.
          1    1    3    3  502    0 -0.30392275564E+02  0.13893809159E+02  0.74850847643E+02  0.81971810641E+02  0.00000000000E+00 0. -1.
         -1    1    3    3    0  502 -0.62420739465E+03  0.26829058650E+03  0.74356918317E+03  0.10072287925E+04  0.00000000000E+00 0.  1.
         13    1    5    5    0    0  0.46852100389E+03 -0.13255387912E+03  0.10972876190E+04  0.12004676508E+04  0.00000000000E+00 0. -1.
        -13    1    5    5    0    0  0.14618543021E+03  0.88907489784E+01  0.29178765876E+03  0.32648011153E+03  0.00000000000E+00 0.  1.
          2    1    6    6  503    0 -0.17145570471E+02 -0.10667557181E+03 -0.60420602676E+02  0.12379134636E+03  0.00000000000E+00 0. -1.
         -2    1    6    6    0  503  0.57038806577E+02 -0.51845693708E+02 -0.30795798951E+02  0.83004714594E+02  0.00000000000E+00 0.  1.
<mgrwt>
<rscale>  0 0.18682556E+04</rscale>
<asrwt>0</asrwt>
<pdfrwt beam="1">  1        2 0.37994025E+00 0.18682556E+04</pdfrwt>
<pdfrwt beam="2">  1       -2 0.54358888E-01 0.18682556E+04</pdfrwt>
<totfact> 0.10852207E+01</totfact>
</mgrwt>
</event>
<event>
12    3  0.4773567E-008  0.2171296E+04  0.7818608E-02  0.8530471E-01
         -1   -1    0    0    0  501 -0.00000000000E+00  0.00000000000E+00  0.35449399773E+03  0.35449399773E+03  0.00000000000E+00 0.  1.
          1   -1    0    0  501    0  0.00000000000E+00 -0.00000000000E+00 -0.33248273093E+04  0.33248273093E+04  0.00000000000E+00 0. -1.
         23    2    1    2    0    0 -0.40686222457E+03  0.48584419005E+03 -0.22805996562E+04  0.23686572891E+04  0.88437065489E+02 0.  0.
        254    2    1    2    0    0  0.40686222457E+03 -0.48584419005E+03 -0.68973365537E+03  0.13106640179E+04  0.91680216283E+03 0.  0.
         23    2    4    4    0    0  0.41370417323E+03 -0.45667620895E+03 -0.78983206888E+01  0.62272913039E+03  0.89581714653E+02 0.  0.
         23    2    4    4    0    0 -0.68419486583E+01 -0.29167981094E+02 -0.68183533469E+03  0.68793488754E+03  0.86356253320E+02 0.  0.
          4    1    3    3  502    0 -0.26122076786E+03  0.29587217957E+03 -0.12604448525E+04  0.13207944058E+04  0.00000000000E+00 0. -1.
         -4    1    3    3    0  502 -0.14564145671E+03  0.18997201047E+03 -0.10201548037E+04  0.10478628833E+04  0.00000000000E+00 0.  1.
         13    1    5    5    0    0  0.70949608432E+02 -0.52403984962E+02  0.25043021734E+02  0.91690662088E+02  0.00000000000E+00 0. -1.
        -13    1    5    5    0    0  0.34275456479E+03 -0.40427222399E+03 -0.32941342423E+02  0.53103846830E+03  0.00000000000E+00 0.  1.
          4    1    6    6  503    0 -0.32233963601E+02 -0.39458306497E+02 -0.58739631298E+03  0.58960191219E+03  0.00000000000E+00 0.  1.
         -4    1    6    6    0  503  0.25392014943E+02  0.10290325403E+02 -0.94439021708E+02  0.98332975349E+02  0.00000000000E+00 0. -1.
<mgrwt>
<rscale>  0 0.21712958E+04</rscale>
<asrwt>0</asrwt>
<pdfrwt beam="1">  1        1 0.51151188E+00 0.21712958E+04</pdfrwt>
<pdfrwt beam="2">  1       -1 0.54537540E-01 0.21712958E+04</pdfrwt>
<totfact> 0.10635291E+00</totfact>
</mgrwt>
</event>
<event>
12    3  0.4773567E-008  0.2641383E+04  0.7818608E-02  0.8354279E-01
          2   -1    0    0  501    0  0.00000000000E+00  0.00000000000E+00  0.33860049327E+04  0.33860049327E+04  0.00000000000E+00 0. -1.
         -2   -1    0    0    0  501 -0.00000000000E+00 -0.00000000000E+00 -0.51512794043E+03  0.51512794043E+03  0.00000000000E+00 0.  1.
         23    2    1    2    0    0 -0.44399859049E+03  0.51388330417E+03  0.26636975830E+04  0.27502632375E+04  0.86326491915E+02 0.  0.
        254    2    1    2    0    0  0.44399859049E+03 -0.51388330417E+03  0.20717940930E+03  0.11508696357E+04  0.90574102922E+03 0.  0.
         23    2    4    4    0    0  0.25965524100E+03 -0.75249282848E+03  0.23454117274E+03  0.83485638143E+03  0.91155443172E+02 0.  0.
         23    2    4    4    0    0  0.18434334949E+03  0.23860952431E+03 -0.27361763436E+02  0.31601325423E+03  0.90546867199E+02 0.  0.
          4    1    3    3  502    0 -0.17010803010E+03  0.15458299661E+03  0.10225304640E+04  0.10480463704E+04  0.00000000000E+00 0. -1.
         -4    1    3    3    0  502 -0.27389056039E+03  0.35930030756E+03  0.16411671190E+04  0.17022168671E+04  0.00000000000E+00 0.  1.
         13    1    5    5    0    0 -0.67544515800E+01 -0.80236880562E+01  0.40828789321E+01  0.11254869459E+02  0.00000000000E+00 0. -1.
        -13    1    5    5    0    0  0.26640969258E+03 -0.74446914042E+03  0.23045829380E+03  0.82360151198E+03  0.00000000000E+00 0.  1.
          4    1    6    6  503    0  0.80484530845E+02  0.16811158210E+03  0.47512958592E+01  0.18644526959E+03  0.00000000000E+00 0. -1.
         -4    1    6    6    0  503  0.10385881864E+03  0.70497942212E+02 -0.32113059295E+02  0.12956798464E+03  0.00000000000E+00 0.  1.
<mgrwt>
<rscale>  0 0.26413828E+04</rscale>
<asrwt>0</asrwt>
<pdfrwt beam="1">  1        2 0.52092382E+00 0.26413828E+04</pdfrwt>
<pdfrwt beam="2">  1       -2 0.79250455E-01 0.26413828E+04</pdfrwt>
<totfact> 0.12133444E+00</totfact>
</mgrwt>
</event>
<event>
12    3  0.4773567E-008  0.1593526E+04  0.7818608E-02  0.8824535E-01
         -2   -1    0    0    0  501 -0.00000000000E+00  0.00000000000E+00  0.14317943736E+03  0.14317943736E+03  0.00000000000E+00 0.  1.
          2   -1    0    0  501    0  0.00000000000E+00 -0.00000000000E+00 -0.44338182515E+04  0.44338182515E+04  0.00000000000E+00 0. -1.
         23    2    1    2    0    0  0.34040545570E+03 -0.20561449840E+03 -0.43022838780E+03  0.59312219676E+03  0.92435265949E+02 0.  0.
        254    2    1    2    0    0 -0.34040545570E+03  0.20561449840E+03 -0.38604104263E+04  0.39838754921E+04  0.90019002472E+03 0.  0.
         23    2    4    4    0    0 -0.56388664837E+03  0.35369644699E+03 -0.31146650139E+04  0.31863455815E+04  0.92685958791E+02 0.  0.
         23    2    4    4    0    0  0.22348119267E+03 -0.14808194859E+03 -0.74574541242E+03  0.79752991062E+03  0.89697442584E+02 0.  0.
          4    1    3    3  502    0  0.18713070914E+02  0.48579981123E+01 -0.51786630834E+01  0.20014937422E+02  0.00000000000E+00 0. -1.
         -4    1    3    3    0  502  0.32169238479E+03 -0.21047249651E+03 -0.42504972472E+03  0.57310725934E+03  0.00000000000E+00 0.  1.
         13    1    5    5    0    0 -0.46909655209E+03  0.27872582178E+03 -0.26918721379E+04  0.27466188789E+04  0.00000000000E+00 0. -1.
        -13    1    5    5    0    0 -0.94790096279E+02  0.74970625204E+02 -0.42279287598E+03  0.43972670260E+03  0.00000000000E+00 0.  1.
          4    1    6    6  503    0  0.14661410243E+03 -0.89883746062E+02 -0.34678143900E+03  0.38708157961E+03  0.00000000000E+00 0. -1.
         -4    1    6    6    0  503  0.76867090238E+02 -0.58198202525E+02 -0.39896397342E+03  0.41044833100E+03  0.00000000000E+00 0.  1.
<mgrwt>
<rscale>  0 0.15935264E+04</rscale>
<asrwt>0</asrwt>
<pdfrwt beam="1">  1        2 0.68212596E+00 0.15935264E+04</pdfrwt>
<pdfrwt beam="2">  1       -2 0.22027603E-01 0.15935264E+04</pdfrwt>
<totfact> 0.25380002E+00</totfact>
</mgrwt>
</event>
<event>
12    3  0.4773567E-008  0.1585160E+04  0.7818608E-02  0.8829717E-01
          1   -1    0    0  501    0  0.00000000000E+00  0.00000000000E+00  0.17491928375E+04  0.17491928375E+04  0.00000000000E+00 0. -1.
         -1   -1    0    0    0  501 -0.00000000000E+00 -0.00000000000E+00 -0.35912756052E+03  0.35912756052E+03  0.00000000000E+00 0.  1.
         23    2    1    2    0    0  0.28866518588E+03 -0.37184986120E+03  0.14730788461E+03  0.50133663073E+03  0.89659888658E+02 0.  0.
        254    2    1    2    0    0 -0.28866518588E+03  0.37184986120E+03  0.12427573924E+04  0.16069837673E+04  0.90352143485E+03 0.  0.
         23    2    4    4    0    0  0.31306641943E+03  0.20228586425E+03  0.41527167946E+03  0.56596014549E+03  0.94499548531E+02 0.  0.
         23    2    4    4    0    0 -0.60173160530E+03  0.16956399695E+03  0.82748571291E+03  0.10410236218E+04  0.90358741632E+02 0.  0.
          4    1    3    3  502    0  0.39575457786E+02 -0.58239254628E+02 -0.98698769257E+01  0.71101632254E+02  0.00000000000E+00 0. -1.
         -4    1    3    3    0  502  0.24908972809E+03 -0.31361060657E+03  0.15717776153E+03  0.43023499848E+03  0.00000000000E+00 0.  1.
         13    1    5    5    0    0  0.30245749288E+03  0.16693993157E+03  0.35548096928E+03  0.49569768537E+03  0.00000000000E+00 0. -1.
        -13    1    5    5    0    0  0.10608926546E+02  0.35345932675E+02  0.59790710181E+02  0.70262460126E+02  0.00000000000E+00 0.  1.
          1    1    6    6  503    0 -0.31220231817E+03  0.11153390421E+03  0.50155759001E+03  0.60122384796E+03  0.00000000000E+00 0. -1.
         -1    1    6    6    0  503 -0.28952928713E+03  0.58030092743E+02  0.32592812290E+03  0.43979977384E+03  0.00000000000E+00 0.  1.
<mgrwt>
<rscale>  0 0.15851604E+04</rscale>
<asrwt>0</asrwt>
<pdfrwt beam="1">  1        1 0.26910659E+00 0.15851604E+04</pdfrwt>
<pdfrwt beam="2">  1       -1 0.55250395E-01 0.15851604E+04</pdfrwt>
<totfact> 0.14036908E+01</totfact>
</mgrwt>
</event>
<event>
12    3  0.4773567E-008  0.1129566E+04  0.7818608E-02  0.9176845E-01
         -2   -1    0    0    0  501 -0.00000000000E+00  0.00000000000E+00  0.29826871028E+03  0.29826871028E+03  0.00000000000E+00 0.  1.
          2   -1    0    0  501    0  0.00000000000E+00 -0.00000000000E+00 -0.10694371228E+04  0.10694371228E+04  0.00000000000E+00 0. -1.
         23    2    1    2    0    0  0.10168194027E+03 -0.90301351928E+02 -0.30474950471E+03  0.34593780495E+03  0.91143585268E+02 0.  0.
        254    2    1    2    0    0 -0.10168194027E+03  0.90301351928E+02 -0.46641890783E+03  0.10217680281E+04  0.89887137824E+03 0.  0.
         23    2    4    4    0    0 -0.87691034499E+02  0.40553425257E+03 -0.53844456358E+03  0.68567154782E+03  0.89861982544E+02 0.  0.
         23    2    4    4    0    0 -0.13990905771E+02 -0.31523290064E+03  0.72025655755E+02  0.33609648032E+03  0.90584887851E+02 0.  0.
          4    1    3    3  502    0  0.99258335413E+02 -0.94247858108E+02 -0.20750075043E+03  0.24857883525E+03  0.00000000000E+00 0. -1.
         -4    1    3    3    0  502  0.24236048577E+01  0.39465061792E+01 -0.97248754277E+02  0.97358969694E+02  0.00000000000E+00 0.  1.
         13    1    5    5    0    0 -0.15426400516E+02  0.52173567588E+01 -0.11302225628E+02  0.19822586829E+02  0.00000000000E+00 0. -1.
        -13    1    5    5    0    0 -0.72264633983E+02  0.40031689581E+03 -0.52714233795E+03  0.66584896100E+03  0.00000000000E+00 0.  1.
          3    1    6    6  503    0  0.33284591771E+02 -0.10925909704E+03  0.46153445651E+02  0.12318910212E+03  0.00000000000E+00 0. -1.
         -3    1    6    6    0  503 -0.47275497542E+02 -0.20597380360E+03  0.25872210104E+02  0.21290737820E+03  0.00000000000E+00 0.  1.
<mgrwt>
<rscale>  0 0.11295656E+04</rscale>
<asrwt>0</asrwt>
<pdfrwt beam="1">  1        2 0.16452879E+00 0.11295656E+04</pdfrwt>
<pdfrwt beam="2">  1       -2 0.45887493E-01 0.11295656E+04</pdfrwt>
<totfact> 0.10153880E+02</totfact>
</mgrwt>
</event>
<event>
12    3  0.4773567E-008  0.4131180E+04  0.7818608E-02  0.7978594E-01
         -1   -1    0    0    0  501 -0.00000000000E+00  0.00000000000E+00  0.20188367650E+04  0.20188367650E+04  0.00000000000E+00 0.  1.
          1   -1    0    0  501    0  0.00000000000E+00 -0.00000000000E+00 -0.21134263404E+04  0.21134263404E+04  0.00000000000E+00 0. -1.
         23    2    1    2    0    0  0.25358702738E+03  0.81123663026E+03 -0.18098410486E+04  0.20014760636E+04  0.89277999876E+02 0.  0.
        254    2    1    2    0    0 -0.25358702738E+03 -0.81123663026E+03  0.17152514732E+04  0.21307870417E+04  0.93581758383E+03 0.  0.
         23    2    4    4    0    0  0.34675183210E+03 -0.35501988505E+03  0.68315140342E+03  0.84931205297E+03  0.91428504721E+02 0.  0.
         23    2    4    4    0    0 -0.60033885947E+03 -0.45621674521E+03  0.10321000698E+04  0.12814749888E+04  0.91690392103E+02 0.  0.
          3    1    3    3  502    0  0.23606145091E+03  0.67003399616E+03 -0.14548149769E+04  0.16189988208E+04  0.00000000000E+00 0. -1.
         -3    1    3    3    0  502  0.17525576463E+02  0.14120263410E+03 -0.35502607168E+03  0.38247724283E+03  0.00000000000E+00 0.  1.
         13    1    5    5    0    0  0.26175950037E+03 -0.20697292299E+03  0.44041923598E+03  0.55256215063E+03  0.00000000000E+00 0.  1.
        -13    1    5    5    0    0  0.84992331726E+02 -0.14804696206E+03  0.24273216745E+03  0.29674990234E+03  0.00000000000E+00 0. -1.
          4    1    6    6  503    0 -0.78748674349E+01 -0.21770849571E+02  0.18583477352E+02  0.29687186775E+02  0.00000000000E+00 0. -1.
         -4    1    6    6    0  503 -0.59246399204E+03 -0.43444589564E+03  0.10135165924E+04  0.12517878020E+04  0.00000000000E+00 0.  1.
<mgrwt>
<rscale>  0 0.41311804E+04</rscale>
<asrwt>0</asrwt>
<pdfrwt beam="1">  1        1 0.32514251E+00 0.41311804E+04</pdfrwt>
<pdfrwt beam="2">  1       -1 0.31059027E+00 0.41311804E+04</pdfrwt>
<totfact> 0.54461298E-02</totfact>
</mgrwt>
</event>
<event>
12    3  0.4773567E-008  0.1459388E+04  0.7818608E-02  0.8911918E-01
          1   -1    0    0  501    0  0.00000000000E+00  0.00000000000E+00  0.17595594908E+04  0.17595594908E+04  0.00000000000E+00 0. -1.
         -1   -1    0    0    0  501 -0.00000000000E+00 -0.00000000000E+00 -0.30260607665E+03  0.30260607665E+03  0.00000000000E+00 0.  1.
         23    2    1    2    0    0  0.36750537590E+03 -0.49162110355E+02  0.72429191708E+03  0.81734278580E+03  0.77287346619E+02 0.  0.
        254    2    1    2    0    0 -0.36750537590E+03  0.49162110355E+02  0.73266149702E+03  0.12448227816E+04  0.93558205090E+03 0.  0.
         23    2    4    4    0    0 -0.44380925418E+03 -0.12311333996E+03 -0.11814848072E+02  0.47182735647E+03  0.10177384295E+03 0.  0.
         23    2    4    4    0    0  0.76303878287E+02  0.17227545032E+03  0.74447634509E+03  0.77299542513E+03  0.88180418692E+02 0.  0.
          3    1    3    3  502    0  0.23091667259E+03 -0.20394181429E+02  0.37092648538E+03  0.43740700711E+03  0.00000000000E+00 0. -1.
         -3    1    3    3    0  502  0.13658870330E+03 -0.28767928926E+02  0.35336543170E+03  0.37993577869E+03  0.00000000000E+00 0.  1.
         13    1    5    5    0    0 -0.33559865973E+02 -0.15790382813E+02  0.27181392519E+02  0.45982919577E+02  0.00000000000E+00 0. -1.
        -13    1    5    5    0    0 -0.41024938821E+03 -0.10732295715E+03 -0.38996240591E+02  0.42584443690E+03  0.00000000000E+00 0.  1.
          2    1    6    6  503    0  0.95968683136E+02  0.15217633257E+03  0.64498366500E+03  0.66960552003E+03  0.00000000000E+00 0. -1.
         -2    1    6    6    0  503 -0.19664804849E+02  0.20099117748E+02  0.99492680093E+02  0.10338990510E+03  0.00000000000E+00 0.  1.
<mgrwt>
<rscale>  0 0.14593881E+04</rscale>
<asrwt>0</asrwt>
<pdfrwt beam="1">  1        1 0.27070145E+00 0.14593881E+04</pdfrwt>
<pdfrwt beam="2">  1       -1 0.46554782E-01 0.14593881E+04</pdfrwt>
<totfact> 0.19360482E+01</totfact>
</mgrwt>
</event>
<event>
12    3  0.4773567E-008  0.1074769E+04  0.7818608E-02  0.9230139E-01
         -1   -1    0    0    0  501 -0.00000000000E+00  0.00000000000E+00  0.33695240746E+03  0.33695240746E+03  0.00000000000E+00 0.  1.
          1   -1    0    0  501    0  0.00000000000E+00 -0.00000000000E+00 -0.85704057889E+03  0.85704057889E+03  0.00000000000E+00 0. -1.
         23    2    1    2    0    0  0.22439829863E+02 -0.75567268908E+02  0.28968088115E+02  0.12321390180E+03  0.90158512480E+02 0.  0.
        254    2    1    2    0    0 -0.22439829863E+02  0.75567268908E+02 -0.54905625954E+03  0.10707790845E+04  0.91590999212E+03 0.  0.
         23    2    4    4    0    0  0.15432965853E+03 -0.57179039495E+02 -0.74002041150E+03  0.76497292874E+03  0.10230486892E+03 0.  0.
         23    2    4    4    0    0 -0.17676948839E+03  0.13274630840E+03  0.19096415196E+03  0.30580615581E+03  0.90449229813E+02 0.  0.
          4    1    3    3  502    0 -0.15950674198E+01  0.20243069332E+02  0.11129534215E+00  0.20306119341E+02  0.00000000000E+00 0. -1.
         -4    1    3    3    0  502  0.24034897283E+02 -0.95810338240E+02  0.28856792773E+02  0.10290778246E+03  0.00000000000E+00 0.  1.
         13    1    5    5    0    0 -0.14808939969E+02 -0.81185032571E+00 -0.41906259514E+02  0.44453328226E+02  0.00000000000E+00 0. -1.
        -13    1    5    5    0    0  0.16913859850E+03 -0.56367189169E+02 -0.69811415199E+03  0.72051960052E+03  0.00000000000E+00 0.  1.
          3    1    6    6  503    0 -0.87100468490E+02  0.45939218281E+02  0.13962175724E+03  0.17085414389E+03  0.00000000000E+00 0. -1.
         -3    1    6    6    0  503 -0.89669019904E+02  0.86807090122E+02  0.51342394716E+02  0.13495201192E+03  0.00000000000E+00 0.  1.
<mgrwt>
<rscale>  0 0.10747686E+04</rscale>
<asrwt>0</asrwt>
<pdfrwt beam="1">  1        1 0.13185240E+00 0.10747686E+04</pdfrwt>
<pdfrwt beam="2">  1       -1 0.51838832E-01 0.10747686E+04</pdfrwt>
<totfact> 0.73842259E+01</totfact>
</mgrwt>
</event>
<event>
12    3  0.4773567E-008  0.2197640E+04  0.7818608E-02  0.8519411E-01
          2   -1    0    0  501    0  0.00000000000E+00  0.00000000000E+00  0.70139561469E+03  0.70139561469E+03  0.00000000000E+00 0. -1.
         -2   -1    0    0    0  501 -0.00000000000E+00 -0.00000000000E+00 -0.17214322019E+04  0.17214322019E+04  0.00000000000E+00 0.  1.
         23    2    1    2    0    0 -0.17336205759E+03  0.24412836813E+03 -0.13783415254E+04  0.14134989665E+04  0.92200350788E+02 0.  0.
        254    2    1    2    0    0  0.17336205759E+03 -0.24412836813E+03  0.35830493823E+03  0.10093288500E+04  0.89482357789E+03 0.  0.
         23    2    4    4    0    0 -0.30098901959E+03 -0.92866713070E+01  0.35183761783E+03  0.47218504016E+03  0.92132353987E+02 0.  0.
         23    2    4    4    0    0  0.47435107718E+03 -0.23484169682E+03  0.64673204011E+01  0.53714380984E+03  0.91225430820E+02 0.  0.
          4    1    3    3  502    0 -0.41442808924E+02  0.52517717632E+02 -0.51644029756E+03  0.52075541094E+03  0.00000000000E+00 0. -1.
         -4    1    3    3    0  502 -0.13191924867E+03  0.19161065050E+03 -0.86190122783E+03  0.89274355561E+03  0.00000000000E+00 0.  1.
         13    1    5    5    0    0 -0.30505613285E+02 -0.30957737720E+02  0.44576179470E+02  0.62257607911E+02  0.00000000000E+00 0. -1.
        -13    1    5    5    0    0 -0.27048340631E+03  0.21671066413E+02  0.30726143836E+03  0.40992743225E+03  0.00000000000E+00 0.  1.
          1    1    6    6  503    0  0.42403046581E+02  0.49652279712E+01 -0.48187304207E+01  0.42963845394E+02  0.00000000000E+00 0. -1.
         -1    1    6    6    0  503  0.43194803060E+03 -0.23980692479E+03  0.11286050822E+02  0.49417996445E+03  0.00000000000E+00 0.  1.
<mgrwt>
<rscale>  0 0.21976396E+04</rscale>
<asrwt>0</asrwt>
<pdfrwt beam="1">  1        2 0.10790702E+00 0.21976396E+04</pdfrwt>
<pdfrwt beam="2">  1       -2 0.26483572E+00 0.21976396E+04</pdfrwt>
<totfact> 0.19473625E+00</totfact>
</mgrwt>
</event>
<event>
12    3  0.4773567E-008  0.1132167E+04  0.7818608E-02  0.9174395E-01
          2   -1    0    0  501    0  0.00000000000E+00  0.00000000000E+00  0.28705765561E+04  0.28705765561E+04  0.00000000000E+00 0. -1.
         -2   -1    0    0    0  501 -0.00000000000E+00 -0.00000000000E+00 -0.11163285274E+03  0.11163285274E+03  0.00000000000E+00 0.  1.
         23    2    1    2    0    0  0.10815678488E+03 -0.41890327745E+02  0.79451744466E+03  0.80806455738E+03  0.90871719193E+02 0.  0.
        254    2    1    2    0    0 -0.10815678488E+03  0.41890327745E+02  0.19644262587E+04  0.21741448515E+04  0.92438229081E+03 0.  0.
         23    2    4    4    0    0  0.23926361183E+03  0.31509282860E+03  0.51369753468E+03  0.65484000961E+03  0.91649956199E+02 0.  0.
         23    2    4    4    0    0 -0.34742039671E+03 -0.27320250085E+03  0.14507287240E+04  0.15193048418E+04  0.91284353695E+02 0.  0.
          2    1    3    3  502    0  0.75515249674E+02 -0.53976625969E+02  0.71833130176E+03  0.72430372647E+03  0.00000000000E+00 0. -1.
         -2    1    3    3    0  502  0.32641535203E+02  0.12086298224E+02  0.76186142898E+02  0.83760830911E+02  0.00000000000E+00 0.  1.
         13    1    5    5    0    0  0.23212768663E+03  0.26987940847E+03  0.48183730940E+03  0.59907040550E+03  0.00000000000E+00 0.  1.
        -13    1    5    5    0    0  0.71359252082E+01  0.45213420121E+02  0.31860225274E+02  0.55769604106E+02  0.00000000000E+00 0. -1.
          4    1    6    6  503    0 -0.41405635181E+02 -0.10181014614E+01  0.15107280550E+03  0.15664755254E+03  0.00000000000E+00 0. -1.
         -4    1    6    6    0  503 -0.30601476153E+03 -0.27218439939E+03  0.12996559185E+04  0.13626572893E+04  0.00000000000E+00 0.  1.
<mgrwt>
<rscale>  0 0.11321672E+04</rscale>
<asrwt>0</asrwt>
<pdfrwt beam="1">  1        2 0.44162711E+00 0.11321672E+04</pdfrwt>
<pdfrwt beam="2">  1       -2 0.17174287E-01 0.11321672E+04</pdfrwt>
<totfact> 0.58681771E+01</totfact>
</mgrwt>
</event>
<event>
12    3  0.4773567E-008  0.1841548E+04  0.7818608E-02  0.8684512E-01
         -2   -1    0    0    0  501 -0.00000000000E+00  0.00000000000E+00  0.28507032046E+03  0.28507032046E+03  0.00000000000E+00 0.  1.
          2   -1    0    0  501    0  0.00000000000E+00 -0.00000000000E+00 -0.29740885131E+04  0.29740885131E+04  0.00000000000E+00 0. -1.
         23    2    1    2    0    0  0.67761773506E+03  0.15425721232E+03 -0.10839995719E+04  0.12909602517E+04  0.92532250282E+02 0.  0.
        254    2    1    2    0    0 -0.67761773506E+03 -0.15425721232E+03 -0.16050186208E+04  0.19681985818E+04  0.90264046108E+03 0.  0.
         23    2    4    4    0    0 -0.36157846216E+03 -0.22760741956E+03 -0.13070269208E+03  0.45525663948E+03  0.87357268400E+02 0.  0.
         23    2    4    4    0    0 -0.31603927291E+03  0.73350207240E+02 -0.14743159287E+04  0.15129419423E+04  0.10062200721E+03 0.  0.
          3    1    3    3  502    0  0.25003906496E+03  0.40985179063E+02 -0.32016276774E+03  0.40829341992E+03  0.00000000000E+00 0. -1.
         -3    1    3    3    0  502  0.42757867010E+03  0.11327203326E+03 -0.76383680412E+03  0.88266683181E+03  0.00000000000E+00 0.  1.
         13    1    5    5    0    0 -0.34871319260E+03 -0.23362279371E+03 -0.11752204195E+03  0.43588063822E+03  0.00000000000E+00 0.  1.
        -13    1    5    5    0    0 -0.12865269560E+02  0.60153741508E+01 -0.13180650132E+02  0.19376001262E+02  0.00000000000E+00 0. -1.
          3    1    6    6  503    0 -0.87527372612E+02 -0.16188533476E+02 -0.28540844444E+03  0.29896670338E+03  0.00000000000E+00 0. -1.
         -3    1    6    6    0  503 -0.22851190029E+03  0.89538740716E+02 -0.11889074842E+04  0.12139752389E+04  0.00000000000E+00 0.  1.
<mgrwt>
<rscale>  0 0.18415476E+04</rscale>
<asrwt>0</asrwt>
<pdfrwt beam="1">  1        2 0.45755205E+00 0.18415476E+04</pdfrwt>
<pdfrwt beam="2">  1       -2 0.43856975E-01 0.18415476E+04</pdfrwt>
<totfact> 0.84124696E+00</totfact>
</mgrwt>
</event>
<event>
12    3  0.4773567E-008  0.1764957E+04  0.7818608E-02  0.8725160E-01
          2   -1    0    0  501    0  0.00000000000E+00  0.00000000000E+00  0.18994582316E+04  0.18994582316E+04  0.00000000000E+00 0. -1.
         -2   -1    0    0    0  501 -0.00000000000E+00 -0.00000000000E+00 -0.40999495671E+03  0.40999495671E+03  0.00000000000E+00 0.  1.
         23    2    1    2    0    0  0.24795674161E+03 -0.59144069344E+03  0.71255558314E+03  0.96297968594E+03  0.91157977749E+02 0.  0.
        254    2    1    2    0    0 -0.24795674161E+03  0.59144069344E+03  0.77690769171E+03  0.13464735023E+04  0.89337600788E+03 0.  0.
         23    2    4    4    0    0  0.54863724560E+02 -0.17498399215E+03 -0.73453796724E+01  0.20512812969E+03  0.91619698798E+02 0.  0.
         23    2    4    4    0    0 -0.30282046617E+03  0.76642468559E+03  0.78425307138E+03  0.11413453726E+04  0.92246117767E+02 0.  0.
          2    1    3    3  502    0  0.18807041296E+03 -0.51432379619E+03  0.57248166764E+03  0.79223399784E+03  0.00000000000E+00 0. -1.
         -2    1    3    3    0  502  0.59886328644E+02 -0.77116897252E+02  0.14007391550E+03  0.17074568810E+03  0.00000000000E+00 0.  1.
         13    1    5    5    0    0  0.59680897275E+02 -0.98172991283E+02  0.31202932073E+02  0.11905195793E+03  0.00000000000E+00 0.  1.
        -13    1    5    5    0    0 -0.48171727152E+01 -0.76811000868E+02 -0.38548311745E+02  0.86076171765E+02  0.00000000000E+00 0. -1.
          4    1    6    6  503    0 -0.53718339230E+02  0.95078613416E+02  0.14443639869E+03  0.18107312325E+03  0.00000000000E+00 0. -1.
         -4    1    6    6    0  503 -0.24910212694E+03  0.67134607217E+03  0.63981667269E+03  0.96027224937E+03  0.00000000000E+00 0.  1.
<mgrwt>
<rscale>  0 0.17649570E+04</rscale>
<asrwt>0</asrwt>
<pdfrwt beam="1">  1        2 0.29222434E+00 0.17649570E+04</pdfrwt>
<pdfrwt beam="2">  1       -2 0.63076148E-01 0.17649570E+04</pdfrwt>
<totfact> 0.16749767E+01</totfact>
</mgrwt>
</event>
<event>
12    3  0.4773567E-008  0.1557641E+04  0.7818608E-02  0.8847002E-01
          2   -1    0    0  501    0  0.00000000000E+00  0.00000000000E+00  0.25844191849E+04  0.25844191849E+04  0.00000000000E+00 0. -1.
         -2   -1    0    0    0  501 -0.00000000000E+00 -0.00000000000E+00 -0.23469922086E+03  0.23469922086E+03  0.00000000000E+00 0.  1.
         23    2    1    2    0    0  0.70262451868E+02 -0.32665743236E+03  0.76617847594E+02  0.35484695654E+03  0.91674302483E+02 0.  0.
        254    2    1    2    0    0 -0.70262451868E+02  0.32665743236E+03  0.22731021164E+04  0.24642714492E+04  0.89106602081E+03 0.  0.
         23    2    4    4    0    0 -0.42265772419E+03 -0.31340369962E+02  0.12088980463E+04  0.12840415068E+04  0.87785729421E+02 0.  0.
         23    2    4    4    0    0  0.35239527232E+03  0.35799780232E+03  0.10642040701E+04  0.11802299424E+04  0.89819594838E+02 0.  0.
          3    1    3    3  502    0  0.11429008451E+02 -0.15186185413E+03 -0.67671776599E+01  0.15244159428E+03  0.00000000000E+00 0. -1.
         -3    1    3    3    0  502  0.58833443417E+02 -0.17479557823E+03  0.83385025254E+02  0.20240536225E+03  0.00000000000E+00 0.  1.
         13    1    5    5    0    0 -0.38868573815E+03 -0.52995109213E+02  0.10831697262E+04  0.11520163802E+04  0.00000000000E+00 0. -1.
        -13    1    5    5    0    0 -0.33971986040E+02  0.21654739250E+02  0.12572832015E+03  0.13202512660E+03  0.00000000000E+00 0.  1.
          2    1    6    6  503    0  0.42534383733E+02  0.30441429827E+02  0.60998470035E+02  0.80353393183E+02  0.00000000000E+00 0.  1.
         -2    1    6    6    0  503  0.30986088859E+03  0.32755637250E+03  0.10032056001E+04  0.10998765492E+04  0.00000000000E+00 0. -1.
<mgrwt>
<rscale>  0 0.15576407E+04</rscale>
<asrwt>0</asrwt>
<pdfrwt beam="1">  1        2 0.39760293E+00 0.15576407E+04</pdfrwt>
<pdfrwt beam="2">  1       -2 0.36107574E-01 0.15576407E+04</pdfrwt>
<totfact> 0.21638825E+01</totfact>
</mgrwt>
</event>
<event>
12    3  0.4773567E-008  0.2387093E+04  0.7818608E-02  0.8444352E-01
         -1   -1    0    0    0  501 -0.00000000000E+00  0.00000000000E+00  0.68685430013E+03  0.68685430013E+03  0.00000000000E+00 0.  1.
          1   -1    0    0  501    0  0.00000000000E+00 -0.00000000000E+00 -0.20740253499E+04  0.20740253499E+04  0.00000000000E+00 0. -1.
         23    2    1    2    0    0  0.43115101635E+03 -0.68930539499E+03 -0.13063933718E+04  0.15414499992E+04  0.91494982079E+02 0.  0.
        254    2    1    2    0    0 -0.43115101635E+03  0.68930539499E+03 -0.80777677983E+02  0.12194296508E+04  0.90523505985E+03 0.  0.
         23    2    4    4    0    0 -0.48304592280E+03  0.87522319844E+03 -0.83222534412E+02  0.10075437454E+04  0.94177481783E+02 0.  0.
         23    2    4    4    0    0  0.51894906451E+02 -0.18591780345E+03  0.24448564290E+01  0.21188590541E+03  0.87356445866E+02 0.  0.
          1    1    3    3  502    0  0.41584694288E+03 -0.66058912074E+03 -0.12813534405E+04  0.15003910510E+04  0.00000000000E+00 0. -1.
         -1    1    3    3    0  502  0.15304073469E+02 -0.28716274254E+02 -0.25039931286E+02  0.41058948240E+02  0.00000000000E+00 0.  1.
         13    1    5    5    0    0 -0.22923782142E+03  0.42805982369E+03 -0.87258795843E+02  0.49335513464E+03  0.00000000000E+00 0. -1.
        -13    1    5    5    0    0 -0.25380810138E+03  0.44716337475E+03  0.40362614305E+01  0.51418861077E+03  0.00000000000E+00 0.  1.
          2    1    6    6  503    0  0.17241344949E+02 -0.17205639122E+03  0.12079152203E+02  0.17333946940E+03  0.00000000000E+00 0. -1.
         -2    1    6    6    0  503  0.34653561501E+02 -0.13861412226E+02 -0.96342957745E+01  0.38546436005E+02  0.00000000000E+00 0.  1.
<mgrwt>
<rscale>  0 0.23870930E+04</rscale>
<asrwt>0</asrwt>
<pdfrwt beam="1">  1        1 0.31908082E+00 0.23870930E+04</pdfrwt>
<pdfrwt beam="2">  1       -1 0.10566989E+00 0.23870930E+04</pdfrwt>
<totfact> 0.19969002E+00</totfact>
</mgrwt>
</event>
<event>
12    3  0.4773567E-008  0.1861270E+04  0.7818608E-02  0.8674379E-01
          1   -1    0    0  501    0  0.00000000000E+00  0.00000000000E+00  0.40683269291E+04  0.40683269291E+04  0.00000000000E+00 0. -1.
         -1   -1    0    0    0  501 -0.00000000000E+00 -0.00000000000E+00 -0.21288396199E+03  0.21288396199E+03  0.00000000000E+00 0.  1.
         23    2    1    2    0    0  0.11777639306E+03  0.24852777751E+02  0.31164417824E+04  0.31198733456E+04  0.83134649893E+02 0.  0.
        254    2    1    2    0    0 -0.11777639306E+03 -0.24852777751E+02  0.73900118462E+03  0.11613375454E+04  0.88774613727E+03 0.  0.
         23    2    4    4    0    0 -0.21666520213E+03 -0.11030641652E+03  0.89893581842E+03  0.93575197942E+03  0.91841417777E+02 0.  0.
         23    2    4    4    0    0  0.98888809072E+02  0.85453638771E+02 -0.15993463380E+03  0.22558556601E+03  0.90710746691E+02 0.  0.
          4    1    3    3  502    0  0.10080625610E+03  0.43655370664E+02  0.28768258513E+04  0.28789224844E+04  0.00000000000E+00 0. -1.
         -4    1    3    3    0  502  0.16970136960E+02 -0.18802592913E+02  0.23961593113E+03  0.24095086117E+03  0.00000000000E+00 0.  1.
         13    1    5    5    0    0 -0.23277202054E+02 -0.24066543941E+02  0.45810837092E+02  0.56742043211E+02  0.00000000000E+00 0. -1.
        -13    1    5    5    0    0 -0.19338800008E+03 -0.86239872581E+02  0.85312498133E+03  0.87900993621E+03  0.00000000000E+00 0.  1.
          4    1    6    6  503    0  0.72313947099E+02  0.18912241495E+02 -0.12553796567E+03  0.14610530671E+03  0.00000000000E+00 0.  1.
         -4    1    6    6    0  503  0.26574861973E+02  0.66541397276E+02 -0.34396668123E+02  0.79480259300E+02  0.00000000000E+00 0. -1.
<mgrwt>
<rscale>  0 0.18612701E+04</rscale>
<asrwt>0</asrwt>
<pdfrwt beam="1">  1        1 0.62589639E+00 0.18612701E+04</pdfrwt>
<pdfrwt beam="2">  1       -1 0.32751382E-01 0.18612701E+04</pdfrwt>
<totfact> 0.69200807E-01</totfact>
</mgrwt>
</event>
<event>
12    3  0.4773567E-008  0.1237679E+04  0.7818608E-02  0.9080500E-01
         -2   -1    0    0    0  501 -0.00000000000E+00  0.00000000000E+00  0.41520764462E+03  0.41520764462E+03  0.00000000000E+00 0.  1.
          2   -1    0    0  501    0  0.00000000000E+00 -0.00000000000E+00 -0.92233994647E+03  0.92233994647E+03  0.00000000000E+00 0. -1.
         23    2    1    2    0    0  0.18065133626E+03 -0.96864853618E+02 -0.32470988965E+03  0.39454581523E+03  0.90621094225E+02 0.  0.
        254    2    1    2    0    0 -0.18065133626E+03  0.96864853618E+02 -0.18242241220E+03  0.94300177586E+03  0.90219549303E+03 0.  0.
         23    2    4    4    0    0  0.31621754963E+03  0.10357963190E+03  0.10601616478E+03  0.36109051439E+03  0.91785911482E+02 0.  0.
         23    2    4    4    0    0 -0.49686888589E+03 -0.67147782863E+01 -0.28843857698E+03  0.58191126147E+03  0.92196125292E+02 0.  0.
          4    1    3    3  502    0  0.11859240660E+03 -0.10878185682E+03 -0.23309055467E+03  0.28324699107E+03  0.00000000000E+00 0. -1.
         -4    1    3    3    0  502  0.62058929663E+02  0.11917003201E+02 -0.91619334984E+02  0.11129882416E+03  0.00000000000E+00 0.  1.
         13    1    5    5    0    0  0.43320059722E+02  0.13142269488E+02  0.51334366639E+02  0.68443874962E+02  0.00000000000E+00 0. -1.
        -13    1    5    5    0    0  0.27289748991E+03  0.90437362416E+02  0.54681798142E+02  0.29264663943E+03  0.00000000000E+00 0.  1.
          3    1    6    6  503    0 -0.29753885116E+03 -0.79028974780E+01 -0.22367678963E+03  0.37232127250E+03  0.00000000000E+00 0. -1.
         -3    1    6    6    0  503 -0.19933003474E+03  0.11881191917E+01 -0.64761787344E+02  0.20958998897E+03  0.00000000000E+00 0.  1.
<mgrwt>
<rscale>  0 0.12376794E+04</rscale>
<asrwt>0</asrwt>
<pdfrwt beam="1">  1        2 0.14189845E+00 0.12376794E+04</pdfrwt>
<pdfrwt beam="2">  1       -2 0.63878099E-01 0.12376794E+04</pdfrwt>
<totfact> 0.63199748E+01</totfact>
</mgrwt>
</event>
<event>
12    3  0.4773567E-008  0.1968268E+04  0.7818608E-02  0.8621602E-01
         -2   -1    0    0    0  501 -0.00000000000E+00  0.00000000000E+00  0.97368069790E+03  0.97368069790E+03  0.00000000000E+00 0.  1.
          2   -1    0    0  501    0  0.00000000000E+00 -0.00000000000E+00 -0.99469917495E+03  0.99469917495E+03  0.00000000000E+00 0. -1.
         23    2    1    2    0    0 -0.45597303942E+03 -0.37908400590E+03  0.50399749674E+03  0.78356027485E+03  0.91307893377E+02 0.  0.
        254    2    1    2    0    0  0.45597303942E+03  0.37908400590E+03 -0.52501597379E+03  0.11848195980E+04  0.88121484944E+03 0.  0.
         23    2    4    4    0    0  0.58119749780E+03 -0.54141705967E+02 -0.37971279586E+03  0.70197357473E+03  0.88674892246E+02 0.  0.
         23    2    4    4    0    0 -0.12522445837E+03  0.43322571186E+03 -0.14530317793E+03  0.48284602327E+03  0.93067643537E+02 0.  0.
          4    1    3    3  502    0 -0.45216114405E+03 -0.36700891961E+03  0.50504590874E+03  0.77085447213E+03  0.00000000000E+00 0.  1.
         -4    1    3    3    0  502 -0.38118953730E+01 -0.12075086286E+02 -0.10484119963E+01  0.12705802724E+02  0.00000000000E+00 0. -1.
         13    1    5    5    0    0  0.44627440714E+03 -0.62633980795E+02 -0.25365837530E+03  0.51713289721E+03  0.00000000000E+00 0. -1.
        -13    1    5    5    0    0  0.13492309065E+03  0.84922748277E+01 -0.12605442056E+03  0.18484067752E+03  0.00000000000E+00 0.  1.
          2    1    6    6  503    0 -0.23900605276E+02  0.18090258302E+03 -0.20361421695E+02  0.18360711034E+03  0.00000000000E+00 0. -1.
         -2    1    6    6    0  503 -0.10132385310E+03  0.25232312885E+03 -0.12494175624E+03  0.29923891293E+03  0.00000000000E+00 0.  1.
<mgrwt>
<rscale>  0 0.19682677E+04</rscale>
<asrwt>0</asrwt>
<pdfrwt beam="1">  1        2 0.15303064E+00 0.19682677E+04</pdfrwt>
<pdfrwt beam="2">  1       -2 0.14979703E+00 0.19682677E+04</pdfrwt>
<totfact> 0.71097333E+00</totfact>
</mgrwt>
</event>
<event>
12    3  0.4773567E-008  0.1644045E+04  0.7818608E-02  0.8793937E-01
         -2   -1    0    0    0  501 -0.00000000000E+00  0.00000000000E+00  0.12701938834E+04  0.12701938834E+04  0.00000000000E+00 0.  1.
          2   -1    0    0  501    0  0.00000000000E+00 -0.00000000000E+00 -0.53198286072E+03  0.53198286072E+03  0.00000000000E+00 0. -1.
         23    2    1    2    0    0  0.35417847419E+02  0.47103346290E+03  0.59101456351E+03  0.76171509762E+03  0.88231108821E+02 0.  0.
        254    2    1    2    0    0 -0.35417847419E+02 -0.47103346290E+03  0.14719645912E+03  0.10404616465E+04  0.91529595928E+03 0.  0.
         23    2    4    4    0    0 -0.13649392730E+03 -0.28429583235E+02 -0.33388104854E+03  0.37289982929E+03  0.90215822979E+02 0.  0.
         23    2    4    4    0    0  0.10107607988E+03 -0.44260387966E+03  0.48107750766E+03  0.66756181717E+03  0.89936884226E+02 0.  0.
          3    1    3    3  502    0  0.65209440179E+00  0.11428244892E+02 -0.93145003969E+00  0.11484668372E+02  0.00000000000E+00 0. -1.
         -3    1    3    3    0  502  0.34765753017E+02  0.45960521801E+03  0.59194601355E+03  0.75023042924E+03  0.00000000000E+00 0.  1.
         13    1    5    5    0    0 -0.61034707551E+02  0.32073125496E+02 -0.12638368857E+03  0.14396790490E+03  0.00000000000E+00 0. -1.
        -13    1    5    5    0    0 -0.75459219747E+02 -0.60502708731E+02 -0.20749735997E+03  0.22893192439E+03  0.00000000000E+00 0.  1.
          3    1    6    6  503    0 -0.17033930040E+02 -0.57992907086E+02  0.65839447107E+02  0.89376534058E+02  0.00000000000E+00 0. -1.
         -3    1    6    6    0  503  0.11811000992E+03 -0.38461097258E+03  0.41523806055E+03  0.57818528311E+03  0.00000000000E+00 0.  1.
<mgrwt>
<rscale>  0 0.16440455E+04</rscale>
<asrwt>0</asrwt>
<pdfrwt beam="1">  1        2 0.81843518E-01 0.16440455E+04</pdfrwt>
<pdfrwt beam="2">  1       -2 0.19541444E+00 0.16440455E+04</pdfrwt>
<totfact> 0.77970147E+00</totfact>
</mgrwt>
</event>
<event>
12    3  0.4773567E-008  0.1451116E+04  0.7818608E-02  0.8917627E-01
          2   -1    0    0  501    0  0.00000000000E+00  0.00000000000E+00  0.34719921783E+03  0.34719921783E+03  0.00000000000E+00 0. -1.
         -2   -1    0    0    0  501 -0.00000000000E+00 -0.00000000000E+00 -0.15162315165E+04  0.15162315165E+04  0.00000000000E+00 0.  1.
         23    2    1    2    0    0  0.42531258047E+03 -0.90460713030E+01 -0.21674587589E+03  0.48693837211E+03  0.95695250717E+02 0.  0.
        254    2    1    2    0    0 -0.42531258047E+03  0.90460713030E+01 -0.95228642283E+03  0.13764923623E+04  0.89828123088E+03 0.  0.
         23    2    4    4    0    0 -0.28354382916E+03 -0.30732868817E+03 -0.80493335678E+02  0.43351136627E+03  0.81270547992E+02 0.  0.
         23    2    4    4    0    0 -0.14176875131E+03  0.31637475947E+03 -0.87179308716E+03  0.94298099600E+03  0.94860975722E+02 0.  0.
          2    1    3    3  502    0  0.27755618757E+03  0.37930017570E+02 -0.12476804181E+03  0.30666461770E+03  0.00000000000E+00 0. -1.
         -2    1    3    3    0  502  0.14775639289E+03 -0.46976088873E+02 -0.91977834080E+02  0.18027375441E+03  0.00000000000E+00 0.  1.
         13    1    5    5    0    0 -0.28340377224E+03 -0.28042660031E+03 -0.79790817431E+02  0.40659974278E+03  0.00000000000E+00 0. -1.
        -13    1    5    5    0    0 -0.14005692275E+00 -0.26902087864E+02 -0.70251824711E+00  0.26911623497E+02  0.00000000000E+00 0.  1.
          3    1    6    6  503    0 -0.26110685145E+02  0.13835672910E+03 -0.43713452898E+03  0.45925042057E+03  0.00000000000E+00 0. -1.
         -3    1    6    6    0  503 -0.11565806616E+03  0.17801803038E+03 -0.43465855818E+03  0.48373057543E+03  0.00000000000E+00 0.  1.
<mgrwt>
<rscale>  0 0.14511160E+04</rscale>
<asrwt>0</asrwt>
<pdfrwt beam="1">  1        2 0.53415264E-01 0.14511160E+04</pdfrwt>
<pdfrwt beam="2">  1       -2 0.23326639E+00 0.14511160E+04</pdfrwt>
<totfact> 0.73757868E+00</totfact>
</mgrwt>
</event>
<event>
12    3  0.4773567E-008  0.2927975E+04  0.7818608E-02  0.8264602E-01
          3   -1    0    0  501    0  0.00000000000E+00  0.00000000000E+00  0.14009461421E+04  0.14009461421E+04  0.00000000000E+00 0. -1.
         -3   -1    0    0    0  501 -0.00000000000E+00 -0.00000000000E+00 -0.15298661175E+04  0.15298661175E+04  0.00000000000E+00 0.  1.
         23    2    1    2    0    0  0.62971548927E+03  0.19347022495E+03 -0.12115054794E+04  0.13819738030E+04  0.90187250164E+02 0.  0.
        254    2    1    2    0    0 -0.62971548927E+03 -0.19347022495E+03  0.10825855041E+04  0.15488384566E+04  0.89047002509E+03 0.  0.
         23    2    4    4    0    0 -0.95881916908E+02 -0.44682421204E+03  0.26878866481E+03  0.53887495614E+03  0.96403597322E+02 0.  0.
         23    2    4    4    0    0 -0.53383357236E+03  0.25335398709E+03  0.81379683929E+03  0.10099635005E+04  0.92706261137E+02 0.  0.
          1    1    3    3  502    0  0.37848501784E+03  0.11318804960E+03 -0.63259917421E+03  0.74581777835E+03  0.00000000000E+00 0. -1.
         -1    1    3    3    0  502  0.25123047143E+03  0.80282175352E+02 -0.57890630522E+03  0.63615602464E+03  0.00000000000E+00 0.  1.
         13    1    5    5    0    0 -0.11481338507E+03 -0.36793728316E+03  0.21248823867E+03  0.44012635607E+03  0.00000000000E+00 0.  1.
        -13    1    5    5    0    0  0.18931468158E+02 -0.78886928875E+02  0.56300426136E+02  0.98748600076E+02  0.00000000000E+00 0. -1.
          1    1    6    6  503    0 -0.49570315678E+03  0.20507131761E+03  0.73700014295E+03  0.91156188800E+03  0.00000000000E+00 0. -1.
         -1    1    6    6    0  503 -0.38130415584E+02  0.48282669478E+02  0.76796696345E+02  0.98401612456E+02  0.00000000000E+00 0.  1.
<mgrwt>
<rscale>  0 0.29279754E+04</rscale>
<asrwt>0</asrwt>
<pdfrwt beam="1">  1        3 0.21553018E+00 0.29279754E+04</pdfrwt>
<pdfrwt beam="2">  1       -3 0.23536402E+00 0.29279754E+04</pdfrwt>
<totfact> 0.23494716E-02</totfact>
</mgrwt>
</event>
<event>
12    3  0.4773567E-008  0.1734944E+04  0.7818608E-02  0.8741682E-01
          1   -1    0    0  501    0  0.00000000000E+00  0.00000000000E+00  0.12047619916E+04  0.12047619916E+04  0.00000000000E+00 0. -1.
         -1   -1    0    0    0  501 -0.00000000000E+00 -0.00000000000E+00 -0.62461072561E+03  0.62461072561E+03  0.00000000000E+00 0.  1.
         23    2    1    2    0    0 -0.16436320555E+03 -0.58382132900E+02 -0.42361279009E+03  0.46820160969E+03  0.96649959170E+02 0.  0.
        254    2    1    2    0    0  0.16436320555E+03  0.58382132900E+02  0.10037640560E+04  0.13611711075E+04  0.90267423074E+03 0.  0.
         23    2    4    4    0    0  0.31396287322E+03  0.39160052425E+03  0.75106001711E+03  0.90780397332E+03  0.89962482846E+02 0.  0.
         23    2    4    4    0    0 -0.14959966767E+03 -0.33321839135E+03  0.25270403892E+03  0.45336713415E+03  0.90927829306E+02 0.  0.
          4    1    3    3  502    0 -0.47231852762E+02  0.26745998563E+02 -0.12789530930E+03  0.13893669960E+03  0.00000000000E+00 0. -1.
         -4    1    3    3    0  502 -0.11713135279E+03 -0.85128131463E+02 -0.29571748079E+03  0.32926491009E+03  0.00000000000E+00 0.  1.
         13    1    5    5    0    0  0.13418267499E+02  0.56466363745E+02  0.63902144827E+02  0.86324876198E+02  0.00000000000E+00 0. -1.
        -13    1    5    5    0    0  0.30054460572E+03  0.33513416050E+03  0.68715787228E+03  0.82147909712E+03  0.00000000000E+00 0.  1.
          2    1    6    6  503    0 -0.16051663178E+03 -0.28800679979E+03  0.22597774618E+03  0.39972421439E+03  0.00000000000E+00 0. -1.
         -2    1    6    6    0  503  0.10916964111E+02 -0.45211591558E+02  0.26726292746E+02  0.53642919762E+02  0.00000000000E+00 0.  1.
<mgrwt>
<rscale>  0 0.17349435E+04</rscale>
<asrwt>0</asrwt>
<pdfrwt beam="1">  1        1 0.18534800E+00 0.17349435E+04</pdfrwt>
<pdfrwt beam="2">  1       -1 0.96093958E-01 0.17349435E+04</pdfrwt>
<totfact> 0.10496245E+01</totfact>
</mgrwt>
</event>
<event>
12    3  0.4773567E-008  0.2999942E+04  0.7818608E-02  0.8243747E-01
         -2   -1    0    0    0  501 -0.00000000000E+00  0.00000000000E+00  0.86183447202E+03  0.86183447202E+03  0.00000000000E+00 0.  1.
          2   -1    0    0  501    0  0.00000000000E+00 -0.00000000000E+00 -0.26106088937E+04  0.26106088937E+04  0.00000000000E+00 0. -1.
         23    2    1    2    0    0  0.12958613140E+04  0.35922968837E+03 -0.54428022865E+03  0.14533860020E+04  0.88246186284E+02 0.  0.
        254    2    1    2    0    0 -0.12958613140E+04 -0.35922968837E+03 -0.12044941931E+04  0.20190573637E+04  0.90414814192E+03 0.  0.
         23    2    4    4    0    0 -0.12512085262E+04 -0.45013051163E+03 -0.12930694574E+04  0.18570204401E+04  0.91411376373E+02 0.  0.
         23    2    4    4    0    0 -0.44652787840E+02  0.90900823261E+02  0.88575264319E+02  0.16203692362E+03  0.90297043331E+02 0.  0.
          3    1    3    3  502    0  0.89930427641E+03  0.25709552582E+03 -0.33504976511E+03  0.99353139662E+03  0.00000000000E+00 0. -1.
         -3    1    3    3    0  502  0.39655703763E+03  0.10213416255E+03 -0.20923046354E+03  0.45985460542E+03  0.00000000000E+00 0.  1.
         13    1    5    5    0    0 -0.53052319171E+03 -0.16214700007E+03 -0.48906592567E+03  0.73954850160E+03  0.00000000000E+00 0. -1.
        -13    1    5    5    0    0 -0.72068533450E+03 -0.28798351156E+03 -0.80400353171E+03  0.11174719385E+04  0.00000000000E+00 0.  1.
          2    1    6    6  503    0  0.21194182641E+02  0.58279908562E+02  0.44780163220E+02  0.76491856677E+02  0.00000000000E+00 0. -1.
         -2    1    6    6    0  503 -0.65846970481E+02  0.32620914698E+02  0.43795101099E+02  0.85545066939E+02  0.00000000000E+00 0.  1.
<mgrwt>
<rscale>  0 0.29999418E+04</rscale>
<asrwt>0</asrwt>
<pdfrwt beam="1">  1        2 0.40163213E+00 0.29999418E+04</pdfrwt>
<pdfrwt beam="2">  1       -2 0.13258992E+00 0.29999418E+04</pdfrwt>
<totfact> 0.10604200E+00</totfact>
</mgrwt>
</event>
<event>
12    3  0.4773567E-008  0.2591373E+04  0.7818608E-02  0.8371138E-01
         -1   -1    0    0    0  501 -0.00000000000E+00  0.00000000000E+00  0.15958585738E+04  0.15958585738E+04  0.00000000000E+00 0.  1.
          1   -1    0    0  501    0  0.00000000000E+00 -0.00000000000E+00 -0.10519750622E+04  0.10519750622E+04  0.00000000000E+00 0. -1.
         23    2    1    2    0    0 -0.25510364341E+03 -0.61394952572E+03  0.11843161638E+04  0.13612164335E+04  0.91068732737E+02 0.  0.
        254    2    1    2    0    0  0.25510364341E+03  0.61394952572E+03 -0.64043265215E+03  0.12866172025E+04  0.89622427708E+03 0.  0.
         23    2    4    4    0    0  0.20656804935E+03  0.95215161118E+02  0.18389664411E+03  0.30706620604E+03  0.93463325744E+02 0.  0.
         23    2    4    4    0    0  0.48535594062E+02  0.51873436461E+03 -0.82432929626E+03  0.97955099646E+03  0.92522003266E+02 0.  0.
          2    1    3    3  502    0 -0.93073733314E+02 -0.22994659805E+03  0.53392683784E+03  0.58874105170E+03  0.00000000000E+00 0.  1.
         -2    1    3    3    0  502 -0.16202991010E+03 -0.38400292767E+03  0.65038932593E+03  0.77247538182E+03  0.00000000000E+00 0. -1.
         13    1    5    5    0    0  0.14233607847E+03  0.18026402918E+02  0.12724286525E+03  0.19176875970E+03  0.00000000000E+00 0. -1.
        -13    1    5    5    0    0  0.64231970875E+02  0.77188758200E+02  0.56653778856E+02  0.11529744635E+03  0.00000000000E+00 0.  1.
          3    1    6    6  503    0  0.51988490794E+02  0.41936941237E+03 -0.59694775923E+03  0.73138234492E+03  0.00000000000E+00 0. -1.
         -3    1    6    6    0  503 -0.34528967321E+01  0.99364952233E+02 -0.22738153703E+03  0.24816865154E+03  0.00000000000E+00 0.  1.
<mgrwt>
<rscale>  0 0.25913729E+04</rscale>
<asrwt>0</asrwt>
<pdfrwt beam="1">  1        1 0.16184232E+00 0.25913729E+04</pdfrwt>
<pdfrwt beam="2">  1       -1 0.24551670E+00 0.25913729E+04</pdfrwt>
<totfact> 0.90664535E-01</totfact>
</mgrwt>
</event>
<event>
12    3  0.4773567E-008  0.1402934E+04  0.7818608E-02  0.8951698E-01
         -2   -1    0    0    0  501 -0.00000000000E+00  0.00000000000E+00  0.33628987523E+03  0.33628987523E+03  0.00000000000E+00 0.  1.
          2   -1    0    0  501    0  0.00000000000E+00 -0.00000000000E+00 -0.14631896790E+04  0.14631896790E+04  0.00000000000E+00 0. -1.
         23    2    1    2    0    0 -0.31830906361E+03 -0.23925671465E+03 -0.23536070081E+03  0.47130743301E+03  0.90396910615E+02 0.  0.
        254    2    1    2    0    0  0.31830906361E+03  0.23925671465E+03 -0.89153910297E+03  0.13281721212E+04  0.90035258426E+03 0.  0.
         23    2    4    4    0    0  0.37988769702E+03  0.22655595253E+03 -0.10455392914E+04  0.11391230207E+04  0.93843403798E+02 0.  0.
         23    2    4    4    0    0 -0.61578633407E+02  0.12700762122E+02  0.15400018840E+03  0.18904910056E+03  0.89834664487E+02 0.  0.
          2    1    3    3  502    0 -0.27540721539E+03 -0.19602123852E+03 -0.15883074934E+03  0.37349788109E+03  0.00000000000E+00 0.  1.
         -2    1    3    3    0  502 -0.42901848218E+02 -0.43235476127E+02 -0.76529951464E+02  0.97809551924E+02  0.00000000000E+00 0. -1.
         13    1    5    5    0    0  0.24631855899E+03  0.99562582101E+02 -0.56149243784E+03  0.62117573843E+03  0.00000000000E+00 0.  1.
        -13    1    5    5    0    0  0.13356913803E+03  0.12699337043E+03 -0.48404685353E+03  0.51794728224E+03  0.00000000000E+00 0. -1.
          4    1    6    6  503    0 -0.18941565967E+02 -0.26327137603E+02  0.11458670200E+03  0.11908825875E+03  0.00000000000E+00 0. -1.
         -4    1    6    6    0  503 -0.42637067440E+02  0.39027899725E+02  0.39413486400E+02  0.69960841812E+02  0.00000000000E+00 0.  1.
<mgrwt>
<rscale>  0 0.14029339E+04</rscale>
<asrwt>0</asrwt>
<pdfrwt beam="1">  1        2 0.22510610E+00 0.14029339E+04</pdfrwt>
<pdfrwt beam="2">  1       -2 0.51736905E-01 0.14029339E+04</pdfrwt>
<totfact> 0.45718332E+01</totfact>
</mgrwt>
</event>
<event>
12    3  0.4773567E-008  0.2063210E+04  0.7818608E-02  0.8577625E-01
         -2   -1    0    0    0  501 -0.00000000000E+00  0.00000000000E+00  0.46968852782E+03  0.46968852782E+03  0.00000000000E+00 0.  1.
          2   -1    0    0  501    0  0.00000000000E+00 -0.00000000000E+00 -0.22657761508E+04  0.22657761508E+04  0.00000000000E+00 0. -1.
         23    2    1    2    0    0  0.47950589770E+03 -0.63386398617E+03 -0.39517100203E+03  0.89229283742E+03  0.91197192887E+02 0.  0.
        254    2    1    2    0    0 -0.47950589770E+03  0.63386398617E+03 -0.14009166209E+04  0.18431718412E+04  0.89610579644E+03 0.  0.
         23    2    4    4    0    0 -0.27570130332E+03 -0.80735964955E+02 -0.62307776433E+02  0.30939916462E+03  0.96519839272E+02 0.  0.
         23    2    4    4    0    0 -0.20380459437E+03  0.71459995112E+03 -0.13386088445E+04  0.15337726766E+04  0.91627408253E+02 0.  0.
          1    1    3    3  502    0  0.10912068670E+02 -0.48605622459E+02 -0.17472540263E+02  0.52790808296E+02  0.00000000000E+00 0. -1.
         -1    1    3    3    0  502  0.46859382903E+03 -0.58525836371E+03 -0.37769846176E+03  0.83950202913E+03  0.00000000000E+00 0.  1.
         13    1    5    5    0    0 -0.12123254751E+03 -0.62044262706E+02  0.12491098226E+02  0.13675835859E+03  0.00000000000E+00 0. -1.
        -13    1    5    5    0    0 -0.15446875582E+03 -0.18691702248E+02 -0.74798874659E+02  0.17264080603E+03  0.00000000000E+00 0.  1.
          2    1    6    6  503    0 -0.20705348196E+03  0.68422910321E+03 -0.12491298253E+04  0.14392240724E+04  0.00000000000E+00 0. -1.
         -2    1    6    6    0  503  0.32488875886E+01  0.30370847914E+02 -0.89479019241E+02  0.94548604210E+02  0.00000000000E+00 0.  1.
<mgrwt>
<rscale>  0 0.20632102E+04</rscale>
<asrwt>0</asrwt>
<pdfrwt beam="1">  1        2 0.34858096E+00 0.20632102E+04</pdfrwt>
<pdfrwt beam="2">  1       -2 0.72259770E-01 0.20632102E+04</pdfrwt>
<totfact> 0.75973249E+00</totfact>
</mgrwt>
</event>
<event>
12    3  0.4773567E-008  0.1563315E+04  0.7818608E-02  0.8843407E-01
          2   -1    0    0  501    0  0.00000000000E+00  0.00000000000E+00  0.75992250494E+03  0.75992250494E+03  0.00000000000E+00 0.  1.
         -2   -1    0    0    0  501 -0.00000000000E+00 -0.00000000000E+00 -0.80401458320E+03  0.80401458320E+03  0.00000000000E+00 0. -1.
         23    2    1    2    0    0 -0.22465077866E+03 -0.22752569255E+03 -0.42938579885E+03  0.54319780453E+03  0.91955301469E+02 0.  0.
        254    2    1    2    0    0  0.22465077866E+03  0.22752569255E+03  0.38529372059E+03  0.10207392836E+04  0.88950633548E+03 0.  0.
         23    2    4    4    0    0 -0.19498184695E+03  0.38871403775E+03  0.38304109106E+02  0.44581417143E+03  0.90368948718E+02 0.  0.
         23    2    4    4    0    0  0.41963262561E+03 -0.16118834519E+03  0.34698961149E+03  0.57492511218E+03  0.89799059222E+02 0.  0.
          1    1    3    3  502    0 -0.98059734418E+02 -0.15834369961E+03 -0.27249595105E+03  0.33006436048E+03  0.00000000000E+00 0. -1.
         -1    1    3    3    0  502 -0.12659104424E+03 -0.69181992938E+02 -0.15688984780E+03  0.21313344404E+03  0.00000000000E+00 0.  1.
         13    1    5    5    0    0 -0.17276791947E+03  0.38095570219E+03  0.25624426959E+02  0.41908544748E+03  0.00000000000E+00 0. -1.
        -13    1    5    5    0    0 -0.22213927481E+02  0.77583355512E+01  0.12679682147E+02  0.26728723950E+02  0.00000000000E+00 0.  1.
          3    1    6    6  503    0  0.31601552633E+02 -0.63826213864E+01  0.59882144409E+02  0.68009317035E+02  0.00000000000E+00 0.  1.
         -3    1    6    6    0  503  0.38803107297E+03 -0.15480572381E+03  0.28710746708E+03  0.50691579515E+03  0.00000000000E+00 0. -1.
<mgrwt>
<rscale>  0 0.15633154E+04</rscale>
<asrwt>0</asrwt>
<pdfrwt beam="1">  1        2 0.11691115E+00 0.15633154E+04</pdfrwt>
<pdfrwt beam="2">  1       -2 0.12369455E+00 0.15633154E+04</pdfrwt>
<totfact> 0.17447912E+01</totfact>
</mgrwt>
</event>
<event>
12    3  0.4773567E-008  0.1600444E+04  0.7818608E-02  0.8820275E-01
          1   -1    0    0  501    0  0.00000000000E+00  0.00000000000E+00  0.28796466588E+04  0.28796466588E+04  0.00000000000E+00 0. -1.
         -1   -1    0    0    0  501 -0.00000000000E+00 -0.00000000000E+00 -0.22237295243E+03  0.22237295243E+03  0.00000000000E+00 0.  1.
         23    2    1    2    0    0 -0.48893496061E+02 -0.46698917343E+03  0.14381506025E+04  0.15157137172E+04  0.92959426781E+02 0.  0.
        254    2    1    2    0    0  0.48893496061E+02  0.46698917343E+03  0.12191231039E+04  0.15863058940E+04  0.89979763556E+03 0.  0.
         23    2    4    4    0    0  0.14698857304E+03  0.68677190389E+03  0.64344532340E+03  0.95630436013E+03  0.85057959229E+02 0.  0.
         23    2    4    4    0    0 -0.98095076977E+02 -0.21978273046E+03  0.57567778049E+03  0.63000153390E+03  0.87005362115E+02 0.  0.
          4    1    3    3  502    0 -0.67125487631E+02 -0.25825569366E+03  0.87827429932E+03  0.91791479955E+03  0.00000000000E+00 0. -1.
         -4    1    3    3    0  502  0.18231991570E+02 -0.20873347977E+03  0.55987630318E+03  0.59779891766E+03  0.00000000000E+00 0.  1.
         13    1    5    5    0    0  0.80444908020E+01  0.85473239299E+02  0.46226470158E+02  0.97505256329E+02  0.00000000000E+00 0. -1.
        -13    1    5    5    0    0  0.13894408224E+03  0.60129866459E+03  0.59721885324E+03  0.85879910380E+03  0.00000000000E+00 0.  1.
          2    1    6    6  503    0 -0.69585645205E+02 -0.10315523384E+03  0.19945644892E+03  0.23508730145E+03  0.00000000000E+00 0.  1.
         -2    1    6    6    0  503 -0.28509431772E+02 -0.11662749662E+03  0.37622133156E+03  0.39491423245E+03  0.00000000000E+00 0. -1.
<mgrwt>
<rscale>  0 0.16004444E+04</rscale>
<asrwt>0</asrwt>
<pdfrwt beam="1">  1        1 0.44302254E+00 0.16004444E+04</pdfrwt>
<pdfrwt beam="2">  1       -1 0.34211226E-01 0.16004444E+04</pdfrwt>
<totfact> 0.56912177E+00</totfact>
</mgrwt>
</event>
<event>
12    3  0.4773567E-008  0.1528000E+04  0.7818608E-02  0.8866044E-01
          1   -1    0    0  501    0  0.00000000000E+00  0.00000000000E+00  0.20824810311E+04  0.20824810311E+04  0.00000000000E+00 0. -1.
         -1   -1    0    0    0  501 -0.00000000000E+00 -0.00000000000E+00 -0.28028878987E+03  0.28028878987E+03  0.00000000000E+00 0.  1.
         23    2    1    2    0    0 -0.17204096398E+03  0.68092256731E+01 -0.11877288460E+03  0.22833567973E+03  0.91573607990E+02 0.  0.
        254    2    1    2    0    0  0.17204096398E+03 -0.68092256731E+01  0.19209651258E+04  0.21344341412E+04  0.91436187026E+03 0.  0.
         23    2    4    4    0    0 -0.29057227589E+03  0.74677398780E+02  0.25674735237E+03  0.40276867338E+03  0.79337506284E+02 0.  0.
         23    2    4    4    0    0  0.46261323987E+03 -0.81486624453E+02  0.16642177734E+04  0.17316654678E+04  0.91615585009E+02 0.  0.
          3    1    3    3  502    0 -0.55657956005E+02  0.83578120599E+01  0.72955976613E+01  0.56752857499E+02  0.00000000000E+00 0. -1.
         -3    1    3    3    0  502 -0.11638300797E+03 -0.15485863868E+01 -0.12606848226E+03  0.17158282223E+03  0.00000000000E+00 0.  1.
         13    1    5    5    0    0 -0.27309681223E+03  0.72265095353E+02  0.20766453939E+03  0.35061185630E+03  0.00000000000E+00 0. -1.
        -13    1    5    5    0    0 -0.17475463658E+02  0.24123034268E+01  0.49082812984E+02  0.52156817084E+02  0.00000000000E+00 0.  1.
          4    1    6    6  503    0  0.38671830725E+03 -0.98084149009E+02  0.14460840033E+04  0.15001101607E+04  0.00000000000E+00 0. -1.
         -4    1    6    6    0  503  0.75894932613E+02  0.16597524556E+02  0.21813377009E+03  0.23155530715E+03  0.00000000000E+00 0.  1.
<mgrwt>
<rscale>  0 0.15280001E+04</rscale>
<asrwt>0</asrwt>
<pdfrwt beam="1">  1        1 0.32038169E+00 0.15280001E+04</pdfrwt>
<pdfrwt beam="2">  1       -1 0.43121354E-01 0.15280001E+04</pdfrwt>
<totfact> 0.13415336E+01</totfact>
</mgrwt>
</event>
<event>
12    3  0.4773567E-008  0.1581283E+04  0.7818608E-02  0.8832130E-01
         -1   -1    0    0    0  501 -0.00000000000E+00  0.00000000000E+00  0.48875680822E+04  0.48875680822E+04  0.00000000000E+00 0.  1.
          1   -1    0    0  501    0  0.00000000000E+00 -0.00000000000E+00 -0.12789877154E+03  0.12789877154E+03  0.00000000000E+00 0. -1.
         23    2    1    2    0    0  0.21835148737E+03 -0.53364314274E+02  0.31964377298E+04  0.32056123949E+04  0.90617570961E+02 0.  0.
        254    2    1    2    0    0 -0.21835148737E+03  0.53364314274E+02  0.15632315809E+04  0.18098544588E+04  0.88394290793E+03 0.  0.
         23    2    4    4    0    0 -0.17512249106E+03 -0.17938389810E+03  0.46940323257E+02  0.27237933251E+03  0.95606678949E+02 0.  0.
         23    2    4    4    0    0 -0.43228996308E+02  0.23274821237E+03  0.15162912576E+04  0.15374751263E+04  0.93005964917E+02 0.  0.
          2    1    3    3  502    0  0.80341446940E+02  0.14138583140E+02  0.15059290150E+04  0.15081368790E+04  0.00000000000E+00 0. -1.
         -2    1    3    3    0  502  0.13801004043E+03 -0.67502897414E+02  0.16905087147E+04  0.16974755159E+04  0.00000000000E+00 0.  1.
         13    1    5    5    0    0 -0.51933735333E+02 -0.47359983251E+02  0.58490338755E+02  0.91439600868E+02  0.00000000000E+00 0.  1.
        -13    1    5    5    0    0 -0.12318875573E+03 -0.13202391485E+03 -0.11550015498E+02  0.18093973164E+03  0.00000000000E+00 0. -1.
          3    1    6    6  503    0 -0.23303671899E+02  0.15640551435E+03  0.12431335004E+04  0.12531506876E+04  0.00000000000E+00 0. -1.
         -3    1    6    6    0  503 -0.19925324409E+02  0.76342698027E+02  0.27315775719E+03  0.28432443864E+03  0.00000000000E+00 0.  1.
<mgrwt>
<rscale>  0 0.15812830E+04</rscale>
<asrwt>0</asrwt>
<pdfrwt beam="1">  1        1 0.19676738E-01 0.15812830E+04</pdfrwt>
<pdfrwt beam="2">  1       -1 0.75193341E+00 0.15812830E+04</pdfrwt>
<totfact> 0.32541174E-02</totfact>
</mgrwt>
</event>
<event>
12    3  0.4773567E-008  0.1299567E+04  0.7818608E-02  0.9029908E-01
         -1   -1    0    0    0  501 -0.00000000000E+00  0.00000000000E+00  0.13638603062E+04  0.13638603062E+04  0.00000000000E+00 0.  1.
          1   -1    0    0  501    0  0.00000000000E+00 -0.00000000000E+00 -0.30957634434E+03  0.30957634434E+03  0.00000000000E+00 0. -1.
         23    2    1    2    0    0  0.11529051783E+03  0.13840923456E+03  0.87739188062E+03  0.90029052549E+03  0.90870778526E+02 0.  0.
        254    2    1    2    0    0 -0.11529051783E+03 -0.13840923456E+03  0.17689208123E+03  0.77314612504E+03  0.73076336974E+03 0.  0.
         23    2    4    4    0    0 -0.97754844524E-01  0.23152631559E+02 -0.26517287246E+03  0.28094435259E+03  0.89872259652E+02 0.  0.
         23    2    4    4    0    0 -0.11519276299E+03 -0.16156186612E+03  0.44206495369E+03  0.49220177245E+03  0.86426571695E+02 0.  0.
          3    1    3    3  502    0  0.79163335730E+02  0.12120747338E+03  0.80176970528E+03  0.81473477011E+03  0.00000000000E+00 0.  1.
         -3    1    3    3    0  502  0.36127182102E+02  0.17201761180E+02  0.75622175338E+02  0.85555755372E+02  0.00000000000E+00 0. -1.
         13    1    5    5    0    0 -0.37160013630E+02  0.16769789549E+02 -0.21158371280E+03  0.21547565983E+03  0.00000000000E+00 0.  1.
        -13    1    5    5    0    0  0.37062258785E+02  0.63828420092E+01 -0.53589159662E+02  0.65468692759E+02  0.00000000000E+00 0. -1.
          1    1    6    6  503    0 -0.76233822873E+01 -0.77231175042E+02  0.19447697869E+03  0.20938974568E+03  0.00000000000E+00 0.  1.
         -1    1    6    6    0  503 -0.10756938070E+03 -0.84330691078E+02  0.24758797501E+03  0.28281202678E+03  0.00000000000E+00 0. -1.
<mgrwt>
<rscale>  0 0.12995674E+04</rscale>
<asrwt>0</asrwt>
<pdfrwt beam="1">  1        1 0.47627131E-01 0.12995674E+04</pdfrwt>
<pdfrwt beam="2">  1       -1 0.20982466E+00 0.12995674E+04</pdfrwt>
<totfact> 0.10660394E+01</totfact>
</mgrwt>
</event>
<event>
12    3  0.4773567E-008  0.1514946E+04  0.7818608E-02  0.8874575E-01
         -2   -1    0    0    0  501 -0.00000000000E+00  0.00000000000E+00  0.36683090074E+03  0.36683090074E+03  0.00000000000E+00 0.  1.
          2   -1    0    0  501    0  0.00000000000E+00 -0.00000000000E+00 -0.15641130155E+04  0.15641130155E+04  0.00000000000E+00 0. -1.
         23    2    1    2    0    0 -0.44472357433E+03 -0.56971394128E+02 -0.61777271659E+03  0.76903521739E+03  0.93526674824E+02 0.  0.
        254    2    1    2    0    0  0.44472357433E+03  0.56971394128E+02 -0.57950939817E+03  0.11619086988E+04  0.90176265423E+03 0.  0.
         23    2    4    4    0    0  0.68810132292E+03  0.15698507740E+03 -0.50629195155E+03  0.87344655286E+03  0.91921680676E+02 0.  0.
         23    2    4    4    0    0 -0.24337774859E+03 -0.10001368327E+03 -0.73217446618E+02  0.28846214598E+03  0.92812444334E+02 0.  0.
          1    1    3    3  502    0 -0.40309505550E+03 -0.75271856873E+02 -0.57759195240E+03  0.70835297675E+03  0.00000000000E+00 0. -1.
         -1    1    3    3    0  502 -0.41628518836E+02  0.18300462745E+02 -0.40180764193E+02  0.60682240633E+02  0.00000000000E+00 0.  1.
         13    1    5    5    0    0  0.35265943552E+03  0.72969244070E+02 -0.20252438364E+03  0.41316983676E+03  0.00000000000E+00 0. -1.
        -13    1    5    5    0    0  0.33544188740E+03  0.84015833333E+02 -0.30376756791E+03  0.46027671610E+03  0.00000000000E+00 0.  1.
          4    1    6    6  503    0 -0.19371025182E+03 -0.70585262894E+02 -0.94679916962E+02  0.22687050860E+03  0.00000000000E+00 0. -1.
         -4    1    6    6    0  503 -0.49667496767E+02 -0.29428420380E+02  0.21462470344E+02  0.61591637375E+02  0.00000000000E+00 0.  1.
<mgrwt>
<rscale>  0 0.15149455E+04</rscale>
<asrwt>0</asrwt>
<pdfrwt beam="1">  1        2 0.24063277E+00 0.15149455E+04</pdfrwt>
<pdfrwt beam="2">  1       -2 0.56435523E-01 0.15149455E+04</pdfrwt>
<totfact> 0.33208298E+01</totfact>
</mgrwt>
</event>
<event>
12    3  0.4773567E-008  0.1833005E+04  0.7818608E-02  0.8688942E-01
         -2   -1    0    0    0  501 -0.00000000000E+00  0.00000000000E+00  0.63356133866E+03  0.63356133866E+03  0.00000000000E+00 0.  1.
          2   -1    0    0  501    0  0.00000000000E+00 -0.00000000000E+00 -0.13258025106E+04  0.13258025106E+04  0.00000000000E+00 0. -1.
         23    2    1    2    0    0 -0.22860644158E+03 -0.91617871617E+02 -0.96644894615E+03  0.10017119396E+04  0.93533442569E+02 0.  0.
        254    2    1    2    0    0  0.22860644158E+03  0.91617871617E+02  0.27420777420E+03  0.95765190967E+03  0.88388491171E+03 0.  0.
         23    2    4    4    0    0  0.18010574268E+02  0.24834089622E+03 -0.25037785344E+03  0.36420067876E+03  0.89193516592E+02 0.  0.
         23    2    4    4    0    0  0.21059586731E+03 -0.15672302460E+03  0.52458562763E+03  0.59345123091E+03  0.89897480405E+02 0.  0.
          1    1    3    3  502    0 -0.23623604722E+03 -0.92238436745E+02 -0.90754724004E+03  0.94231491133E+03  0.00000000000E+00 0. -1.
         -1    1    3    3    0  502  0.76296056407E+01  0.62056512809E+00 -0.58901706117E+02  0.59397028266E+02  0.00000000000E+00 0.  1.
         13    1    5    5    0    0  0.13555227273E+02  0.82718669823E+02 -0.31184691527E+02  0.89434934502E+02  0.00000000000E+00 0.  1.
        -13    1    5    5    0    0  0.44553469956E+01  0.16562222639E+03 -0.21919316191E+03  0.27476574426E+03  0.00000000000E+00 0. -1.
          1    1    6    6  503    0  0.15091799570E+03 -0.11059384599E+03  0.45012205214E+03  0.48745984657E+03  0.00000000000E+00 0. -1.
         -1    1    6    6    0  503  0.59677871611E+02 -0.46129178610E+02  0.74463575496E+02  0.10599138434E+03  0.00000000000E+00 0.  1.
<mgrwt>
<rscale>  0 0.18330054E+04</rscale>
<asrwt>0</asrwt>
<pdfrwt beam="1">  1        2 0.20396962E+00 0.18330054E+04</pdfrwt>
<pdfrwt beam="2">  1       -2 0.97470976E-01 0.18330054E+04</pdfrwt>
<totfact> 0.13196508E+01</totfact>
</mgrwt>
</event>
<event>
12    3  0.4773567E-008  0.1235551E+04  0.7818608E-02  0.9082296E-01
         -2   -1    0    0    0  501 -0.00000000000E+00  0.00000000000E+00  0.21350934594E+03  0.21350934594E+03  0.00000000000E+00 0. -1.
          2   -1    0    0  501    0  0.00000000000E+00 -0.00000000000E+00 -0.17874937241E+04  0.17874937241E+04  0.00000000000E+00 0.  1.
         23    2    1    2    0    0  0.34560505427E+02 -0.18677134625E+03 -0.72805010215E+03  0.75757500434E+03  0.88232486354E+02 0.  0.
        254    2    1    2    0    0 -0.34560505427E+02  0.18677134625E+03 -0.84593427604E+03  0.12434280657E+04  0.89130835907E+03 0.  0.
         23    2    4    4    0    0  0.27979614115E+03  0.35596434004E+03 -0.20766941206E+03  0.50644537886E+03  0.91454059936E+02 0.  0.
         23    2    4    4    0    0 -0.31435664658E+03 -0.16919299380E+03 -0.63826486398E+03  0.73698268687E+03  0.91187026257E+02 0.  0.
          4    1    3    3  502    0 -0.21647658265E+02 -0.12762083362E+02 -0.62551388782E+02  0.67410445175E+02  0.00000000000E+00 0. -1.
         -4    1    3    3    0  502  0.56208163692E+02 -0.17400926288E+03 -0.66549871337E+03  0.69016455917E+03  0.00000000000E+00 0.  1.
         13    1    5    5    0    0  0.81835199884E+01  0.53766492200E+02 -0.36753970427E+02  0.65640384102E+02  0.00000000000E+00 0.  1.
        -13    1    5    5    0    0  0.27161262116E+03  0.30219784784E+03 -0.17091544163E+03  0.44080499476E+03  0.00000000000E+00 0. -1.
          3    1    6    6  503    0 -0.27796426108E+03 -0.11814401648E+03 -0.48453610475E+03  0.57096179896E+03  0.00000000000E+00 0. -1.
         -3    1    6    6    0  503 -0.36392385496E+02 -0.51048977313E+02 -0.15372875923E+03  0.16602088791E+03  0.00000000000E+00 0.  1.
<mgrwt>
<rscale>  0 0.12355511E+04</rscale>
<asrwt>0</asrwt>
<pdfrwt beam="1">  1        2 0.27499903E+00 0.12355511E+04</pdfrwt>
<pdfrwt beam="2">  1       -2 0.32847593E-01 0.12355511E+04</pdfrwt>
<totfact> 0.74634549E+01</totfact>
</mgrwt>
</event>
<event>
12    3  0.4773567E-008  0.1755045E+04  0.7818608E-02  0.8730578E-01
         -2   -1    0    0    0  501 -0.00000000000E+00  0.00000000000E+00  0.60692017678E+03  0.60692017678E+03  0.00000000000E+00 0.  1.
          2   -1    0    0  501    0  0.00000000000E+00 -0.00000000000E+00 -0.12687765405E+04  0.12687765405E+04  0.00000000000E+00 0. -1.
         23    2    1    2    0    0  0.13045189503E+03 -0.60343643899E+03 -0.62934183581E+02  0.62711817519E+03  0.90350768552E+02 0.  0.
        254    2    1    2    0    0 -0.13045189503E+03  0.60343643899E+03 -0.59892218015E+03  0.12485785421E+04  0.90503445520E+03 0.  0.
         23    2    4    4    0    0 -0.32031988361E+03 -0.43858529290E+02  0.12195538408E+02  0.33377034820E+03  0.82009241880E+02 0.  0.
         23    2    4    4    0    0  0.18986798858E+03  0.64729496828E+03 -0.61111771856E+03  0.91480819390E+03  0.91479706164E+02 0.  0.
          3    1    3    3  502    0  0.17157650681E+02 -0.24240838345E+03  0.29787218121E+01  0.24303308854E+03  0.00000000000E+00 0. -1.
         -3    1    3    3    0  502  0.11329424435E+03 -0.36102805554E+03 -0.65912905393E+02  0.38408508665E+03  0.00000000000E+00 0.  1.
         13    1    5    5    0    0 -0.23953233853E+03 -0.25323265573E+02  0.44256311934E+02  0.24489922443E+03  0.00000000000E+00 0. -1.
        -13    1    5    5    0    0 -0.80787545082E+02 -0.18535263717E+02 -0.32060773526E+02  0.88871123772E+02  0.00000000000E+00 0.  1.
          1    1    6    6  503    0  0.12045014718E+03  0.49759677688E+03 -0.50175931960E+03  0.71684949963E+03  0.00000000000E+00 0. -1.
         -1    1    6    6    0  503  0.69417841400E+02  0.14969819140E+03 -0.10935839896E+03  0.19795869427E+03  0.00000000000E+00 0.  1.
<mgrwt>
<rscale>  0 0.17550454E+04</rscale>
<asrwt>0</asrwt>
<pdfrwt beam="1">  1        2 0.19519639E+00 0.17550454E+04</pdfrwt>
<pdfrwt beam="2">  1       -2 0.93372336E-01 0.17550454E+04</pdfrwt>
<totfact> 0.15854820E+01</totfact>
</mgrwt>
</event>
<event>
12    3  0.4773567E-008  0.1845351E+04  0.7818608E-02  0.8682547E-01
         -2   -1    0    0    0  501 -0.00000000000E+00  0.00000000000E+00  0.68866296394E+03  0.68866296394E+03  0.00000000000E+00 0. -1.
          2   -1    0    0  501    0  0.00000000000E+00 -0.00000000000E+00 -0.12362067410E+04  0.12362067410E+04  0.00000000000E+00 0.  1.
         23    2    1    2    0    0  0.67130344638E+03 -0.19643050282E+03 -0.21630708696E+03  0.73815819444E+03  0.94103690666E+02 0.  0.
        254    2    1    2    0    0 -0.67130344638E+03  0.19643050282E+03 -0.33123669011E+03  0.11867115105E+04  0.89962948192E+03 0.  0.
         23    2    4    4    0    0 -0.14430266177E+03 -0.38323239708E+02  0.28661125934E+03  0.33575087047E+03  0.91053303877E+02 0.  0.
         23    2    4    4    0    0 -0.52700078461E+03  0.23475374253E+03 -0.61784794945E+03  0.85096064003E+03  0.97768991162E+02 0.  0.
          1    1    3    3  502    0  0.61518623836E+03 -0.18304879552E+03 -0.16944220903E+03  0.66383102639E+03  0.00000000000E+00 0. -1.
         -1    1    3    3    0  502  0.56117208022E+02 -0.13381707302E+02 -0.46864877933E+02  0.74327168049E+02  0.00000000000E+00 0.  1.
         13    1    5    5    0    0 -0.14305497023E+03 -0.77388631594E+01  0.24883619494E+03  0.28713074796E+03  0.00000000000E+00 0. -1.
        -13    1    5    5    0    0 -0.12476915424E+01 -0.30584376549E+02  0.37775064399E+02  0.48620122515E+02  0.00000000000E+00 0.  1.
          4    1    6    6  503    0 -0.51039133386E+03  0.20784206890E+03 -0.56417715243E+03  0.78866564437E+03  0.00000000000E+00 0. -1.
         -4    1    6    6    0  503 -0.16609450746E+02  0.26911673627E+02 -0.53670797020E+02  0.62294995660E+02  0.00000000000E+00 0.  1.
<mgrwt>
<rscale>  0 0.18453507E+04</rscale>
<asrwt>0</asrwt>
<pdfrwt beam="1">  1        2 0.19018565E+00 0.18453507E+04</pdfrwt>
<pdfrwt beam="2">  1       -2 0.10594815E+00 0.18453507E+04</pdfrwt>
<totfact> 0.12197996E+01</totfact>
</mgrwt>
</event>
<event>
12    3  0.4773567E-008  0.1882156E+04  0.7818608E-02  0.8663790E-01
         -2   -1    0    0    0  501 -0.00000000000E+00  0.00000000000E+00  0.31029260391E+03  0.31029260391E+03  0.00000000000E+00 0.  1.
          2   -1    0    0  501    0  0.00000000000E+00 -0.00000000000E+00 -0.28541689845E+04  0.28541689845E+04  0.00000000000E+00 0. -1.
         23    2    1    2    0    0 -0.26670699784E+03 -0.10988887997E+03 -0.20670097671E+04  0.20890982627E+04  0.92703750114E+02 0.  0.
        254    2    1    2    0    0  0.26670699784E+03  0.10988887997E+03 -0.47686661346E+03  0.10753633257E+04  0.91967185807E+03 0.  0.
         23    2    4    4    0    0 -0.24306314029E+03  0.24292636955E+03  0.87244948651E+01  0.35311203978E+03  0.80740848635E+02 0.  0.
         23    2    4    4    0    0  0.50977013814E+03 -0.13303748958E+03 -0.48559110832E+03  0.72225128589E+03  0.91014439068E+02 0.  0.
          2    1    3    3  502    0 -0.23360682195E+03 -0.12510952795E+03 -0.17397088621E+04  0.17597759705E+04  0.00000000000E+00 0. -1.
         -2    1    3    3    0  502 -0.33100175893E+02  0.15220647982E+02 -0.32730090498E+03  0.32932229225E+03  0.00000000000E+00 0.  1.
         13    1    5    5    0    0  0.21742646359E+01 -0.76577527888E+00 -0.66550783217E+01  0.70430040432E+01  0.00000000000E+00 0. -1.
        -13    1    5    5    0    0 -0.24523740493E+03  0.24369214483E+03  0.15379573187E+02  0.34606903574E+03  0.00000000000E+00 0.  1.
          3    1    6    6  503    0  0.90404314047E+02  0.10692591851E+02 -0.92017867659E+02  0.12943940469E+03  0.00000000000E+00 0. -1.
         -3    1    6    6    0  503  0.41936582409E+03 -0.14373008143E+03 -0.39357324066E+03  0.59281188119E+03  0.00000000000E+00 0.  1.
<mgrwt>
<rscale>  0 0.18821557E+04</rscale>
<asrwt>0</asrwt>
<pdfrwt beam="1">  1        2 0.43910290E+00 0.18821557E+04</pdfrwt>
<pdfrwt beam="2">  1       -2 0.47737326E-01 0.18821557E+04</pdfrwt>
<totfact> 0.83789283E+00</totfact>
</mgrwt>
</event>
<event>
12    3  0.4773567E-008  0.1424912E+04  0.7818608E-02  0.8935981E-01
         -2   -1    0    0    0  501 -0.00000000000E+00  0.00000000000E+00  0.49820693814E+03  0.49820693814E+03  0.00000000000E+00 0.  1.
          2   -1    0    0  501    0  0.00000000000E+00 -0.00000000000E+00 -0.10188404975E+04  0.10188404975E+04  0.00000000000E+00 0. -1.
         23    2    1    2    0    0 -0.22710779260E+03 -0.30735524694E+03 -0.72248362872E+02  0.39908024884E+03  0.89442840907E+02 0.  0.
        254    2    1    2    0    0  0.22710779260E+03  0.30735524694E+03 -0.44838519652E+03  0.11179671868E+04  0.95013480574E+03 0.  0.
         23    2    4    4    0    0  0.58755929756E+03  0.23535506767E+03 -0.21905953871E+03  0.67586295046E+03  0.90474915155E+02 0.  0.
         23    2    4    4    0    0 -0.36045150496E+03  0.72000179272E+02 -0.22932565781E+03  0.44210423637E+03  0.88071478052E+02 0.  0.
          4    1    3    3  502    0 -0.19758018556E+03 -0.26063893730E+03 -0.27956766089E+02  0.32825625072E+03  0.00000000000E+00 0.  1.
         -4    1    3    3    0  502 -0.29527607043E+02 -0.46716309636E+02 -0.44291596783E+02  0.70823998117E+02  0.00000000000E+00 0. -1.
         13    1    5    5    0    0  0.22565610878E+03  0.73863416847E+02 -0.12593932387E+03  0.26876978452E+03  0.00000000000E+00 0. -1.
        -13    1    5    5    0    0  0.36190318878E+03  0.16149165082E+03 -0.93120214844E+02  0.40709316593E+03  0.00000000000E+00 0.  1.
          4    1    6    6  503    0 -0.28529684057E+03  0.71835397676E+02 -0.14134473680E+03  0.32639385138E+03  0.00000000000E+00 0. -1.
         -4    1    6    6    0  503 -0.75154664383E+02  0.16478159561E+00 -0.87980921016E+02  0.11571038499E+03  0.00000000000E+00 0.  1.
<mgrwt>
<rscale>  0 0.14249118E+04</rscale>
<asrwt>0</asrwt>
<pdfrwt beam="1">  1        2 0.15674469E+00 0.14249118E+04</pdfrwt>
<pdfrwt beam="2">  1       -2 0.76647222E-01 0.14249118E+04</pdfrwt>
<totfact> 0.36221054E+01</totfact>
</mgrwt>
</event>
<event>
12    3  0.4773567E-008  0.1460770E+04  0.7818608E-02  0.8910968E-01
          1   -1    0    0  501    0  0.00000000000E+00  0.00000000000E+00  0.46799179421E+03  0.46799179421E+03  0.00000000000E+00 0. -1.
         -1   -1    0    0    0  501 -0.00000000000E+00 -0.00000000000E+00 -0.11398969445E+04  0.11398969445E+04  0.00000000000E+00 0.  1.
         23    2    1    2    0    0 -0.30952648589E+03  0.96412373331E+01  0.13383309167E+03  0.34985312652E+03  0.92662369830E+02 0.  0.
        254    2    1    2    0    0  0.30952648589E+03 -0.96412373331E+01 -0.80573824192E+03  0.12580356121E+04  0.91517205378E+03 0.  0.
         23    2    4    4    0    0 -0.25441712096E+03  0.19789285079E+03 -0.42331940731E+03  0.53991565628E+03  0.91760249887E+02 0.  0.
         23    2    4    4    0    0  0.56394360685E+03 -0.20753408812E+03 -0.38241883461E+03  0.71811995587E+03  0.91374594457E+02 0.  0.
          4    1    3    3  502    0 -0.25928864265E+03 -0.17462033583E+02  0.13481143925E+03  0.29276209962E+03  0.00000000000E+00 0. -1.
         -4    1    3    3    0  502 -0.50237843242E+02  0.27103270916E+02 -0.97834757527E+00  0.57091026895E+02  0.00000000000E+00 0.  1.
         13    1    5    5    0    0 -0.82603779868E+02  0.35612307287E+02 -0.66246380477E+02  0.11171483252E+03  0.00000000000E+00 0. -1.
        -13    1    5    5    0    0 -0.17181334110E+03  0.16228054350E+03 -0.35707302683E+03  0.42820082376E+03  0.00000000000E+00 0.  1.
          1    1    6    6  503    0  0.36912076816E+03 -0.12807742228E+03 -0.29812680084E+03  0.49146063623E+03  0.00000000000E+00 0. -1.
         -1    1    6    6    0  503  0.19482283869E+03 -0.79456665842E+02 -0.84292033773E+02  0.22665931964E+03  0.00000000000E+00 0.  1.
<mgrwt>
<rscale>  0 0.14607702E+04</rscale>
<asrwt>0</asrwt>
<pdfrwt beam="1">  1        1 0.71998738E-01 0.14607702E+04</pdfrwt>
<pdfrwt beam="2">  1       -1 0.17536876E+00 0.14607702E+04</pdfrwt>
<totfact> 0.10587782E+01</totfact>
</mgrwt>
</event>
<event>
12    3  0.4773567E-008  0.2315611E+04  0.7818608E-02  0.8471791E-01
          2   -1    0    0  501    0  0.00000000000E+00  0.00000000000E+00  0.26581991117E+04  0.26581991117E+04  0.00000000000E+00 0. -1.
         -2   -1    0    0    0  501 -0.00000000000E+00 -0.00000000000E+00 -0.50429393626E+03  0.50429393626E+03  0.00000000000E+00 0.  1.
         23    2    1    2    0    0  0.17013592683E+03 -0.75929308207E+03  0.10188967043E+03  0.78995393724E+03  0.90407410963E+02 0.  0.
        254    2    1    2    0    0 -0.17013592683E+03  0.75929308207E+03  0.20520155050E+04  0.23725391107E+04  0.90149985078E+03 0.  0.
         23    2    4    4    0    0 -0.74013309845E+02  0.20497038282E+03  0.16694765585E+04  0.16861155583E+04  0.91339306594E+02 0.  0.
         23    2    4    4    0    0 -0.96122616984E+02  0.55432269925E+03  0.38253894653E+03  0.68642355236E+03  0.91258069375E+02 0.  0.
          2    1    3    3  502    0  0.19254722967E+02 -0.21050081500E+02 -0.48178353918E+01  0.28932020766E+02  0.00000000000E+00 0. -1.
         -2    1    3    3    0  502  0.15088120386E+03 -0.73824300057E+03  0.10670750582E+03  0.76102191648E+03  0.00000000000E+00 0.  1.
         13    1    5    5    0    0 -0.35035057157E+02  0.20670772549E+02  0.49056631418E+03  0.49224998190E+03  0.00000000000E+00 0. -1.
        -13    1    5    5    0    0 -0.38978252688E+02  0.18429961027E+03  0.11789102443E+04  0.11938655764E+04  0.00000000000E+00 0.  1.
          4    1    6    6  503    0 -0.42194683823E+02  0.12271967874E+03  0.12892345722E+03  0.18292558245E+03  0.00000000000E+00 0. -1.
         -4    1    6    6    0  503 -0.53927933161E+02  0.43160302051E+03  0.25361548931E+03  0.50349796991E+03  0.00000000000E+00 0.  1.
<mgrwt>
<rscale>  0 0.23156111E+04</rscale>
<asrwt>0</asrwt>
<pdfrwt beam="1">  1        2 0.40895370E+00 0.23156111E+04</pdfrwt>
<pdfrwt beam="2">  1       -2 0.77583684E-01 0.23156111E+04</pdfrwt>
<totfact> 0.37704745E+00</totfact>
</mgrwt>
</event>
<event>
12    3  0.4773567E-008  0.4177861E+04  0.7818608E-02  0.7969597E-01
         -1   -1    0    0    0  501 -0.00000000000E+00  0.00000000000E+00  0.14383947412E+04  0.14383947412E+04  0.00000000000E+00 0.  1.
          1   -1    0    0  501    0  0.00000000000E+00 -0.00000000000E+00 -0.30336807415E+04  0.30336807415E+04  0.00000000000E+00 0. -1.
         23    2    1    2    0    0 -0.36136012735E+03 -0.19135491716E+04 -0.31269316430E+03  0.19745489032E+04  0.93887071850E+02 0.  0.
        254    2    1    2    0    0  0.36136012735E+03  0.19135491716E+04 -0.12825928361E+04  0.24975265795E+04  0.89461894603E+03 0.  0.
         23    2    4    4    0    0 -0.81415114017E+02  0.15078535762E+04 -0.10743939599E+04  0.18555860402E+04  0.92878110572E+02 0.  0.
         23    2    4    4    0    0  0.44277524137E+03  0.40569559541E+03 -0.20819887617E+03  0.64194053936E+03  0.90011407800E+02 0.  0.
          2    1    3    3  502    0 -0.33385381212E+03 -0.17700013753E+04 -0.26379023393E+03  0.18204253690E+04  0.00000000000E+00 0.  1.
         -2    1    3    3    0  502 -0.27506315234E+02 -0.14354779625E+03 -0.48902930369E+02  0.15412353417E+03  0.00000000000E+00 0. -1.
         13    1    5    5    0    0 -0.94080868347E+02  0.13412923812E+04 -0.93106689016E+03  0.16354821967E+04  0.00000000000E+00 0. -1.
        -13    1    5    5    0    0  0.12665754329E+02  0.16656119493E+03 -0.14332706973E+03  0.22010384346E+03  0.00000000000E+00 0.  1.
          1    1    6    6  503    0  0.38769568152E+03  0.37541814263E+03 -0.20992470206E+03  0.57906398940E+03  0.00000000000E+00 0. -1.
         -1    1    6    6    0  503  0.55079559842E+02  0.30277452783E+02  0.17258258985E+01  0.62876549957E+02  0.00000000000E+00 0.  1.
<mgrwt>
<rscale>  0 0.41778609E+04</rscale>
<asrwt>0</asrwt>
<pdfrwt beam="1">  1        1 0.46672011E+00 0.41778609E+04</pdfrwt>
<pdfrwt beam="2">  1       -1 0.22129150E+00 0.41778609E+04</pdfrwt>
<totfact> 0.46974661E-02</totfact>
</mgrwt>
</event>
<event>
12    3  0.4773567E-008  0.1654996E+04  0.7818608E-02  0.8787457E-01
         -2   -1    0    0    0  501 -0.00000000000E+00  0.00000000000E+00  0.77812112225E+03  0.77812112225E+03  0.00000000000E+00 0.  1.
          2   -1    0    0  501    0  0.00000000000E+00 -0.00000000000E+00 -0.88000779513E+03  0.88000779513E+03  0.00000000000E+00 0. -1.
         23    2    1    2    0    0 -0.34050006567E+03  0.21391764284E+03 -0.44884850950E+03  0.60976450148E+03  0.92987688146E+02 0.  0.
        254    2    1    2    0    0  0.34050006567E+03 -0.21391764284E+03  0.34696183661E+03  0.10483644159E+04  0.90387188242E+03 0.  0.
         23    2    4    4    0    0 -0.27566032636E+03  0.20171535312E+01  0.24774665139E+03  0.38157473352E+03  0.90709368584E+02 0.  0.
         23    2    4    4    0    0  0.61616039203E+03 -0.21593479637E+03  0.99215185221E+02  0.66678968238E+03  0.92105171199E+02 0.  0.
          2    1    3    3  502    0 -0.33532416762E+03  0.22259729518E+03 -0.43520594327E+03  0.59278669542E+03  0.00000000000E+00 0. -1.
         -2    1    3    3    0  502 -0.51758980511E+01 -0.86796523364E+01 -0.13642566230E+02  0.16977806062E+02  0.00000000000E+00 0.  1.
         13    1    5    5    0    0 -0.13663703245E+03  0.36179563401E+02  0.16075211551E+03  0.21405579199E+03  0.00000000000E+00 0. -1.
        -13    1    5    5    0    0 -0.13902329391E+03 -0.34162409870E+02  0.86994535884E+02  0.16751894153E+03  0.00000000000E+00 0.  1.
          4    1    6    6  503    0  0.32744254037E+03 -0.15521226586E+03  0.29064843495E+02  0.36353023237E+03  0.00000000000E+00 0. -1.
         -4    1    6    6    0  503  0.28871785166E+03 -0.60722530512E+02  0.70150341726E+02  0.30325945001E+03  0.00000000000E+00 0.  1.
<mgrwt>
<rscale>  0 0.16549957E+04</rscale>
<asrwt>0</asrwt>
<pdfrwt beam="1">  1        2 0.13538581E+00 0.16549957E+04</pdfrwt>
<pdfrwt beam="2">  1       -2 0.11971094E+00 0.16549957E+04</pdfrwt>
<totfact> 0.15433568E+01</totfact>
</mgrwt>
</event>
<event>
12    3  0.4773567E-008  0.1607139E+04  0.7818608E-02  0.8816174E-01
          1   -1    0    0  501    0  0.00000000000E+00  0.00000000000E+00  0.47589718463E+03  0.47589718463E+03  0.00000000000E+00 0. -1.
         -1   -1    0    0    0  501 -0.00000000000E+00 -0.00000000000E+00 -0.13568562693E+04  0.13568562693E+04  0.00000000000E+00 0.  1.
         23    2    1    2    0    0  0.36144900667E+03 -0.24577537352E+03  0.73056747738E+02  0.45223661565E+03  0.90165123455E+02 0.  0.
        254    2    1    2    0    0 -0.36144900667E+03  0.24577537352E+03 -0.95401583239E+03  0.13805168383E+04  0.89701149023E+03 0.  0.
         23    2    4    4    0    0  0.10742724046E+03 -0.50764453866E+02  0.10563837139E+03  0.18120627213E+03  0.86940242583E+02 0.  0.
         23    2    4    4    0    0 -0.46887624713E+03  0.29653982739E+03 -0.10596542038E+04  0.11993105661E+04  0.87738236193E+02 0.  0.
          3    1    3    3  502    0  0.20222915479E+03 -0.16059888173E+03  0.21723749941E+01  0.25825055871E+03  0.00000000000E+00 0. -1.
         -3    1    3    3    0  502  0.15921985188E+03 -0.85176491792E+02  0.70884372744E+02  0.19398605694E+03  0.00000000000E+00 0.  1.
         13    1    5    5    0    0  0.11016160785E+03 -0.14902938371E+02  0.82619029258E+02  0.13850480645E+03  0.00000000000E+00 0. -1.
        -13    1    5    5    0    0 -0.27343673876E+01 -0.35861515496E+02  0.23019342130E+02  0.42701465675E+02  0.00000000000E+00 0.  1.
          3    1    6    6  503    0 -0.34218010193E+03  0.23649817190E+03 -0.71434823692E+03  0.82662688745E+03  0.00000000000E+00 0. -1.
         -3    1    6    6    0  503 -0.12669614520E+03  0.60041655484E+02 -0.34530596687E+03  0.37268367868E+03  0.00000000000E+00 0.  1.
<mgrwt>
<rscale>  0 0.16071392E+04</rscale>
<asrwt>0</asrwt>
<pdfrwt beam="1">  1        1 0.73214951E-01 0.16071392E+04</pdfrwt>
<pdfrwt beam="2">  1       -1 0.20874712E+00 0.16071392E+04</pdfrwt>
<totfact> 0.59637510E+00</totfact>
</mgrwt>
</event>
<event>
12    3  0.4773567E-008  0.1472517E+04  0.7818608E-02  0.8902937E-01
          1   -1    0    0  501    0  0.00000000000E+00  0.00000000000E+00  0.93621219143E+03  0.93621219143E+03  0.00000000000E+00 0. -1.
         -1   -1    0    0    0  501 -0.00000000000E+00 -0.00000000000E+00 -0.57901038654E+03  0.57901038654E+03  0.00000000000E+00 0.  1.
         23    2    1    2    0    0 -0.19201308062E+03 -0.41054309779E+03  0.10929100173E+03  0.47517854951E+03  0.91844828823E+02 0.  0.
        254    2    1    2    0    0  0.19201308062E+03  0.41054309779E+03  0.24791080316E+03  0.10400440285E+04  0.90267223096E+03 0.  0.
         23    2    4    4    0    0 -0.50899560026E+02 -0.14214978197E+03 -0.21222434261E+03  0.27600607154E+03  0.91339225995E+02 0.  0.
         23    2    4    4    0    0  0.24291264065E+03  0.55269287976E+03  0.46013514577E+03  0.76403795692E+03  0.86911891679E+02 0.  0.
          3    1    3    3  502    0 -0.12049092414E+03 -0.29517273426E+03  0.35805952161E+02  0.32082249307E+03  0.00000000000E+00 0. -1.
         -3    1    3    3    0  502 -0.71522156481E+02 -0.11537036353E+03  0.73485049567E+02  0.15435605644E+03  0.00000000000E+00 0.  1.
         13    1    5    5    0    0 -0.15852955091E+01 -0.81926544065E+02 -0.49784676213E+02  0.95880059292E+02  0.00000000000E+00 0. -1.
        -13    1    5    5    0    0 -0.49314264517E+02 -0.60223237906E+02 -0.16243966640E+03  0.18012601225E+03  0.00000000000E+00 0.  1.
          3    1    6    6  503    0  0.70393672743E+02  0.79025761709E+02  0.80915023206E+02  0.13322004788E+03  0.00000000000E+00 0. -1.
         -3    1    6    6    0  503  0.17251896790E+03  0.47366711805E+03  0.37922012257E+03  0.63081790904E+03  0.00000000000E+00 0.  1.
<mgrwt>
<rscale>  0 0.14725170E+04</rscale>
<asrwt>0</asrwt>
<pdfrwt beam="1">  1        1 0.14403264E+00 0.14725170E+04</pdfrwt>
<pdfrwt beam="2">  1       -1 0.89078521E-01 0.14725170E+04</pdfrwt>
<totfact> 0.20375515E+01</totfact>
</mgrwt>
</event>
<event>
12    3  0.4773567E-008  0.1373591E+04  0.7818608E-02  0.8973160E-01
         -2   -1    0    0    0  501 -0.00000000000E+00  0.00000000000E+00  0.98939931620E+03  0.98939931620E+03  0.00000000000E+00 0.  1.
          2   -1    0    0  501    0  0.00000000000E+00 -0.00000000000E+00 -0.47674160959E+03  0.47674160959E+03  0.00000000000E+00 0. -1.
         23    2    1    2    0    0 -0.21411217797E+03  0.26793903056E+03  0.35567006800E+03  0.49972154236E+03  0.74733351192E+02 0.  0.
        254    2    1    2    0    0  0.21411217797E+03 -0.26793903056E+03  0.15698763861E+03  0.96641938343E+03  0.88976736125E+03 0.  0.
         23    2    4    4    0    0  0.45267225770E+03  0.12705690290E+03  0.12734477982E+03  0.49525927840E+03  0.89495421272E+02 0.  0.
         23    2    4    4    0    0 -0.23856007973E+03 -0.39499593346E+03  0.29642858791E+02  0.47116010503E+03  0.90445820262E+02 0.  0.
          3    1    3    3  502    0 -0.25927740679E+02  0.31219024059E+01  0.24490450736E+02  0.35801902025E+02  0.00000000000E+00 0. -1.
         -3    1    3    3    0  502 -0.18818443729E+03  0.26481712816E+03  0.33117961726E+03  0.46391964034E+03  0.00000000000E+00 0.  1.
         13    1    5    5    0    0  0.21868379945E+03  0.10767974431E+03  0.60916407304E+02  0.25125353760E+03  0.00000000000E+00 0. -1.
        -13    1    5    5    0    0  0.23398845825E+03  0.19377158589E+02  0.66428372514E+02  0.24400574080E+03  0.00000000000E+00 0.  1.
          4    1    6    6  503    0 -0.10381094137E+03 -0.15532160426E+03 -0.31580322679E+02  0.18946986325E+03  0.00000000000E+00 0.  1.
         -4    1    6    6    0  503 -0.13474913836E+03 -0.23967432920E+03  0.61223181470E+02  0.28169024178E+03  0.00000000000E+00 0. -1.
<mgrwt>
<rscale>  0 0.13735907E+04</rscale>
<asrwt>0</asrwt>
<pdfrwt beam="1">  1        2 0.73344863E-01 0.13735907E+04</pdfrwt>
<pdfrwt beam="2">  1       -2 0.15221528E+00 0.13735907E+04</pdfrwt>
<totfact> 0.18269482E+01</totfact>
</mgrwt>
</event>
<event>
12    3  0.4773567E-008  0.1077991E+04  0.7818608E-02  0.9226912E-01
          2   -1    0    0  501    0  0.00000000000E+00  0.00000000000E+00  0.21607162607E+04  0.21607162607E+04  0.00000000000E+00 0. -1.
         -2   -1    0    0    0  501 -0.00000000000E+00 -0.00000000000E+00 -0.13445372531E+03  0.13445372531E+03  0.00000000000E+00 0.  1.
         23    2    1    2    0    0  0.34051773742E+02 -0.12529515677E+03  0.20582929094E+03  0.26035556707E+03  0.92525265166E+02 0.  0.
        254    2    1    2    0    0 -0.34051773742E+02  0.12529515677E+03  0.18204332444E+04  0.20348144189E+04  0.89979671172E+03 0.  0.
         23    2    4    4    0    0  0.24973301620E+03 -0.29313777169E+03  0.80131118636E+03  0.89351739447E+03  0.89316203756E+02 0.  0.
         23    2    4    4    0    0 -0.28378478994E+03  0.41843292846E+03  0.10191220581E+04  0.11412970245E+04  0.91264484759E+02 0.  0.
          1    1    3    3  502    0  0.10147171417E+02 -0.66273285951E+00 -0.71525316354E+01  0.12432337327E+02  0.00000000000E+00 0. -1.
         -1    1    3    3    0  502  0.23904602324E+02 -0.12463242391E+03  0.21298182257E+03  0.24792322975E+03  0.00000000000E+00 0.  1.
         13    1    5    5    0    0  0.38580324868E+02 -0.92022966622E+02  0.26310748143E+03  0.28139334504E+03  0.00000000000E+00 0.  1.
        -13    1    5    5    0    0  0.21115269133E+03 -0.20111480506E+03  0.53820370494E+03  0.61212404942E+03  0.00000000000E+00 0. -1.
          2    1    6    6  503    0 -0.14760050093E+03  0.13942282651E+03  0.38567169725E+03  0.43585237236E+03  0.00000000000E+00 0. -1.
         -2    1    6    6    0  503 -0.13618428901E+03  0.27901010195E+03  0.63345036084E+03  0.70544465212E+03  0.00000000000E+00 0.  1.
<mgrwt>
<rscale>  0 0.10779914E+04</rscale>
<asrwt>0</asrwt>
<pdfrwt beam="1">  1        2 0.33241786E+00 0.10779914E+04</pdfrwt>
<pdfrwt beam="2">  1       -2 0.20685190E-01 0.10779914E+04</pdfrwt>
<totfact> 0.10926315E+02</totfact>
</mgrwt>
</event>
<event>
12    3  0.4773567E-008  0.2636540E+04  0.7818608E-02  0.8355894E-01
          1   -1    0    0  501    0  0.00000000000E+00  0.00000000000E+00  0.21579729070E+04  0.21579729070E+04  0.00000000000E+00 0. -1.
         -1   -1    0    0    0  501 -0.00000000000E+00 -0.00000000000E+00 -0.80530940475E+03  0.80530940475E+03  0.00000000000E+00 0.  1.
         23    2    1    2    0    0  0.78559153789E+03  0.46956528434E+03  0.14083642421E+04  0.16821703915E+04  0.92529816084E+02 0.  0.
        254    2    1    2    0    0 -0.78559153789E+03 -0.46956528434E+03 -0.55700739932E+02  0.12811119202E+04  0.89470640937E+03 0.  0.
         23    2    4    4    0    0 -0.72000750125E+03  0.63663567888E+02 -0.94385594940E+02  0.73467675184E+03  0.91528342209E+02 0.  0.
         23    2    4    4    0    0 -0.65584036642E+02 -0.53322885223E+03  0.38684855008E+02  0.54643516836E+03  0.91981522581E+02 0.  0.
          3    1    3    3  502    0  0.16544781234E+03  0.13247240780E+03  0.37497820080E+03  0.43073259514E+03  0.00000000000E+00 0. -1.
         -3    1    3    3    0  502  0.62014372555E+03  0.33709287654E+03  0.10333860413E+04  0.12514377964E+04  0.00000000000E+00 0.  1.
         13    1    5    5    0    0 -0.13307351784E+03 -0.13339359036E+02 -0.43017896911E+02  0.14048857286E+03  0.00000000000E+00 0. -1.
        -13    1    5    5    0    0 -0.58693398341E+03  0.77002926924E+02 -0.51367698029E+02  0.59418817898E+03  0.00000000000E+00 0.  1.
          2    1    6    6  503    0  0.22322057697E+02 -0.14176693139E+03  0.18705576774E+02  0.14472745316E+03  0.00000000000E+00 0. -1.
         -2    1    6    6    0  503 -0.87906094338E+02 -0.39146192084E+03  0.19979278234E+02  0.40170771519E+03  0.00000000000E+00 0.  1.
<mgrwt>
<rscale>  0 0.26365401E+04</rscale>
<asrwt>0</asrwt>
<pdfrwt beam="1">  1        1 0.33199583E+00 0.26365401E+04</pdfrwt>
<pdfrwt beam="2">  1       -1 0.12389376E+00 0.26365401E+04</pdfrwt>
<totfact> 0.11686635E+00</totfact>
</mgrwt>
</event>
<event>
12    3  0.4773567E-008  0.2254156E+04  0.7818608E-02  0.8496219E-01
         -2   -1    0    0    0  501 -0.00000000000E+00  0.00000000000E+00  0.72952548600E+03  0.72952548600E+03  0.00000000000E+00 0.  1.
          2   -1    0    0  501    0  0.00000000000E+00 -0.00000000000E+00 -0.17412748874E+04  0.17412748874E+04  0.00000000000E+00 0. -1.
         23    2    1    2    0    0 -0.98523484800E+02 -0.83862011762E+03  0.39427368503E+02  0.85016449251E+03  0.90744521548E+02 0.  0.
        254    2    1    2    0    0  0.98523484800E+02  0.83862011762E+03 -0.10511767699E+04  0.16206358808E+04  0.89916487812E+03 0.  0.
         23    2    4    4    0    0  0.46775331906E+03  0.26901992877E+03 -0.42481279529E+03  0.69246382592E+03  0.88743166440E+02 0.  0.
         23    2    4    4    0    0 -0.36922983426E+03  0.56960018885E+03 -0.62636397457E+03  0.92817205493E+03  0.91632359268E+02 0.  0.
          3    1    3    3  502    0  0.16554788135E+02 -0.63052591288E+02  0.26101348074E+01  0.65241881350E+02  0.00000000000E+00 0. -1.
         -3    1    3    3    0  502 -0.11507827293E+03 -0.77556752633E+03  0.36817233696E+02  0.78492261116E+03  0.00000000000E+00 0.  1.
         13    1    5    5    0    0  0.39927804714E+03  0.23346735268E+03 -0.32049541212E+03  0.56271420179E+03  0.00000000000E+00 0. -1.
        -13    1    5    5    0    0  0.68475271917E+02  0.35552576090E+02 -0.10431738317E+03  0.12974962413E+03  0.00000000000E+00 0.  1.
          3    1    6    6  503    0 -0.58193531102E+02  0.96826858054E+02 -0.15419871721E+03  0.19115222178E+03  0.00000000000E+00 0. -1.
         -3    1    6    6    0  503 -0.31103630316E+03  0.47277333080E+03 -0.47216525736E+03  0.73701983315E+03  0.00000000000E+00 0.  1.
<mgrwt>
<rscale>  0 0.22541556E+04</rscale>
<asrwt>0</asrwt>
<pdfrwt beam="1">  1        2 0.26788844E+00 0.22541556E+04</pdfrwt>
<pdfrwt beam="2">  1       -2 0.11223469E+00 0.22541556E+04</pdfrwt>
<totfact> 0.52968274E+00</totfact>
</mgrwt>
</event>
<event>
12    3  0.4773567E-008  0.2131051E+04  0.7818608E-02  0.8547687E-01
          2   -1    0    0  501    0  0.00000000000E+00  0.00000000000E+00  0.14665036055E+04  0.14665036055E+04  0.00000000000E+00 0. -1.
         -2   -1    0    0    0  501 -0.00000000000E+00 -0.00000000000E+00 -0.77418489533E+03  0.77418489533E+03  0.00000000000E+00 0.  1.
         23    2    1    2    0    0 -0.62908861006E+03 -0.20031253777E+01  0.90180053576E+03  0.11027257991E+04  0.83686856235E+02 0.  0.
        254    2    1    2    0    0  0.62908861006E+03  0.20031253777E+01 -0.20948182558E+03  0.11379627017E+04  0.92483511149E+03 0.  0.
         23    2    4    4    0    0  0.31609716542E+03  0.55933999778E+02 -0.56362392770E+03  0.65351045862E+03  0.79736800350E+02 0.  0.
         23    2    4    4    0    0  0.31299144464E+03 -0.53930874400E+02  0.35414210212E+03  0.48445224310E+03  0.91679679964E+02 0.  0.
          3    1    3    3  502    0 -0.39632820349E+03 -0.36727301524E+02  0.59997200712E+03  0.71999399226E+03  0.00000000000E+00 0. -1.
         -3    1    3    3    0  502 -0.23276040657E+03  0.34724176146E+02  0.30182852864E+03  0.38273180685E+03  0.00000000000E+00 0.  1.
         13    1    5    5    0    0  0.64037209379E+02  0.44068090404E+02 -0.11546194693E+03  0.13919131426E+03  0.00000000000E+00 0. -1.
        -13    1    5    5    0    0  0.25205995604E+03  0.11865909373E+02 -0.44816198077E+03  0.51431914436E+03  0.00000000000E+00 0.  1.
          3    1    6    6  503    0  0.19421418258E+03 -0.35529350475E+02  0.15157667257E+03  0.24891157291E+03  0.00000000000E+00 0. -1.
         -3    1    6    6    0  503  0.11877726206E+03 -0.18401523925E+02  0.20256542955E+03  0.23554067019E+03  0.00000000000E+00 0.  1.
<mgrwt>
<rscale>  0 0.21310513E+04</rscale>
<asrwt>0</asrwt>
<pdfrwt beam="1">  1        2 0.22561594E+00 0.21310513E+04</pdfrwt>
<pdfrwt beam="2">  1       -2 0.11910537E+00 0.21310513E+04</pdfrwt>
<totfact> 0.65952524E+00</totfact>
</mgrwt>
</event>
<event>
12    3  0.4773567E-008  0.1888492E+04  0.7818608E-02  0.8660606E-01
         -2   -1    0    0    0  501 -0.00000000000E+00  0.00000000000E+00  0.19343301903E+04  0.19343301903E+04  0.00000000000E+00 0.  1.
          2   -1    0    0  501    0  0.00000000000E+00 -0.00000000000E+00 -0.46093496280E+03  0.46093496280E+03  0.00000000000E+00 0. -1.
         23    2    1    2    0    0  0.31570772983E+03  0.96452889327E+02 -0.24935026512E+03  0.42318680534E+03  0.89089769132E+02 0.  0.
        254    2    1    2    0    0 -0.31570772983E+03 -0.96452889327E+02  0.17227454926E+04  0.19720783478E+04  0.90125825760E+03 0.  0.
         23    2    4    4    0    0 -0.34816603256E+03  0.23334946212E+03  0.15047466303E+04  0.15646868272E+04  0.91164073703E+02 0.  0.
         23    2    4    4    0    0  0.32458302723E+02 -0.32980235144E+03  0.21799886239E+03  0.40739152057E+03  0.92850495945E+02 0.  0.
          1    1    3    3  502    0  0.26810562116E+03  0.67025159091E+02 -0.24084994585E+03  0.36658108580E+03  0.00000000000E+00 0. -1.
         -1    1    3    3    0  502  0.47602108674E+02  0.29427730236E+02 -0.85003192625E+01  0.56605719540E+02  0.00000000000E+00 0.  1.
         13    1    5    5    0    0 -0.25643821666E+03  0.20728915813E+03  0.10724311381E+04  0.11219794561E+04  0.00000000000E+00 0.  1.
        -13    1    5    5    0    0 -0.91727815892E+02  0.26060303984E+02  0.43231549215E+03  0.44270737107E+03  0.00000000000E+00 0. -1.
          2    1    6    6  503    0 -0.28975148487E+02 -0.81879740656E+02  0.37360008952E+02  0.94549571277E+02  0.00000000000E+00 0. -1.
         -2    1    6    6    0  503  0.61433451210E+02 -0.24792261079E+03  0.18063885344E+03  0.31284194929E+03  0.00000000000E+00 0.  1.
<mgrwt>
<rscale>  0 0.18884919E+04</rscale>
<asrwt>0</asrwt>
<pdfrwt beam="1">  1        2 0.70913072E-01 0.18884919E+04</pdfrwt>
<pdfrwt beam="2">  1       -2 0.29758926E+00 0.18884919E+04</pdfrwt>
<totfact> 0.20882014E+00</totfact>
</mgrwt>
</event>
<event>
12    3  0.4773567E-008  0.1417392E+04  0.7818608E-02  0.8941325E-01
         -2   -1    0    0    0  501 -0.00000000000E+00  0.00000000000E+00  0.56269883345E+03  0.56269883345E+03  0.00000000000E+00 0.  1.
          2   -1    0    0  501    0  0.00000000000E+00 -0.00000000000E+00 -0.89257281588E+03  0.89257281588E+03  0.00000000000E+00 0. -1.
         23    2    1    2    0    0 -0.20243001040E+03 -0.32768612226E+03 -0.25234743940E+03  0.46965866002E+03  0.92433343187E+02 0.  0.
        254    2    1    2    0    0  0.20243001040E+03  0.32768612226E+03 -0.77526543030E+02  0.98561298931E+03  0.90391730595E+03 0.  0.
         23    2    4    4    0    0  0.10597988811E+03  0.46478010745E+03  0.29468321067E+03  0.56798372971E+03  0.92276961347E+02 0.  0.
         23    2    4    4    0    0  0.96450122298E+02 -0.13709398520E+03 -0.37220975370E+03  0.41762925960E+03  0.88185661327E+02 0.  0.
          4    1    3    3  502    0 -0.15958195120E+03 -0.28527841467E+03 -0.24586996904E+03  0.40902593402E+03  0.00000000000E+00 0. -1.
         -4    1    3    3    0  502 -0.42848059207E+02 -0.42407707584E+02 -0.64774703593E+01  0.60632726003E+02  0.00000000000E+00 0.  1.
         13    1    5    5    0    0  0.12179711251E+03  0.43621766601E+03  0.27562655032E+03  0.53017957712E+03  0.00000000000E+00 0.  1.
        -13    1    5    5    0    0 -0.15817224406E+02  0.28562441444E+02  0.19056660349E+02  0.37804152587E+02  0.00000000000E+00 0. -1.
          3    1    6    6  503    0  0.42566402064E+02 -0.55157736371E+00 -0.79937771861E+02  0.90566275138E+02  0.00000000000E+00 0. -1.
         -3    1    6    6    0  503  0.53883720234E+02 -0.13654240783E+03 -0.29227198183E+03  0.32706298447E+03  0.00000000000E+00 0.  1.
<mgrwt>
<rscale>  0 0.14173915E+04</rscale>
<asrwt>0</asrwt>
<pdfrwt beam="1">  1        2 0.13731889E+00 0.14173915E+04</pdfrwt>
<pdfrwt beam="2">  1       -2 0.86569051E-01 0.14173915E+04</pdfrwt>
<totfact> 0.33333361E+01</totfact>
</mgrwt>
</event>
<event>
12    3  0.4773567E-008  0.1330282E+04  0.7818608E-02  0.9005890E-01
         -1   -1    0    0    0  501 -0.00000000000E+00  0.00000000000E+00  0.17560544729E+03  0.17560544729E+03  0.00000000000E+00 0.  1.
          1   -1    0    0  501    0  0.00000000000E+00 -0.00000000000E+00 -0.25193568286E+04  0.25193568286E+04  0.00000000000E+00 0. -1.
         23    2    1    2    0    0  0.38285738767E+01  0.13260552889E+02  0.72330684334E+02  0.11845919225E+03  0.92791982904E+02 0.  0.
        254    2    1    2    0    0 -0.38285738767E+01 -0.13260552889E+02 -0.24160820656E+04  0.25765030836E+04  0.89483243784E+03 0.  0.
         23    2    4    4    0    0  0.93811138525E+02 -0.41333032046E+03 -0.16030103999E+04  0.16606259815E+04  0.91617817363E+02 0.  0.
         23    2    4    4    0    0 -0.97639712401E+02  0.40006976757E+03 -0.81307166570E+03  0.91587710217E+03  0.90310577177E+02 0.  0.
          1    1    3    3  502    0 -0.96963039126E+01 -0.67509387627E+01 -0.19886435127E+02  0.23131445822E+02  0.00000000000E+00 0. -1.
         -1    1    3    3    0  502  0.13524877789E+02  0.20011491652E+02  0.92217119461E+02  0.95327746427E+02  0.00000000000E+00 0.  1.
         13    1    5    5    0    0 -0.21404785995E+00 -0.87220129667E+01 -0.62840316880E+01  0.10752133785E+02  0.00000000000E+00 0.  1.
        -13    1    5    5    0    0  0.94025186385E+02 -0.40460830750E+03 -0.15967263682E+04  0.16498738477E+04  0.00000000000E+00 0. -1.
          3    1    6    6  503    0 -0.98099491334E+02  0.38537704435E+03 -0.72787977477E+03  0.82942627342E+03  0.00000000000E+00 0. -1.
         -3    1    6    6    0  503  0.45977893241E+00  0.14692723227E+02 -0.85191890923E+02  0.86450828750E+02  0.00000000000E+00 0.  1.
<mgrwt>
<rscale>  0 0.13302824E+04</rscale>
<asrwt>0</asrwt>
<pdfrwt beam="1">  1        1 0.38759332E+00 0.13302824E+04</pdfrwt>
<pdfrwt beam="2">  1       -1 0.27016225E-01 0.13302824E+04</pdfrwt>
<totfact> 0.15845327E+01</totfact>
</mgrwt>
</event>
<event>
12    3  0.4773567E-008  0.1258126E+04  0.7818608E-02  0.9063447E-01
         -2   -1    0    0    0  501 -0.00000000000E+00  0.00000000000E+00  0.76570297274E+03  0.76570297274E+03  0.00000000000E+00 0.  1.
          2   -1    0    0  501    0  0.00000000000E+00 -0.00000000000E+00 -0.51680667379E+03  0.51680667379E+03  0.00000000000E+00 0. -1.
         23    2    1    2    0    0  0.25718059403E+03  0.12660812430E+03  0.13547068958E+03  0.33013169754E+03  0.91995406938E+02 0.  0.
        254    2    1    2    0    0 -0.25718059403E+03 -0.12660812430E+03  0.11342560937E+03  0.95237794898E+03  0.90110316488E+03 0.  0.
         23    2    4    4    0    0  0.70967658763E+02 -0.43068644588E+03  0.19705036540E+03  0.48822019510E+03  0.94883555668E+02 0.  0.
         23    2    4    4    0    0 -0.32814825280E+03  0.30407832158E+03 -0.83624756029E+02  0.46415775389E+03  0.91128586114E+02 0.  0.
          2    1    3    3  502    0  0.78258312546E+02  0.18753839815E+01  0.62400498264E+02  0.10010845484E+03  0.00000000000E+00 0. -1.
         -2    1    3    3    0  502  0.17892228149E+03  0.12473274032E+03  0.73070191313E+02  0.23002324269E+03  0.00000000000E+00 0.  1.
         13    1    5    5    0    0  0.68095661369E+02 -0.43160145202E+03  0.18277159182E+03  0.47362673833E+03  0.00000000000E+00 0.  1.
        -13    1    5    5    0    0  0.28719973943E+01  0.91500613983E+00  0.14278773586E+02  0.14593456766E+02  0.00000000000E+00 0. -1.
          3    1    6    6  503    0 -0.24914954757E+03  0.17341670164E+03 -0.63760749312E+02  0.31018427203E+03  0.00000000000E+00 0. -1.
         -3    1    6    6    0  503 -0.78998705223E+02  0.13066161994E+03 -0.19864006717E+02  0.15397348186E+03  0.00000000000E+00 0.  1.
<mgrwt>
<rscale>  0 0.12581262E+04</rscale>
<asrwt>0</asrwt>
<pdfrwt beam="1">  1        2 0.79508719E-01 0.12581262E+04</pdfrwt>
<pdfrwt beam="2">  1       -2 0.11780046E+00 0.12581262E+04</pdfrwt>
<totfact> 0.32366359E+01</totfact>
</mgrwt>
</event>
<event>
12    3  0.4773567E-008  0.1180150E+04  0.7818608E-02  0.9130411E-01
         -2   -1    0    0    0  501 -0.00000000000E+00  0.00000000000E+00  0.29795534564E+03  0.29795534564E+03  0.00000000000E+00 0.  1.
          2   -1    0    0  501    0  0.00000000000E+00 -0.00000000000E+00 -0.11685930539E+04  0.11685930539E+04  0.00000000000E+00 0. -1.
         23    2    1    2    0    0 -0.15126040872E+03  0.11563693530E+03 -0.90560597168E+01  0.21146123473E+03  0.91554516692E+02 0.  0.
        254    2    1    2    0    0  0.15126040872E+03 -0.11563693530E+03 -0.86158164851E+03  0.12550871648E+04  0.89256329864E+03 0.  0.
         23    2    4    4    0    0  0.12911791303E+03  0.37047086924E+03 -0.50073284306E+03  0.64243025995E+03  0.89795090944E+02 0.  0.
         23    2    4    4    0    0  0.22142495691E+02 -0.48610780454E+03 -0.36084880545E+03  0.61265690483E+03  0.91353899151E+02 0.  0.
          2    1    3    3  502    0 -0.14433360460E+02  0.29334223026E+02  0.30731702579E+02  0.44869322238E+02  0.00000000000E+00 0. -1.
         -2    1    3    3    0  502 -0.13682704826E+03  0.86302712274E+02 -0.39787762295E+02  0.16659191250E+03  0.00000000000E+00 0.  1.
         13    1    5    5    0    0  0.10526254110E+03  0.24986576243E+03 -0.40131436715E+03  0.48432047558E+03  0.00000000000E+00 0. -1.
        -13    1    5    5    0    0  0.23855371931E+02  0.12060510681E+03 -0.99418475918E+02  0.15810978437E+03  0.00000000000E+00 0.  1.
          2    1    6    6  503    0 -0.11145218546E+00 -0.27197715490E+03 -0.14677609199E+03  0.30905469805E+03  0.00000000000E+00 0. -1.
         -2    1    6    6    0  503  0.22253947876E+02 -0.21413064964E+03 -0.21407271346E+03  0.30360220677E+03  0.00000000000E+00 0.  1.
<mgrwt>
<rscale>  0 0.11801501E+04</rscale>
<asrwt>0</asrwt>
<pdfrwt beam="1">  1        2 0.17978355E+00 0.11801501E+04</pdfrwt>
<pdfrwt beam="2">  1       -2 0.45839284E-01 0.11801501E+04</pdfrwt>
<totfact> 0.88163613E+01</totfact>
</mgrwt>
</event>
<event>
12    3  0.4773567E-008  0.1564332E+04  0.7818608E-02  0.8842765E-01
         -2   -1    0    0    0  501 -0.00000000000E+00  0.00000000000E+00  0.71348834460E+03  0.71348834460E+03  0.00000000000E+00 0. -1.
          2   -1    0    0  501    0  0.00000000000E+00 -0.00000000000E+00 -0.85745393769E+03  0.85745393769E+03  0.00000000000E+00 0.  1.
         23    2    1    2    0    0  0.31212218522E+03 -0.40942482610E+03 -0.63726716918E+02  0.52706803067E+03  0.93223751141E+02 0.  0.
        254    2    1    2    0    0 -0.31212218522E+03  0.40942482610E+03 -0.80238876172E+02  0.10438742516E+04  0.90453647203E+03 0.  0.
         23    2    4    4    0    0 -0.48314931276E+03  0.91966630550E+02 -0.32712442288E+03  0.59728597134E+03  0.88594717435E+02 0.  0.
         23    2    4    4    0    0  0.17102712754E+03  0.31745819555E+03  0.24688554671E+03  0.44658828029E+03  0.91970835811E+02 0.  0.
          3    1    3    3  502    0  0.26129046803E+03 -0.35633513196E+03 -0.86221990301E+02  0.45020180649E+03  0.00000000000E+00 0. -1.
         -3    1    3    3    0  502  0.50831717183E+02 -0.53089694131E+02  0.22495273383E+02  0.76866224177E+02  0.00000000000E+00 0.  1.
         13    1    5    5    0    0 -0.29054254439E+03  0.34711316201E+02 -0.23927523910E+03  0.37798476903E+03  0.00000000000E+00 0.  1.
        -13    1    5    5    0    0 -0.19260676837E+03  0.57255314349E+02 -0.87849183787E+02  0.21930120231E+03  0.00000000000E+00 0. -1.
          3    1    6    6  503    0  0.91248056546E+01  0.75608380022E+01  0.36856226505E+02  0.38714464761E+02  0.00000000000E+00 0. -1.
         -3    1    6    6    0  503  0.16190232189E+03  0.30989735754E+03  0.21002932021E+03  0.40787381553E+03  0.00000000000E+00 0.  1.
<mgrwt>
<rscale>  0 0.15643317E+04</rscale>
<asrwt>0</asrwt>
<pdfrwt beam="1">  1        2 0.13191599E+00 0.15643317E+04</pdfrwt>
<pdfrwt beam="2">  1       -2 0.10976744E+00 0.15643317E+04</pdfrwt>
<totfact> 0.19916313E+01</totfact>
</mgrwt>
</event>
<event>
12    3  0.4773567E-008  0.2015844E+04  0.7818608E-02  0.8599249E-01
          2   -1    0    0  501    0  0.00000000000E+00  0.00000000000E+00  0.23666931502E+04  0.23666931502E+04  0.00000000000E+00 0. -1.
         -2   -1    0    0    0  501 -0.00000000000E+00 -0.00000000000E+00 -0.42925164182E+03  0.42925164182E+03  0.00000000000E+00 0.  1.
         23    2    1    2    0    0  0.30777844526E+03  0.75049677346E+02  0.18096753363E+04  0.18401506922E+04  0.10425795873E+03 0.  0.
        254    2    1    2    0    0 -0.30777844526E+03 -0.75049677346E+02  0.12776617212E+03  0.95579409979E+03  0.89266911060E+03 0.  0.
         23    2    4    4    0    0  0.20817858219E+03 -0.29701245468E+03  0.80735746598E+01  0.37449234688E+03  0.92868805016E+02 0.  0.
         23    2    4    4    0    0 -0.51595702745E+03  0.22196277734E+03  0.11969259746E+03  0.58130175291E+03  0.90034889612E+02 0.  0.
          2    1    3    3  502    0  0.30039876454E+02  0.68965197855E+01  0.62068956321E+02  0.69300155132E+02  0.00000000000E+00 0.  1.
         -2    1    3    3    0  502  0.27773856881E+03  0.68153157560E+02  0.17476063799E+04  0.17708505371E+04  0.00000000000E+00 0. -1.
         13    1    5    5    0    0 -0.74809233617E+01 -0.31246826299E+02 -0.32560630876E+00  0.32131517044E+02  0.00000000000E+00 0. -1.
        -13    1    5    5    0    0  0.21565950556E+03 -0.26576562838E+03  0.83991809685E+01  0.34236082984E+03  0.00000000000E+00 0.  1.
          2    1    6    6  503    0 -0.13902817418E+03  0.10029137977E+03  0.17957387629E+02  0.17236490897E+03  0.00000000000E+00 0. -1.
         -2    1    6    6    0  503 -0.37692885327E+03  0.12167139757E+03  0.10173520983E+03  0.40893684394E+03  0.00000000000E+00 0.  1.
<mgrwt>
<rscale>  0 0.20158442E+04</rscale>
<asrwt>0</asrwt>
<pdfrwt beam="1">  1        2 0.36410663E+00 0.20158442E+04</pdfrwt>
<pdfrwt beam="2">  1       -2 0.66038716E-01 0.20158442E+04</pdfrwt>
<totfact> 0.81336623E+00</totfact>
</mgrwt>
</event>
<event>
12    3  0.4773567E-008  0.1720409E+04  0.7818608E-02  0.8749809E-01
          2   -1    0    0  501    0  0.00000000000E+00  0.00000000000E+00  0.25499482732E+04  0.25499482732E+04  0.00000000000E+00 0. -1.
         -2   -1    0    0    0  501 -0.00000000000E+00 -0.00000000000E+00 -0.29018307465E+03  0.29018307465E+03  0.00000000000E+00 0.  1.
         23    2    1    2    0    0  0.47376602625E+03 -0.30521072410E+03  0.38739630555E+03  0.68989754498E+03  0.90966429408E+02 0.  0.
        254    2    1    2    0    0 -0.47376602625E+03  0.30521072410E+03  0.18723688930E+04  0.21502338028E+04  0.89450114686E+03 0.  0.
         23    2    4    4    0    0 -0.17328497685E+03  0.58622007850E+03  0.13023667100E+04  0.14412599029E+04  0.85961600156E+02 0.  0.
         23    2    4    4    0    0 -0.30048104940E+03 -0.28100935440E+03  0.57000218296E+03  0.70897389994E+03  0.92121571355E+02 0.  0.
          1    1    3    3  502    0  0.81183555401E+02 -0.48691540057E+02  0.26969164529E+02  0.98432573755E+02  0.00000000000E+00 0. -1.
         -1    1    3    3    0  502  0.39258247085E+03 -0.25651918405E+03  0.36042714102E+03  0.59146497123E+03  0.00000000000E+00 0.  1.
         13    1    5    5    0    0 -0.39958537872E+02  0.15885280977E+03  0.26683921239E+03  0.31310392075E+03  0.00000000000E+00 0. -1.
        -13    1    5    5    0    0 -0.13332643898E+03  0.42736726873E+03  0.10355274976E+04  0.11281559822E+04  0.00000000000E+00 0.  1.
          3    1    6    6  503    0 -0.26138220821E+02  0.16850954519E+01  0.22799829772E+02  0.34725759488E+02  0.00000000000E+00 0. -1.
         -3    1    6    6    0  503 -0.27434282858E+03 -0.28269444985E+03  0.54720235319E+03  0.67424814045E+03  0.00000000000E+00 0.  1.
<mgrwt>
<rscale>  0 0.17204091E+04</rscale>
<asrwt>0</asrwt>
<pdfrwt beam="1">  1        2 0.39229972E+00 0.17204091E+04</pdfrwt>
<pdfrwt beam="2">  1       -2 0.44643552E-01 0.17204091E+04</pdfrwt>
<totfact> 0.14743869E+01</totfact>
</mgrwt>
</event>
<event>
12    3  0.4773567E-008  0.1307825E+04  0.7818608E-02  0.9023383E-01
         -1   -1    0    0    0  501 -0.00000000000E+00  0.00000000000E+00  0.60303964566E+03  0.60303964566E+03  0.00000000000E+00 0.  1.
          1   -1    0    0  501    0  0.00000000000E+00 -0.00000000000E+00 -0.70907667563E+03  0.70907667563E+03  0.00000000000E+00 0. -1.
         23    2    1    2    0    0  0.30295959199E+03  0.11079835678E+03  0.67626958590E+02  0.34179010651E+03  0.90478069921E+02 0.  0.
        254    2    1    2    0    0 -0.30295959199E+03 -0.11079835678E+03 -0.17366398856E+03  0.97032621478E+03  0.89850597768E+03 0.  0.
         23    2    4    4    0    0  0.13312648764E+03 -0.20534437590E+03  0.24019249031E+03  0.35499691534E+03  0.91877108516E+02 0.  0.
         23    2    4    4    0    0 -0.43608607963E+03  0.94546019124E+02 -0.41385647887E+03  0.61532929945E+03  0.90790655183E+02 0.  0.
          3    1    3    3  502    0  0.11353852170E+03  0.24402976959E+02 -0.16391781431E+02  0.11728252936E+03  0.00000000000E+00 0. -1.
         -3    1    3    3    0  502  0.18942107029E+03  0.86395379819E+02  0.84018740021E+02  0.22450757716E+03  0.00000000000E+00 0.  1.
         13    1    5    5    0    0  0.11409988782E+03 -0.10699821869E+03  0.17856556648E+03  0.23738800462E+03  0.00000000000E+00 0. -1.
        -13    1    5    5    0    0  0.19026599818E+02 -0.98346157212E+02  0.61626923828E+02  0.11760891071E+03  0.00000000000E+00 0.  1.
          4    1    6    6  503    0 -0.34366999401E+02 -0.17121886269E+02 -0.36225818749E+02  0.52787873430E+02  0.00000000000E+00 0. -1.
         -4    1    6    6    0  503 -0.40171908023E+03  0.11166790539E+03 -0.37763066012E+03  0.56254142601E+03  0.00000000000E+00 0.  1.
<mgrwt>
<rscale>  0 0.13078247E+04</rscale>
<asrwt>0</asrwt>
<pdfrwt beam="1">  1        1 0.10908872E+00 0.13078247E+04</pdfrwt>
<pdfrwt beam="2">  1       -1 0.92775330E-01 0.13078247E+04</pdfrwt>
<totfact> 0.29633622E+01</totfact>
</mgrwt>
</event>
<event>
12    3  0.4773567E-008  0.1118272E+04  0.7818608E-02  0.9187563E-01
          2   -1    0    0  501    0  0.00000000000E+00  0.00000000000E+00  0.96310272470E+03  0.96310272470E+03  0.00000000000E+00 0. -1.
         -2   -1    0    0    0  501 -0.00000000000E+00 -0.00000000000E+00 -0.32461044522E+03  0.32461044522E+03  0.00000000000E+00 0.  1.
         23    2    1    2    0    0  0.13075941924E+00  0.30894380872E+02 -0.87777573439E+02  0.13059885758E+03  0.91633396394E+02 0.  0.
        254    2    1    2    0    0 -0.13075941924E+00 -0.30894380872E+02  0.72626985292E+03  0.11571143123E+04  0.90027282125E+03 0.  0.
         23    2    4    4    0    0  0.22254220610E+03 -0.35677233018E+03  0.58835809180E+03  0.72900282009E+03  0.92023575387E+02 0.  0.
         23    2    4    4    0    0 -0.22267296552E+03  0.32587794931E+03  0.13791176111E+03  0.42811149224E+03  0.92087504696E+02 0.  0.
          2    1    3    3  502    0 -0.33102220201E+02  0.12684593058E+02 -0.50374082827E+00  0.35452921433E+02  0.00000000000E+00 0. -1.
         -2    1    3    3    0  502  0.33232979620E+02  0.18209787814E+02 -0.87273832611E+02  0.95145936147E+02  0.00000000000E+00 0.  1.
         13    1    5    5    0    0  0.40807174881E+02 -0.16139299557E+02  0.70982786858E+02  0.83452133239E+02  0.00000000000E+00 0. -1.
        -13    1    5    5    0    0  0.18173503122E+03 -0.34063303062E+03  0.51737530495E+03  0.64555068685E+03  0.00000000000E+00 0.  1.
          2    1    6    6  503    0 -0.96640751888E+02  0.93928605356E+02  0.83640589919E+02  0.15861199864E+03  0.00000000000E+00 0. -1.
         -2    1    6    6    0  503 -0.12603221363E+03  0.23194934395E+03  0.54271171194E+02  0.26949949361E+03  0.00000000000E+00 0.  1.
<mgrwt>
<rscale>  0 0.11182722E+04</rscale>
<asrwt>0</asrwt>
<pdfrwt beam="1">  1        2 0.14816965E+00 0.11182722E+04</pdfrwt>
<pdfrwt beam="2">  1       -2 0.49940069E-01 0.11182722E+04</pdfrwt>
<totfact> 0.10012554E+02</totfact>
</mgrwt>
</event>
<event>
12    3  0.4773567E-008  0.1584464E+04  0.7818608E-02  0.8830150E-01
          1   -1    0    0  501    0  0.00000000000E+00  0.00000000000E+00  0.16297646856E+04  0.16297646856E+04  0.00000000000E+00 0. -1.
         -1   -1    0    0    0  501 -0.00000000000E+00 -0.00000000000E+00 -0.38510549931E+03  0.38510549931E+03  0.00000000000E+00 0.  1.
         23    2    1    2    0    0  0.27125749620E+03 -0.45930328061E+01  0.10307323505E+04  0.10697099291E+04  0.90930902017E+02 0.  0.
        254    2    1    2    0    0 -0.27125749620E+03  0.45930328061E+01  0.21392683584E+03  0.94516025582E+03  0.87975081296E+03 0.  0.
         23    2    4    4    0    0 -0.17736543045E+03  0.10382382419E+03 -0.31817516089E+03  0.38964193882E+03  0.91364791304E+02 0.  0.
         23    2    4    4    0    0 -0.93892065750E+02 -0.99230791385E+02  0.53210199674E+03  0.55551831700E+03  0.82496033994E+02 0.  0.
          1    1    3    3  502    0  0.26191514610E+03  0.10217117330E+02  0.10047567872E+04  0.10383834237E+04  0.00000000000E+00 0. -1.
         -1    1    3    3    0  502  0.93423500969E+01 -0.14810150136E+02  0.25975563253E+02  0.31326505370E+02  0.00000000000E+00 0.  1.
         13    1    5    5    0    0 -0.16551365333E+03  0.10384172552E+03 -0.32246039957E+03  0.37703923229E+03  0.00000000000E+00 0.  1.
        -13    1    5    5    0    0 -0.11851777114E+02 -0.17901331700E-01  0.42852386764E+01  0.12602706524E+02  0.00000000000E+00 0. -1.
          4    1    6    6  503    0  0.35527059779E+01 -0.28725552986E+02  0.20443252002E+03  0.20647138871E+03  0.00000000000E+00 0. -1.
         -4    1    6    6    0  503 -0.97444771728E+02 -0.70505238399E+02  0.32766947672E+03  0.34904692829E+03  0.00000000000E+00 0.  1.
<mgrwt>
<rscale>  0 0.15844637E+04</rscale>
<asrwt>0</asrwt>
<pdfrwt beam="1">  1        1 0.25073303E+00 0.15844637E+04</pdfrwt>
<pdfrwt beam="2">  1       -1 0.59247001E-01 0.15844637E+04</pdfrwt>
<totfact> 0.14770155E+01</totfact>
</mgrwt>
</event>
<event>
12    3  0.4773567E-008  0.2313704E+04  0.7818608E-02  0.8472537E-01
          1   -1    0    0  501    0  0.00000000000E+00  0.00000000000E+00  0.17332718046E+04  0.17332718046E+04  0.00000000000E+00 0. -1.
         -1   -1    0    0    0  501 -0.00000000000E+00 -0.00000000000E+00 -0.77212729465E+03  0.77212729465E+03  0.00000000000E+00 0.  1.
         23    2    1    2    0    0 -0.17852797198E+03  0.89270214545E+02 -0.63050068675E+03  0.66859970569E+03  0.98249898136E+02 0.  0.
        254    2    1    2    0    0  0.17852797198E+03 -0.89270214545E+02  0.15916451967E+04  0.18367993935E+04  0.89479392711E+03 0.  0.
         23    2    4    4    0    0  0.10313471491E+03 -0.11583735481E+01 -0.78118088997E+02  0.16050044223E+03  0.94972863911E+02 0.  0.
         23    2    4    4    0    0  0.75393257063E+02 -0.88111840997E+02  0.16697632856E+04  0.16762989513E+04  0.91765484869E+02 0.  0.
          2    1    3    3  502    0 -0.66766519770E+02  0.20160417883E+01 -0.10615855195E+03  0.12542515991E+03  0.00000000000E+00 0. -1.
         -2    1    3    3    0  502 -0.11176145221E+03  0.87254172756E+02 -0.52434213480E+03  0.54317454578E+03  0.00000000000E+00 0.  1.
         13    1    5    5    0    0  0.15791816944E+02  0.12846138795E+02  0.19900443214E+02  0.28468094500E+02  0.00000000000E+00 0.  1.
        -13    1    5    5    0    0  0.87342897970E+02 -0.14004512343E+02 -0.98018532211E+02  0.13203234774E+03  0.00000000000E+00 0. -1.
          3    1    6    6  503    0  0.60022860337E+02 -0.31533803713E+02  0.13130783014E+04  0.13148276504E+04  0.00000000000E+00 0. -1.
         -3    1    6    6    0  503  0.15370396726E+02 -0.56578037283E+02  0.35668498425E+03  0.36147130092E+03  0.00000000000E+00 0.  1.
<mgrwt>
<rscale>  0 0.23137039E+04</rscale>
<asrwt>0</asrwt>
<pdfrwt beam="1">  1        1 0.26665720E+00 0.23137039E+04</pdfrwt>
<pdfrwt beam="2">  1       -1 0.11878882E+00 0.23137039E+04</pdfrwt>
<totfact> 0.25915500E+00</totfact>
</mgrwt>
</event>
<event>
12    3  0.4773567E-008  0.1238727E+04  0.7818608E-02  0.9079619E-01
         -2   -1    0    0    0  501 -0.00000000000E+00  0.00000000000E+00  0.77924023937E+03  0.77924023937E+03  0.00000000000E+00 0.  1.
          2   -1    0    0  501    0  0.00000000000E+00 -0.00000000000E+00 -0.49228832987E+03  0.49228832987E+03  0.00000000000E+00 0. -1.
         23    2    1    2    0    0  0.13405892125E+03  0.11560846232E+03  0.29867987858E+03  0.35772449442E+03  0.86139614046E+02 0.  0.
        254    2    1    2    0    0 -0.13405892125E+03 -0.11560846232E+03 -0.11727969080E+02  0.91380407482E+03  0.89641688458E+03 0.  0.
         23    2    4    4    0    0 -0.46030513987E+03  0.76875493550E+02 -0.15378613324E+03  0.49933164361E+03  0.88832720495E+02 0.  0.
         23    2    4    4    0    0  0.32624621862E+03 -0.19248395587E+03  0.14205816416E+03  0.41447243121E+03  0.90112184491E+02 0.  0.
          1    1    3    3  502    0  0.83604117804E+02  0.80440276823E+02  0.11232932562E+03  0.16148734949E+03  0.00000000000E+00 0. -1.
         -1    1    3    3    0  502  0.50454803448E+02  0.35168185500E+02  0.18635055296E+03  0.19623714493E+03  0.00000000000E+00 0.  1.
         13    1    5    5    0    0 -0.10586472513E+03  0.10596984705E+02 -0.75190308268E+02  0.13028130553E+03  0.00000000000E+00 0. -1.
        -13    1    5    5    0    0 -0.35444041474E+03  0.66278508845E+02 -0.78595824972E+02  0.36905033808E+03  0.00000000000E+00 0.  1.
          3    1    6    6  503    0  0.14831888265E+02 -0.30678711713E+02 -0.40805606046E+01  0.34319371159E+02  0.00000000000E+00 0. -1.
         -3    1    6    6    0  503  0.31141433036E+03 -0.16180524416E+03  0.14613872476E+03  0.38015306005E+03  0.00000000000E+00 0.  1.
<mgrwt>
<rscale>  0 0.12387266E+04</rscale>
<asrwt>0</asrwt>
<pdfrwt beam="1">  1        2 0.75736666E-01 0.12387266E+04</pdfrwt>
<pdfrwt beam="2">  1       -2 0.11988311E+00 0.12387266E+04</pdfrwt>
<totfact> 0.32840524E+01</totfact>
</mgrwt>
</event>
<event>
12    3  0.4773567E-008  0.1655372E+04  0.7818608E-02  0.8787235E-01
         -2   -1    0    0    0  501 -0.00000000000E+00  0.00000000000E+00  0.71229932504E+03  0.71229932504E+03  0.00000000000E+00 0.  1.
          2   -1    0    0  501    0  0.00000000000E+00 -0.00000000000E+00 -0.96176397692E+03  0.96176397692E+03  0.00000000000E+00 0. -1.
         23    2    1    2    0    0  0.25164751808E+03 -0.16887184936E+03  0.40389418852E+03  0.51469966297E+03  0.99704827751E+02 0.  0.
        254    2    1    2    0    0 -0.25164751808E+03  0.16887184936E+03 -0.65335884040E+03  0.11593636390E+04  0.90851642705E+03 0.  0.
         23    2    4    4    0    0  0.11775650804E+03  0.33009052095E+03  0.26049004445E+02  0.36390928101E+03  0.94472572585E+02 0.  0.
         23    2    4    4    0    0 -0.36940402612E+03 -0.16121867159E+03 -0.67940784485E+03  0.79545435798E+03  0.93283553762E+02 0.  0.
          1    1    3    3  502    0  0.61703433936E+02 -0.38058427741E+02  0.37139334230E+02  0.81456048447E+02  0.00000000000E+00 0. -1.
         -1    1    3    3    0  502  0.18994408414E+03 -0.13081342162E+03  0.36675485429E+03  0.43324361452E+03  0.00000000000E+00 0.  1.
         13    1    5    5    0    0  0.11441987169E+03  0.31819907021E+03  0.45166880167E+02  0.34114894457E+03  0.00000000000E+00 0.  1.
        -13    1    5    5    0    0  0.33366363496E+01  0.11891450739E+02 -0.19117875722E+02  0.22760336442E+02  0.00000000000E+00 0. -1.
          3    1    6    6  503    0 -0.17607848817E+03 -0.96475299028E+02 -0.25447439946E+03  0.32414246451E+03  0.00000000000E+00 0. -1.
         -3    1    6    6    0  503 -0.19332553795E+03 -0.64743372562E+02 -0.42493344539E+03  0.47131189347E+03  0.00000000000E+00 0.  1.
<mgrwt>
<rscale>  0 0.16553717E+04</rscale>
<asrwt>0</asrwt>
<pdfrwt beam="1">  1        2 0.14796369E+00 0.16553717E+04</pdfrwt>
<pdfrwt beam="2">  1       -2 0.10958451E+00 0.16553717E+04</pdfrwt>
<totfact> 0.16888419E+01</totfact>
</mgrwt>
</event>
<event>
12    3  0.4773567E-008  0.1522324E+04  0.7818608E-02  0.8869742E-01
          2   -1    0    0  501    0  0.00000000000E+00  0.00000000000E+00  0.66788656827E+03  0.66788656827E+03  0.00000000000E+00 0. -1.
         -2   -1    0    0    0  501 -0.00000000000E+00 -0.00000000000E+00 -0.86746424765E+03  0.86746424765E+03  0.00000000000E+00 0.  1.
         23    2    1    2    0    0 -0.34733897874E+03 -0.35122977433E+03 -0.25177509055E+02  0.50296650835E+03  0.91294474259E+02 0.  0.
        254    2    1    2    0    0  0.34733897874E+03  0.35122977433E+03 -0.17440017033E+03  0.10323843076E+04  0.88960396727E+03 0.  0.
         23    2    4    4    0    0  0.41875959080E+03 -0.18194755322E+03 -0.22398884121E+02  0.46666209494E+03  0.93847183414E+02 0.  0.
         23    2    4    4    0    0 -0.71420612056E+02  0.53317732755E+03 -0.15200128621E+03  0.56572221263E+03  0.86938279368E+02 0.  0.
          1    1    3    3  502    0 -0.26826038128E+03 -0.27348862866E+03 -0.57677421732E+02  0.38740979227E+03  0.00000000000E+00 0. -1.
         -1    1    3    3    0  502 -0.79078597464E+02 -0.77741145668E+02  0.32499912677E+02  0.11555671608E+03  0.00000000000E+00 0.  1.
         13    1    5    5    0    0  0.12076744052E+03 -0.81442396172E+01 -0.10239666271E+02  0.12147408816E+03  0.00000000000E+00 0.  1.
        -13    1    5    5    0    0  0.29799215028E+03 -0.17380331360E+03 -0.12159217850E+02  0.34518800678E+03  0.00000000000E+00 0. -1.
          4    1    6    6  503    0 -0.83008314416E+02  0.51799585240E+03 -0.15339984929E+03  0.54657259090E+03  0.00000000000E+00 0. -1.
         -4    1    6    6    0  503  0.11587702360E+02  0.15181475151E+02  0.13985630828E+01  0.19149621731E+02  0.00000000000E+00 0.  1.
<mgrwt>
<rscale>  0 0.15223242E+04</rscale>
<asrwt>0</asrwt>
<pdfrwt beam="1">  1        2 0.10275178E+00 0.15223242E+04</pdfrwt>
<pdfrwt beam="2">  1       -2 0.13345604E+00 0.15223242E+04</pdfrwt>
<totfact> 0.17028137E+01</totfact>
</mgrwt>
</event>
<event>
12    3  0.4773567E-008  0.2287921E+04  0.7818608E-02  0.8482699E-01
          1   -1    0    0  501    0  0.00000000000E+00  0.00000000000E+00  0.83039633126E+03  0.83039633126E+03  0.00000000000E+00 0. -1.
         -1   -1    0    0    0  501 -0.00000000000E+00 -0.00000000000E+00 -0.15759286461E+04  0.15759286461E+04  0.00000000000E+00 0.  1.
         23    2    1    2    0    0  0.86807119255E+03  0.40330412196E+02 -0.75017059844E+03  0.11520935610E+04  0.96899479097E+02 0.  0.
        254    2    1    2    0    0 -0.86807119255E+03 -0.40330412196E+02  0.46382836160E+01  0.12542314164E+04  0.90437867876E+03 0.  0.
         23    2    4    4    0    0 -0.10026115189E+04 -0.28245686528E+02  0.17124062686E+03  0.10213904942E+04  0.88811670288E+02 0.  0.
         23    2    4    4    0    0  0.13454032636E+03 -0.12084725668E+02 -0.16660234324E+03  0.23284092211E+03  0.90616853980E+02 0.  0.
          1    1    3    3  502    0  0.19359692347E+03  0.32186430319E+02 -0.21458132765E+03  0.29079353715E+03  0.00000000000E+00 0. -1.
         -1    1    3    3    0  502  0.67447426908E+03  0.81439818767E+01 -0.53558927079E+03  0.86130002385E+03  0.00000000000E+00 0.  1.
         13    1    5    5    0    0 -0.33407353795E+03  0.31067210110E+02  0.67914446039E+02  0.34231954704E+03  0.00000000000E+00 0.  1.
        -13    1    5    5    0    0 -0.66853798096E+03 -0.59312896639E+02  0.10332618082E+03  0.67907094720E+03  0.00000000000E+00 0. -1.
          1    1    6    6  503    0  0.69901371846E+02  0.24964463224E+02 -0.13031145893E+03  0.14996833846E+03  0.00000000000E+00 0. -1.
         -1    1    6    6    0  503  0.64638954511E+02 -0.37049188891E+02 -0.36290884310E+02  0.82872583655E+02  0.00000000000E+00 0.  1.
<mgrwt>
<rscale>  0 0.22879208E+04</rscale>
<asrwt>0</asrwt>
<pdfrwt beam="1">  1        1 0.12775328E+00 0.22879208E+04</pdfrwt>
<pdfrwt beam="2">  1       -1 0.24245056E+00 0.22879208E+04</pdfrwt>
<totfact> 0.14710430E+00</totfact>
</mgrwt>
</event>
<event>
12    3  0.4773567E-008  0.3608822E+04  0.7818608E-02  0.8088474E-01
         -2   -1    0    0    0  501 -0.00000000000E+00  0.00000000000E+00  0.22241740291E+04  0.22241740291E+04  0.00000000000E+00 0.  1.
          2   -1    0    0  501    0  0.00000000000E+00 -0.00000000000E+00 -0.14638689864E+04  0.14638689864E+04  0.00000000000E+00 0. -1.
         23    2    1    2    0    0  0.79154409071E+03 -0.75589322859E+02 -0.11732118880E+04  0.14201867376E+04  0.90820935073E+02 0.  0.
        254    2    1    2    0    0 -0.79154409071E+03  0.75589322859E+02  0.19335169307E+04  0.22678562779E+04  0.87887916262E+03 0.  0.
         23    2    4    4    0    0  0.39351964544E+02  0.25950184290E+03  0.80814646008E+03  0.85451105979E+03  0.90546489591E+02 0.  0.
         23    2    4    4    0    0 -0.83089605525E+03 -0.18391252005E+03  0.11253704706E+04  0.14133452181E+04  0.82909225382E+02 0.  0.
          1    1    3    3  502    0  0.48619918875E+03 -0.72061793622E+02 -0.78641588829E+03  0.92737937361E+03  0.00000000000E+00 0. -1.
         -1    1    3    3    0  502  0.30534490196E+03 -0.35275292361E+01 -0.38679599976E+03  0.49280736403E+03  0.00000000000E+00 0.  1.
         13    1    5    5    0    0  0.83797047628E+01  0.23925599622E+03  0.72496037834E+03  0.76346656858E+03  0.00000000000E+00 0. -1.
        -13    1    5    5    0    0  0.30972259781E+02  0.20245846685E+02  0.83186081741E+02  0.91044491208E+02  0.00000000000E+00 0.  1.
          1    1    6    6  503    0 -0.18560560918E+03 -0.70648289320E+02  0.29541070993E+03  0.35596082718E+03  0.00000000000E+00 0. -1.
         -1    1    6    6    0  503 -0.64529044608E+03 -0.11326423073E+03  0.82995976069E+03  0.10573843909E+04  0.00000000000E+00 0.  1.
<mgrwt>
<rscale>  0 0.36088222E+04</rscale>
<asrwt>0</asrwt>
<pdfrwt beam="1">  1        2 0.22521061E+00 0.36088222E+04</pdfrwt>
<pdfrwt beam="2">  1       -2 0.34218062E+00 0.36088222E+04</pdfrwt>
<totfact> 0.18876195E-01</totfact>
</mgrwt>
</event>
<event>
12    3  0.4773567E-008  0.1622152E+04  0.7818608E-02  0.8807053E-01
         -2   -1    0    0    0  501 -0.00000000000E+00  0.00000000000E+00  0.22546194274E+03  0.22546194274E+03  0.00000000000E+00 0.  1.
          2   -1    0    0  501    0  0.00000000000E+00 -0.00000000000E+00 -0.29177631055E+04  0.29177631055E+04  0.00000000000E+00 0. -1.
         23    2    1    2    0    0 -0.11793038865E+03 -0.39103279356E+03 -0.20978544354E+03  0.46856752173E+03  0.93441788811E+02 0.  0.
        254    2    1    2    0    0  0.11793038865E+03  0.39103279356E+03 -0.24825157192E+04  0.26746575265E+04  0.90779643409E+03 0.  0.
         23    2    4    4    0    0  0.25585021187E+03  0.60639812055E+02 -0.15708696196E+03  0.32003741808E+03  0.92796107878E+02 0.  0.
         23    2    4    4    0    0 -0.13791982322E+03  0.33039298150E+03 -0.23254287573E+04  0.23546201084E+04  0.91845250587E+02 0.  0.
          1    1    3    3  502    0  0.80615037687E+01 -0.40898679741E+02 -0.45781571443E+02  0.61916412455E+02  0.00000000000E+00 0. -1.
         -1    1    3    3    0  502 -0.12599189241E+03 -0.35013411382E+03 -0.16400387210E+03  0.40665110928E+03  0.00000000000E+00 0.  1.
         13    1    5    5    0    0  0.22909127541E+03  0.64145261339E+02 -0.10230103453E+03  0.25896511095E+03  0.00000000000E+00 0. -1.
        -13    1    5    5    0    0  0.26758936453E+02 -0.35054492841E+01 -0.54785927422E+02  0.61072307130E+02  0.00000000000E+00 0.  1.
          1    1    6    6  503    0 -0.12770845519E+02  0.11359356467E+03 -0.91968997093E+03  0.92676654831E+03  0.00000000000E+00 0. -1.
         -1    1    6    6    0  503 -0.12514897770E+03  0.21679941683E+03 -0.14057387863E+04  0.14278535601E+04  0.00000000000E+00 0.  1.
<mgrwt>
<rscale>  0 0.16221523E+04</rscale>
<asrwt>0</asrwt>
<pdfrwt beam="1">  1        2 0.44888663E+00 0.16221523E+04</pdfrwt>
<pdfrwt beam="2">  1       -2 0.34686453E-01 0.16221523E+04</pdfrwt>
<totfact> 0.14689296E+01</totfact>
</mgrwt>
</event>
<event>
12    3  0.4773567E-008  0.2425139E+04  0.7818608E-02  0.8430151E-01
          1   -1    0    0  501    0  0.00000000000E+00  0.00000000000E+00  0.11590038033E+04  0.11590038033E+04  0.00000000000E+00 0.  1.
         -1   -1    0    0    0  501 -0.00000000000E+00 -0.00000000000E+00 -0.12686110597E+04  0.12686110597E+04  0.00000000000E+00 0. -1.
         23    2    1    2    0    0 -0.56836701196E+03 -0.74319144563E+03 -0.51009194451E+03  0.10696228572E+04  0.92329192258E+02 0.  0.
        254    2    1    2    0    0  0.56836701196E+03  0.74319144563E+03  0.40048468805E+03  0.13579920057E+04  0.89909939224E+03 0.  0.
         23    2    4    4    0    0  0.58608591516E+03  0.70251355745E+03  0.62469401698E+03  0.11123414007E+04  0.10019370492E+03 0.  0.
         23    2    4    4    0    0 -0.17718903200E+02  0.40677888186E+02 -0.22420932892E+03  0.24565060504E+03  0.90031919147E+02 0.  0.
          3    1    3    3  502    0 -0.53066440179E+03 -0.67458801828E+03 -0.49187708581E+03  0.98925060995E+03  0.00000000000E+00 0. -1.
         -3    1    3    3    0  502 -0.37702610170E+02 -0.68603427354E+02 -0.18214858692E+02  0.80372247296E+02  0.00000000000E+00 0.  1.
         13    1    5    5    0    0  0.80142650737E+02  0.61916368207E+02  0.97647469048E+02  0.14068229928E+03  0.00000000000E+00 0.  1.
        -13    1    5    5    0    0  0.50594326442E+03  0.64059718924E+03  0.52704654793E+03  0.97165910141E+03  0.00000000000E+00 0. -1.
          2    1    6    6  503    0  0.26881941724E+02 -0.12295324752E+02 -0.88292905654E+02  0.93109886642E+02  0.00000000000E+00 0.  1.
         -2    1    6    6    0  503 -0.44600844924E+02  0.52973212938E+02 -0.13591642327E+03  0.15254071840E+03  0.00000000000E+00 0. -1.
<mgrwt>
<rscale>  0 0.24251392E+04</rscale>
<asrwt>0</asrwt>
<pdfrwt beam="1">  1        1 0.17830828E+00 0.24251392E+04</pdfrwt>
<pdfrwt beam="2">  1       -1 0.19517093E+00 0.24251392E+04</pdfrwt>
<totfact> 0.16651994E+00</totfact>
</mgrwt>
</event>
<event>
12    3  0.4773567E-008  0.1014533E+04  0.7818608E-02  0.9292748E-01
          2   -1    0    0  501    0  0.00000000000E+00  0.00000000000E+00  0.15832326933E+04  0.15832326933E+04  0.00000000000E+00 0. -1.
         -2   -1    0    0    0  501 -0.00000000000E+00 -0.00000000000E+00 -0.16252765341E+03  0.16252765341E+03  0.00000000000E+00 0.  1.
         23    2    1    2    0    0 -0.45116919835E+02  0.53361112694E+02  0.15937845314E+03  0.19635946961E+03  0.90953862888E+02 0.  0.
        254    2    1    2    0    0  0.45116919835E+02 -0.53361112694E+02  0.12613265867E+04  0.15494008771E+04  0.89711502870E+03 0.  0.
         23    2    4    4    0    0 -0.13046954885E+03 -0.43832645741E+03  0.68426386804E+03  0.82834230876E+03  0.93709940488E+02 0.  0.
         23    2    4    4    0    0  0.17558646868E+03  0.38496534471E+03  0.57706271868E+03  0.72105856831E+03  0.88854673631E+02 0.  0.
          1    1    3    3  502    0 -0.58318019615E+02  0.26895395811E+02  0.15324094820E+03  0.16615397056E+03  0.00000000000E+00 0. -1.
         -1    1    3    3    0  502  0.13201099780E+02  0.26465716882E+02  0.61375049395E+01  0.30205499042E+02  0.00000000000E+00 0.  1.
         13    1    5    5    0    0 -0.12270582272E+03 -0.33214531365E+03  0.57857553798E+03  0.67832653012E+03  0.00000000000E+00 0. -1.
        -13    1    5    5    0    0 -0.77637261282E+01 -0.10618114376E+03  0.10568833005E+03  0.15001577865E+03  0.00000000000E+00 0.  1.
          3    1    6    6  503    0  0.17396199719E+03  0.30626855103E+03  0.49298062799E+03  0.60588208538E+03  0.00000000000E+00 0. -1.
         -3    1    6    6    0  503  0.16244714909E+01  0.78696793690E+02  0.84082090691E+02  0.11517648293E+03  0.00000000000E+00 0.  1.
<mgrwt>
<rscale>  0 0.10145326E+04</rscale>
<asrwt>0</asrwt>
<pdfrwt beam="1">  1        2 0.24357425E+00 0.10145326E+04</pdfrwt>
<pdfrwt beam="2">  1       -2 0.25004255E-01 0.10145326E+04</pdfrwt>
<totfact> 0.16297492E+02</totfact>
</mgrwt>
</event>
<event>
12    3  0.4773567E-008  0.1769132E+04  0.7818608E-02  0.8722889E-01
         -1   -1    0    0    0  501 -0.00000000000E+00  0.00000000000E+00  0.65542627715E+03  0.65542627715E+03  0.00000000000E+00 0.  1.
          1   -1    0    0  501    0  0.00000000000E+00 -0.00000000000E+00 -0.11938132945E+04  0.11938132945E+04  0.00000000000E+00 0. -1.
         23    2    1    2    0    0 -0.13060131314E+03  0.28821000609E+03 -0.79193802888E+03  0.85697647302E+03  0.84386747347E+02 0.  0.
        254    2    1    2    0    0  0.13060131314E+03 -0.28821000609E+03  0.25355101150E+03  0.99226309866E+03  0.90563581583E+03 0.  0.
         23    2    4    4    0    0 -0.23357522466E+03 -0.46710674536E+03  0.58467789976E+02  0.53351646480E+03  0.92061059184E+02 0.  0.
         23    2    4    4    0    0  0.36417653780E+03  0.17889673927E+03  0.19508322152E+03  0.45874663385E+03  0.88104578469E+02 0.  0.
          4    1    3    3  502    0 -0.12673128154E+03  0.25585542744E+03 -0.75769872433E+03  0.80970993221E+03  0.00000000000E+00 0. -1.
         -4    1    3    3    0  502 -0.38700315971E+01  0.32354578652E+02 -0.34239304545E+02  0.47266540809E+02  0.00000000000E+00 0.  1.
         13    1    5    5    0    0 -0.13128168674E+03 -0.17474288410E+03  0.14428642489E+01  0.21856815567E+03  0.00000000000E+00 0. -1.
        -13    1    5    5    0    0 -0.10229353792E+03 -0.29236386126E+03  0.57024925727E+02  0.31494830913E+03  0.00000000000E+00 0.  1.
          2    1    6    6  503    0  0.25506820896E+02  0.35916596659E+02  0.34632114727E+01  0.44188162007E+02  0.00000000000E+00 0. -1.
         -2    1    6    6    0  503  0.33866971690E+03  0.14298014261E+03  0.19162001005E+03  0.41455847185E+03  0.00000000000E+00 0.  1.
<mgrwt>
<rscale>  0 0.17691315E+04</rscale>
<asrwt>0</asrwt>
<pdfrwt beam="1">  1        1 0.18366358E+00 0.17691315E+04</pdfrwt>
<pdfrwt beam="2">  1       -1 0.10083481E+00 0.17691315E+04</pdfrwt>
<totfact> 0.95536085E+00</totfact>
</mgrwt>
</event>
<event>
12    3  0.4773567E-008  0.1351243E+04  0.7818608E-02  0.8989888E-01
         -2   -1    0    0    0  501 -0.00000000000E+00  0.00000000000E+00  0.11779131917E+03  0.11779131917E+03  0.00000000000E+00 0.  1.
          2   -1    0    0  501    0  0.00000000000E+00 -0.00000000000E+00 -0.38751946523E+04  0.38751946523E+04  0.00000000000E+00 0. -1.
         23    2    1    2    0    0  0.31803469911E+03 -0.12676997108E+03 -0.69728331153E+03  0.78241980173E+03  0.93595054368E+02 0.  0.
        254    2    1    2    0    0 -0.31803469911E+03  0.12676997108E+03 -0.30601200216E+04  0.32105661698E+04  0.90894658166E+03 0.  0.
         23    2    4    4    0    0  0.30913246575E+03 -0.18527733990E+01 -0.11615926369E+04  0.12048000504E+04  0.81727555856E+02 0.  0.
         23    2    4    4    0    0 -0.62716716485E+03  0.12862274448E+03 -0.18985273847E+04  0.20057661193E+04  0.93856441836E+02 0.  0.
          4    1    3    3  502    0  0.87347238890E+02 -0.52172687162E+02 -0.30229738463E+03  0.31895961842E+03  0.00000000000E+00 0.  1.
         -4    1    3    3    0  502  0.23068746022E+03 -0.74597283922E+02 -0.39498592690E+03  0.46346018331E+03  0.00000000000E+00 0. -1.
         13    1    5    5    0    0  0.47400644236E+02 -0.14453500126E+02 -0.10361465863E+03  0.11485522288E+03  0.00000000000E+00 0.  1.
        -13    1    5    5    0    0  0.26173182151E+03  0.12600726727E+02 -0.10579779782E+04  0.10899448276E+04  0.00000000000E+00 0. -1.
          2    1    6    6  503    0 -0.42196724879E+03  0.11572397162E+03 -0.11846985484E+04  0.12629168806E+04  0.00000000000E+00 0. -1.
         -2    1    6    6    0  503 -0.20519991607E+03  0.12898772867E+02 -0.71382883629E+03  0.74284923869E+03  0.00000000000E+00 0.  1.
<mgrwt>
<rscale>  0 0.13512428E+04</rscale>
<asrwt>0</asrwt>
<pdfrwt beam="1">  1        2 0.59618382E+00 0.13512428E+04</pdfrwt>
<pdfrwt beam="2">  1       -2 0.18121740E-01 0.13512428E+04</pdfrwt>
<totfact> 0.10957821E+01</totfact>
</mgrwt>
</event>
<event>
12    3  0.4773567E-008  0.1420008E+04  0.7818608E-02  0.8939462E-01
         -1   -1    0    0    0  501 -0.00000000000E+00  0.00000000000E+00  0.63128747588E+03  0.63128747588E+03  0.00000000000E+00 0.  1.
          1   -1    0    0  501    0  0.00000000000E+00 -0.00000000000E+00 -0.79853600578E+03  0.79853600578E+03  0.00000000000E+00 0. -1.
         23    2    1    2    0    0  0.19761775695E+03 -0.14374811735E+03 -0.37924839394E+03  0.46031094234E+03  0.91326448688E+02 0.  0.
        254    2    1    2    0    0 -0.19761775695E+03  0.14374811735E+03  0.21199986403E+03  0.96951253931E+03  0.91394437601E+03 0.  0.
         23    2    4    4    0    0 -0.36384288465E+03  0.26883486764E+03 -0.19840928525E+03  0.50034841514E+03  0.79551626554E+02 0.  0.
         23    2    4    4    0    0  0.16622512770E+03 -0.12508675029E+03  0.41040914928E+03  0.46916412418E+03  0.91661428199E+02 0.  0.
          2    1    3    3  502    0  0.18183825790E+03 -0.91968069989E+02 -0.32553761537E+03  0.38405470568E+03  0.00000000000E+00 0. -1.
         -2    1    3    3    0  502  0.15779499044E+02 -0.51780047366E+02 -0.53710778576E+02  0.76256236666E+02  0.00000000000E+00 0.  1.
         13    1    5    5    0    0 -0.10535378515E+03  0.40896724568E+02 -0.30895585894E+02  0.11716014405E+03  0.00000000000E+00 0.  1.
        -13    1    5    5    0    0 -0.25848909950E+03  0.22793814307E+03 -0.16751369935E+03  0.38318827109E+03  0.00000000000E+00 0. -1.
          2    1    6    6  503    0  0.88538865616E+02 -0.12034037770E+03  0.27631112150E+03  0.31411585935E+03  0.00000000000E+00 0. -1.
         -2    1    6    6    0  503  0.77686262089E+02 -0.47463725843E+01  0.13409802778E+03  0.15504826483E+03  0.00000000000E+00 0.  1.
<mgrwt>
<rscale>  0 0.14200081E+04</rscale>
<asrwt>0</asrwt>
<pdfrwt beam="1">  1        1 0.12285169E+00 0.14200081E+04</pdfrwt>
<pdfrwt beam="2">  1       -1 0.97121151E-01 0.14200081E+04</pdfrwt>
<totfact> 0.22000166E+01</totfact>
</mgrwt>
</event>
<event>
12    3  0.4773567E-008  0.1140336E+04  0.7818608E-02  0.9166745E-01
         -2   -1    0    0    0  501 -0.00000000000E+00  0.00000000000E+00  0.16334949225E+03  0.16334949225E+03  0.00000000000E+00 0. -1.
          2   -1    0    0  501    0  0.00000000000E+00 -0.00000000000E+00 -0.19901607031E+04  0.19901607031E+04  0.00000000000E+00 0.  1.
         23    2    1    2    0    0 -0.19686613800E+03  0.35027156990E+02 -0.37517678042E+03  0.43469396026E+03  0.90653430742E+02 0.  0.
        254    2    1    2    0    0  0.19686613800E+03 -0.35027156990E+02 -0.14516344304E+04  0.17188162351E+04  0.89838942134E+03 0.  0.
         23    2    4    4    0    0 -0.33358400317E+03  0.82346668377E+02 -0.71962037186E+03  0.80262407452E+03  0.91064067739E+02 0.  0.
         23    2    4    4    0    0  0.53045014118E+03 -0.11737382537E+03 -0.73201405857E+03  0.91619216057E+03  0.91703467711E+02 0.  0.
          2    1    3    3  502    0 -0.34485506262E+02 -0.28346686573E+02 -0.90032383745E+02  0.10049186487E+03  0.00000000000E+00 0. -1.
         -2    1    3    3    0  502 -0.16238063174E+03  0.63373843563E+02 -0.28514439668E+03  0.33420209540E+03  0.00000000000E+00 0.  1.
         13    1    5    5    0    0 -0.18874396949E+03  0.42212540432E+02 -0.50360242806E+03  0.53946416946E+03  0.00000000000E+00 0.  1.
        -13    1    5    5    0    0 -0.14484003369E+03  0.40134127945E+02 -0.21601794380E+03  0.26315990506E+03  0.00000000000E+00 0. -1.
          2    1    6    6  503    0  0.52202581571E+03 -0.11929087579E+03 -0.73270718997E+03  0.90752470576E+03  0.00000000000E+00 0. -1.
         -2    1    6    6    0  503  0.84243254616E+01  0.19170504236E+01  0.69313140280E+00  0.86674548139E+01  0.00000000000E+00 0.  1.
<mgrwt>
<rscale>  0 0.11403363E+04</rscale>
<asrwt>0</asrwt>
<pdfrwt beam="1">  1        2 0.30617857E+00 0.11403363E+04</pdfrwt>
<pdfrwt beam="2">  1       -2 0.25130691E-01 0.11403363E+04</pdfrwt>
<totfact> 0.95396778E+01</totfact>
</mgrwt>
</event>
<event>
12    3  0.4773567E-008  0.3690179E+04  0.7818608E-02  0.8070142E-01
          1   -1    0    0  501    0  0.00000000000E+00  0.00000000000E+00  0.26371975390E+04  0.26371975390E+04  0.00000000000E+00 0. -1.
         -1   -1    0    0    0  501 -0.00000000000E+00 -0.00000000000E+00 -0.12908988606E+04  0.12908988606E+04  0.00000000000E+00 0.  1.
         23    2    1    2    0    0 -0.12301389458E+04  0.66109311296E+02  0.19260193928E+04  0.22881484339E+04  0.91979818374E+02 0.  0.
        254    2    1    2    0    0  0.12301389458E+04 -0.66109311296E+02 -0.57972071442E+03  0.16399479657E+04  0.91418868762E+03 0.  0.
         23    2    4    4    0    0  0.43754438643E+03 -0.20870325811E+03 -0.66193442755E+03  0.82528557406E+03  0.89089574785E+02 0.  0.
         23    2    4    4    0    0  0.79259455937E+03  0.14259394682E+03  0.82213713133E+02  0.81466239167E+03  0.91523486365E+02 0.  0.
          1    1    3    3  502    0 -0.81015590356E+03  0.25436601413E+02  0.11916538426E+04  0.14411934253E+04  0.00000000000E+00 0. -1.
         -1    1    3    3    0  502 -0.41998304225E+03  0.40672709883E+02  0.73436555023E+03  0.84695500853E+03  0.00000000000E+00 0.  1.
         13    1    5    5    0    0  0.17877950885E+03 -0.11892012433E+03 -0.23775733302E+03  0.32036332212E+03  0.00000000000E+00 0. -1.
        -13    1    5    5    0    0  0.25876487758E+03 -0.89783133781E+02 -0.42417709453E+03  0.50492225194E+03  0.00000000000E+00 0.  1.
          4    1    6    6  503    0  0.77795383419E+03  0.14196709061E+03  0.93301316703E+02  0.79628635468E+03  0.00000000000E+00 0.  1.
         -4    1    6    6    0  503  0.14640725186E+02  0.62685620302E+00 -0.11087603570E+02  0.18376036993E+02  0.00000000000E+00 0. -1.
<mgrwt>
<rscale>  0 0.36901790E+04</rscale>
<asrwt>0</asrwt>
<pdfrwt beam="1">  1        1 0.40572270E+00 0.36901790E+04</pdfrwt>
<pdfrwt beam="2">  1       -1 0.19859983E+00 0.36901790E+04</pdfrwt>
<totfact> 0.13425099E-01</totfact>
</mgrwt>
</event>
<event>
12    3  0.4773567E-008  0.2806824E+04  0.7818608E-02  0.8301153E-01
          1   -1    0    0  501    0  0.00000000000E+00  0.00000000000E+00  0.99648472000E+03  0.99648472000E+03  0.00000000000E+00 0. -1.
         -1   -1    0    0    0  501 -0.00000000000E+00 -0.00000000000E+00 -0.19765132934E+04  0.19765132934E+04  0.00000000000E+00 0.  1.
         23    2    1    2    0    0  0.99233055515E+03  0.24733638631E+03 -0.12197796490E+04  0.15942917732E+04  0.89491046717E+02 0.  0.
        254    2    1    2    0    0 -0.99233055515E+03 -0.24733638631E+03  0.23975107561E+03  0.13787062402E+04  0.89300341528E+03 0.  0.
         23    2    4    4    0    0 -0.27826329295E+03  0.17030419054E+03  0.40744366625E+03  0.52984994327E+03  0.91085913848E+02 0.  0.
         23    2    4    4    0    0 -0.71406726220E+03 -0.41764057685E+03 -0.16769259064E+03  0.84885629688E+03  0.90113824832E+02 0.  0.
          1    1    3    3  502    0  0.25578480764E+03  0.93723542672E+02 -0.28365205166E+03  0.39327910786E+03  0.00000000000E+00 0. -1.
         -1    1    3    3    0  502  0.73654574751E+03  0.15361284364E+03 -0.93612759734E+03  0.12010126654E+04  0.00000000000E+00 0.  1.
         13    1    5    5    0    0 -0.32925494874E+02  0.44196187924E+02  0.11675206161E+03  0.12910629392E+03  0.00000000000E+00 0.  1.
        -13    1    5    5    0    0 -0.24533779808E+03  0.12610800261E+03  0.29069160463E+03  0.40074364935E+03  0.00000000000E+00 0. -1.
          4    1    6    6  503    0 -0.52047388771E+03 -0.32191936943E+03 -0.16090738695E+03  0.63278458845E+03  0.00000000000E+00 0. -1.
         -4    1    6    6    0  503 -0.19359337450E+03 -0.95721207417E+02 -0.67852036842E+01  0.21607170844E+03  0.00000000000E+00 0.  1.
<mgrwt>
<rscale>  0 0.28068240E+04</rscale>
<asrwt>0</asrwt>
<pdfrwt beam="1">  1        1 0.15330534E+00 0.28068240E+04</pdfrwt>
<pdfrwt beam="2">  1       -1 0.30407896E+00 0.28068240E+04</pdfrwt>
<totfact> 0.40934313E-01</totfact>
</mgrwt>
</event>
<event>
12    3  0.4773567E-008  0.1368549E+04  0.7818608E-02  0.8976904E-01
         -1   -1    0    0    0  501 -0.00000000000E+00  0.00000000000E+00  0.10080451748E+04  0.10080451748E+04  0.00000000000E+00 0.  1.
          1   -1    0    0  501    0  0.00000000000E+00 -0.00000000000E+00 -0.46449471701E+03  0.46449471701E+03  0.00000000000E+00 0. -1.
         23    2    1    2    0    0 -0.35009355001E+03 -0.23992241223E+02  0.44476194338E+03  0.57326629613E+03  0.87635258934E+02 0.  0.
        254    2    1    2    0    0  0.35009355001E+03  0.23992241223E+02  0.98788514405E+02  0.89927359567E+03  0.82206612136E+03 0.  0.
         23    2    4    4    0    0  0.59646731788E+03  0.10215609380E+03  0.21931615792E+02  0.61400948651E+03  0.10157521820E+03 0.  0.
         23    2    4    4    0    0 -0.24637376787E+03 -0.78163852580E+02  0.76856898613E+02  0.28526410916E+03  0.93053789636E+02 0.  0.
          3    1    3    3  502    0 -0.13516035258E+03  0.28733401164E+02  0.20234261485E+03  0.24502339284E+03  0.00000000000E+00 0. -1.
         -3    1    3    3    0  502 -0.21493319743E+03 -0.52725642387E+02  0.24241932853E+03  0.32824290330E+03  0.00000000000E+00 0.  1.
         13    1    5    5    0    0  0.40208769457E+02  0.35016190848E+02  0.24698839172E+01  0.53375828699E+02  0.00000000000E+00 0.  1.
        -13    1    5    5    0    0  0.55625854842E+03  0.67139902956E+02  0.19461731875E+02  0.56063365781E+03  0.00000000000E+00 0. -1.
          3    1    6    6  503    0 -0.10778792469E+03  0.49819625919E+01  0.58139196034E+02  0.12256925706E+03  0.00000000000E+00 0. -1.
         -3    1    6    6    0  503 -0.13858584318E+03 -0.83145815172E+02  0.18717702578E+02  0.16269485210E+03  0.00000000000E+00 0.  1.
<mgrwt>
<rscale>  0 0.13685491E+04</rscale>
<asrwt>0</asrwt>
<pdfrwt beam="1">  1        1 0.71460726E-01 0.13685491E+04</pdfrwt>
<pdfrwt beam="2">  1       -1 0.15508387E+00 0.13685491E+04</pdfrwt>
<totfact> 0.15275138E+01</totfact>
</mgrwt>
</event>
<event>
12    3  0.4773567E-008  0.3383829E+04  0.7818608E-02  0.8141887E-01
          2   -1    0    0  501    0  0.00000000000E+00  0.00000000000E+00  0.28116886087E+04  0.28116886087E+04  0.00000000000E+00 0. -1.
         -2   -1    0    0    0  501 -0.00000000000E+00 -0.00000000000E+00 -0.10180977903E+04  0.10180977903E+04  0.00000000000E+00 0.  1.
         23    2    1    2    0    0 -0.12820504171E+04  0.14655181436E+03 -0.17794155770E+03  0.13057658939E+04  0.90723014779E+02 0.  0.
        254    2    1    2    0    0  0.12820504171E+04 -0.14655181436E+03  0.19715323760E+04  0.25240205051E+04  0.90477007806E+03 0.  0.
         23    2    4    4    0    0  0.13938039380E+04 -0.19295389046E+03  0.18674793175E+04  0.23400432852E+04  0.91667628707E+02 0.  0.
         23    2    4    4    0    0 -0.11175352085E+03  0.46402076100E+02  0.10405305855E+03  0.18397721988E+03  0.91534563709E+02 0.  0.
          4    1    3    3  502    0 -0.95592002769E+03  0.93830190449E+02 -0.95357705129E+02  0.96523587579E+03  0.00000000000E+00 0. -1.
         -4    1    3    3    0  502 -0.32613038944E+03  0.52721623906E+02 -0.82583852568E+02  0.34053001813E+03  0.00000000000E+00 0.  1.
         13    1    5    5    0    0  0.12594388800E+04 -0.15564063717E+03  0.17143327286E+04  0.21329198308E+04  0.00000000000E+00 0. -1.
        -13    1    5    5    0    0  0.13436505797E+03 -0.37313253285E+02  0.15314658888E+03  0.20712345439E+03  0.00000000000E+00 0.  1.
          4    1    6    6  503    0 -0.11342378299E+03  0.16360670586E+02  0.56658967626E+02  0.12783921426E+03  0.00000000000E+00 0. -1.
         -4    1    6    6    0  503  0.16702621401E+01  0.30041405514E+02  0.47394090922E+02  0.56138005622E+02  0.00000000000E+00 0.  1.
<mgrwt>
<rscale>  0 0.33838286E+04</rscale>
<asrwt>0</asrwt>
<pdfrwt beam="1">  1        2 0.43256748E+00 0.33838286E+04</pdfrwt>
<pdfrwt beam="2">  1       -2 0.15663043E+00 0.33838286E+04</pdfrwt>
<totfact> 0.50341040E-01</totfact>
</mgrwt>
</event>
<event>
12    3  0.4773567E-008  0.1605023E+04  0.7818608E-02  0.8817468E-01
         -2   -1    0    0    0  501 -0.00000000000E+00  0.00000000000E+00  0.65428030974E+03  0.65428030974E+03  0.00000000000E+00 0.  1.
          2   -1    0    0  501    0  0.00000000000E+00 -0.00000000000E+00 -0.98432498689E+03  0.98432498689E+03  0.00000000000E+00 0. -1.
         23    2    1    2    0    0 -0.55721071307E+03  0.59666037055E+02 -0.18774816788E+03  0.59831179338E+03  0.93186977743E+02 0.  0.
        254    2    1    2    0    0  0.55721071307E+03 -0.59666037055E+02 -0.14229650928E+03  0.10402935032E+04  0.86482279203E+03 0.  0.
         23    2    4    4    0    0  0.42369709199E+01 -0.27450177438E+03 -0.30205325877E+03  0.41909350088E+03  0.95047437029E+02 0.  0.
         23    2    4    4    0    0  0.55297374215E+03  0.21483573732E+03  0.15975674949E+03  0.62120000237E+03  0.91830661526E+02 0.  0.
          4    1    3    3  502    0 -0.88074587295E+02  0.17013514120E+02 -0.67139597945E+02  0.11204605393E+03  0.00000000000E+00 0. -1.
         -4    1    3    3    0  502 -0.46913612577E+03  0.42652522935E+02 -0.12060856993E+03  0.48626573945E+03  0.00000000000E+00 0.  1.
         13    1    5    5    0    0  0.17154191298E+02 -0.11543203740E+02 -0.52144676888E+02  0.56094377253E+02  0.00000000000E+00 0.  1.
        -13    1    5    5    0    0 -0.12917220379E+02 -0.26295857064E+03 -0.24990858188E+03  0.36299912362E+03  0.00000000000E+00 0. -1.
          4    1    6    6  503    0  0.98861268470E+02  0.40034948077E+02 -0.68352431870E+01  0.10687875383E+03  0.00000000000E+00 0.  1.
         -4    1    6    6    0  503  0.45411247368E+03  0.17480078925E+03  0.16659199268E+03  0.51432124854E+03  0.00000000000E+00 0. -1.
<mgrwt>
<rscale>  0 0.16050227E+04</rscale>
<asrwt>0</asrwt>
<pdfrwt beam="1">  1        2 0.15143461E+00 0.16050227E+04</pdfrwt>
<pdfrwt beam="2">  1       -2 0.10065851E+00 0.16050227E+04</pdfrwt>
<totfact> 0.20101898E+01</totfact>
</mgrwt>
</event>
<event>
12    3  0.4773567E-008  0.1458544E+04  0.7818608E-02  0.8912498E-01
          1   -1    0    0  501    0  0.00000000000E+00  0.00000000000E+00  0.17970045597E+04  0.17970045597E+04  0.00000000000E+00 0. -1.
         -1   -1    0    0    0  501 -0.00000000000E+00 -0.00000000000E+00 -0.29595796493E+03  0.29595796493E+03  0.00000000000E+00 0.  1.
         23    2    1    2    0    0 -0.30507962259E+03 -0.26500241701E+03  0.73311132704E+03  0.84217443164E+03  0.92226342871E+02 0.  0.
        254    2    1    2    0    0  0.30507962259E+03  0.26500241701E+03  0.76793526775E+03  0.12507880930E+04  0.90080320882E+03 0.  0.
         23    2    4    4    0    0 -0.93048359750E+02 -0.23986493067E+03  0.45339119089E+03  0.52896406664E+03  0.89700778188E+02 0.  0.
         23    2    4    4    0    0  0.39812798234E+03  0.50486734768E+03  0.31454407686E+03  0.72182402637E+03  0.93247089404E+02 0.  0.
          4    1    3    3  502    0 -0.22455331793E+03 -0.13885946126E+03  0.44204015875E+03  0.51488410785E+03  0.00000000000E+00 0. -1.
         -4    1    3    3    0  502 -0.80526304659E+02 -0.12614295575E+03  0.29107116830E+03  0.32729032378E+03  0.00000000000E+00 0.  1.
         13    1    5    5    0    0 -0.68123553744E+02 -0.20452293285E+03  0.29885004980E+03  0.36848582184E+03  0.00000000000E+00 0. -1.
        -13    1    5    5    0    0 -0.24924806005E+02 -0.35341997820E+02  0.15454114109E+03  0.16047824480E+03  0.00000000000E+00 0.  1.
          1    1    6    6  503    0  0.17453910152E+03  0.18696903103E+03  0.80515349026E+02  0.26814928296E+03  0.00000000000E+00 0. -1.
         -1    1    6    6    0  503  0.22358888081E+03  0.31789831665E+03  0.23402872784E+03  0.45367474341E+03  0.00000000000E+00 0.  1.
<mgrwt>
<rscale>  0 0.14585442E+04</rscale>
<asrwt>0</asrwt>
<pdfrwt beam="1">  1        1 0.27646223E+00 0.14585442E+04</pdfrwt>
<pdfrwt beam="2">  1       -1 0.45531996E-01 0.14585442E+04</pdfrwt>
<totfact> 0.19037486E+01</totfact>
</mgrwt>
</event>
<event>
12    3  0.4773567E-008  0.1548517E+04  0.7818608E-02  0.8852816E-01
          1   -1    0    0  501    0  0.00000000000E+00  0.00000000000E+00  0.35742911873E+03  0.35742911873E+03  0.00000000000E+00 0. -1.
         -1   -1    0    0    0  501 -0.00000000000E+00 -0.00000000000E+00 -0.16771890982E+04  0.16771890982E+04  0.00000000000E+00 0.  1.
         23    2    1    2    0    0 -0.35976149999E+02  0.22113570127E+03 -0.10421476879E+04  0.10700909244E+04  0.93954783456E+02 0.  0.
        254    2    1    2    0    0  0.35976149999E+02 -0.22113570127E+03 -0.27761229152E+03  0.96452729249E+03  0.89613003063E+03 0.  0.
         23    2    4    4    0    0 -0.14305368735E+03  0.85340694084E+02  0.25554016928E+03  0.31792490470E+03  0.89599527780E+02 0.  0.
         23    2    4    4    0    0  0.17902983735E+03 -0.30647639536E+03 -0.53315246080E+03  0.64660238779E+03  0.88677155282E+02 0.  0.
          4    1    3    3  502    0  0.12728767473E+02  0.35809637187E+02 -0.74288014988E+02  0.83444956754E+02  0.00000000000E+00 0.  1.
         -4    1    3    3    0  502 -0.48704917472E+02  0.18532606409E+03 -0.96785967292E+03  0.98664596765E+03  0.00000000000E+00 0. -1.
         13    1    5    5    0    0 -0.12276787774E+03  0.62602703200E+02  0.25203755224E+03  0.28725246386E+03  0.00000000000E+00 0.  1.
        -13    1    5    5    0    0 -0.20285809604E+02  0.22737990884E+02  0.35026170412E+01  0.30672440836E+02  0.00000000000E+00 0. -1.
          1    1    6    6  503    0  0.60284230024E+02 -0.11019439577E+03 -0.11829772787E+03  0.17254375001E+03  0.00000000000E+00 0. -1.
         -1    1    6    6    0  503  0.11874560732E+03 -0.19628199959E+03 -0.41485473293E+03  0.47405863778E+03  0.00000000000E+00 0.  1.
<mgrwt>
<rscale>  0 0.15485170E+04</rscale>
<asrwt>0</asrwt>
<pdfrwt beam="1">  1        1 0.54989096E-01 0.15485170E+04</pdfrwt>
<pdfrwt beam="2">  1       -1 0.25802909E+00 0.15485170E+04</pdfrwt>
<totfact> 0.41511542E+00</totfact>
</mgrwt>
</event>
<event>
12    3  0.4773567E-008  0.2418234E+04  0.7818608E-02  0.8432708E-01
          2   -1    0    0  501    0  0.00000000000E+00  0.00000000000E+00  0.21880836584E+04  0.21880836584E+04  0.00000000000E+00 0. -1.
         -2   -1    0    0    0  501 -0.00000000000E+00 -0.00000000000E+00 -0.66814816762E+03  0.66814816762E+03  0.00000000000E+00 0.  1.
         23    2    1    2    0    0  0.63342481264E+02 -0.15782879397E+03  0.18659247742E+04  0.18758071830E+04  0.89750356712E+02 0.  0.
        254    2    1    2    0    0 -0.63342481264E+02  0.15782879397E+03 -0.34598928339E+03  0.98042464309E+03  0.90144422923E+03 0.  0.
         23    2    4    4    0    0 -0.30484873217E+03  0.15723969870E+03 -0.54594005055E+03  0.65119142880E+03  0.91338194592E+02 0.  0.
         23    2    4    4    0    0  0.24150625090E+03  0.58909526582E+00  0.19995076716E+03  0.32923321429E+03  0.10044194266E+03 0.  0.
          1    1    3    3  502    0  0.23105059479E+01 -0.11610539475E+03  0.12744455438E+04  0.12797254570E+04  0.00000000000E+00 0. -1.
         -1    1    3    3    0  502  0.61031975316E+02 -0.41723399219E+02  0.59147923042E+03  0.59608172600E+03  0.00000000000E+00 0.  1.
         13    1    5    5    0    0 -0.61006158984E+02 -0.59777829987E+01 -0.85534648246E+02  0.10523146570E+03  0.00000000000E+00 0.  1.
        -13    1    5    5    0    0 -0.24384257318E+03  0.16321748170E+03 -0.46040540230E+03  0.54595996309E+03  0.00000000000E+00 0. -1.
          4    1    6    6  503    0  0.11416374924E+03  0.43076682044E+02  0.62471639037E+02  0.13708270446E+03  0.00000000000E+00 0. -1.
         -4    1    6    6    0  503  0.12734250166E+03 -0.42487586778E+02  0.13747912813E+03  0.19215050983E+03  0.00000000000E+00 0.  1.
<mgrwt>
<rscale>  0 0.24182341E+04</rscale>
<asrwt>0</asrwt>
<pdfrwt beam="1">  1        2 0.33662825E+00 0.24182341E+04</pdfrwt>
<pdfrwt beam="2">  1       -2 0.10279203E+00 0.24182341E+04</pdfrwt>
<totfact> 0.36417570E+00</totfact>
</mgrwt>
</event>
<event>
12    3  0.4773567E-008  0.1766366E+04  0.7818608E-02  0.8724393E-01
         -2   -1    0    0    0  501 -0.00000000000E+00  0.00000000000E+00  0.34501155231E+03  0.34501155231E+03  0.00000000000E+00 0.  1.
          2   -1    0    0  501    0  0.00000000000E+00 -0.00000000000E+00 -0.22608298717E+04  0.22608298717E+04  0.00000000000E+00 0. -1.
         23    2    1    2    0    0 -0.30738482559E+03  0.44616598100E+02 -0.15122336081E+04  0.15465544870E+04  0.92218349725E+02 0.  0.
        254    2    1    2    0    0  0.30738482559E+03 -0.44616598100E+02 -0.40358471128E+03  0.10592869370E+04  0.92883374393E+03 0.  0.
         23    2    4    4    0    0  0.13451141695E+03 -0.35692376261E+03 -0.53883373768E+03  0.66687972783E+03  0.94333880033E+02 0.  0.
         23    2    4    4    0    0  0.17287340865E+03  0.31230716451E+03  0.13524902641E+03  0.39240720915E+03  0.90940300363E+02 0.  0.
          2    1    3    3  502    0 -0.26951197808E+03  0.55610289725E+02 -0.11636325259E+04  0.11957298465E+04  0.00000000000E+00 0. -1.
         -2    1    3    3    0  502 -0.37872847513E+02 -0.10993691626E+02 -0.34860108221E+03  0.35082464046E+03  0.00000000000E+00 0.  1.
         13    1    5    5    0    0  0.55463901572E+02 -0.45904042447E+02 -0.96345811385E+02  0.12027443977E+03  0.00000000000E+00 0. -1.
        -13    1    5    5    0    0  0.79047515376E+02 -0.31101972016E+03 -0.44248792630E+03  0.54660528806E+03  0.00000000000E+00 0.  1.
          4    1    6    6  503    0 -0.72682620279E+01  0.17990480982E+02  0.21758311448E+02  0.29153201470E+02  0.00000000000E+00 0. -1.
         -4    1    6    6    0  503  0.18014167067E+03  0.29431668353E+03  0.11349071496E+03  0.36325400768E+03  0.00000000000E+00 0.  1.
<mgrwt>
<rscale>  0 0.17663662E+04</rscale>
<asrwt>0</asrwt>
<pdfrwt beam="1">  1        2 0.34781998E+00 0.17663662E+04</pdfrwt>
<pdfrwt beam="2">  1       -2 0.53078700E-01 0.17663662E+04</pdfrwt>
<totfact> 0.15124492E+01</totfact>
</mgrwt>
</event>
<event>
12    3  0.4773567E-008  0.1082693E+04  0.7818608E-02  0.9222226E-01
          1   -1    0    0  501    0  0.00000000000E+00  0.00000000000E+00  0.30779940678E+03  0.30779940678E+03  0.00000000000E+00 0. -1.
         -1   -1    0    0    0  501 -0.00000000000E+00 -0.00000000000E+00 -0.95210078461E+03  0.95210078461E+03  0.00000000000E+00 0.  1.
         23    2    1    2    0    0 -0.91121973949E+02 -0.60371044426E+02  0.13366637258E+02  0.13728962670E+03  0.81987178670E+02 0.  0.
        254    2    1    2    0    0  0.91121973949E+02  0.60371044426E+02 -0.65766801509E+03  0.11226105647E+04  0.90320506239E+03 0.  0.
         23    2    4    4    0    0 -0.32631314372E+03  0.26681264686E+03 -0.34057467873E+03  0.54999453404E+03  0.93987336347E+02 0.  0.
         23    2    4    4    0    0  0.41743511767E+03 -0.20644160243E+03 -0.31709333636E+03  0.57261603065E+03  0.10232654551E+03 0.  0.
          3    1    3    3  502    0 -0.89249522778E+02 -0.77168676317E+02  0.18933888521E+02  0.11949466120E+03  0.00000000000E+00 0. -1.
         -3    1    3    3    0  502 -0.18724511707E+01  0.16797631891E+02 -0.55672512623E+01  0.17794965500E+02  0.00000000000E+00 0.  1.
         13    1    5    5    0    0 -0.31522722928E+03  0.24419346233E+03 -0.34119405856E+03  0.52479714054E+03  0.00000000000E+00 0. -1.
        -13    1    5    5    0    0 -0.11085914434E+02  0.22619184532E+02  0.61937982695E+00  0.25197393498E+02  0.00000000000E+00 0.  1.
          3    1    6    6  503    0  0.22397471442E+03 -0.56377067184E+02 -0.13539428936E+03  0.26772123560E+03  0.00000000000E+00 0. -1.
         -3    1    6    6    0  503  0.19346040325E+03 -0.15006453525E+03 -0.18169904700E+03  0.30489479504E+03  0.00000000000E+00 0.  1.
<mgrwt>
<rscale>  0 0.10826930E+04</rscale>
<asrwt>0</asrwt>
<pdfrwt beam="1">  1        1 0.47353755E-01 0.10826930E+04</pdfrwt>
<pdfrwt beam="2">  1       -1 0.14647704E+00 0.10826930E+04</pdfrwt>
<totfact> 0.31458446E+01</totfact>
</mgrwt>
</event>
<event>
12    3  0.4773567E-008  0.1829517E+04  0.7818608E-02  0.8690758E-01
         -1   -1    0    0    0  501 -0.00000000000E+00  0.00000000000E+00  0.11668050558E+04  0.11668050558E+04  0.00000000000E+00 0.  1.
          1   -1    0    0  501    0  0.00000000000E+00 -0.00000000000E+00 -0.71715783076E+03  0.71715783076E+03  0.00000000000E+00 0. -1.
         23    2    1    2    0    0  0.39157787777E+03 -0.42297967418E+03  0.55424721163E+03  0.80832643854E+03  0.11813814169E+03 0.  0.
        254    2    1    2    0    0 -0.39157787777E+03  0.42297967418E+03 -0.10459998661E+03  0.10756364480E+04  0.90211283770E+03 0.  0.
         23    2    4    4    0    0 -0.40312712228E+03  0.31719035576E+03  0.33125789693E+03  0.61719439111E+03  0.89866142871E+02 0.  0.
         23    2    4    4    0    0  0.11549244508E+02  0.10578931842E+03 -0.43585788354E+03  0.45844205689E+03  0.94192674591E+02 0.  0.
          2    1    3    3  502    0  0.42894485434E+02 -0.30384345906E+02  0.12829226927E+02  0.54108542952E+02  0.00000000000E+00 0. -1.
         -2    1    3    3    0  502  0.34868339233E+03 -0.39259532827E+03  0.54141798471E+03  0.75421789559E+03  0.00000000000E+00 0.  1.
         13    1    5    5    0    0 -0.75339607903E+02  0.10875739063E+03  0.86405713513E+02  0.15801953633E+03  0.00000000000E+00 0. -1.
        -13    1    5    5    0    0 -0.32778751437E+03  0.20843296513E+03  0.24485218341E+03  0.45917485477E+03  0.00000000000E+00 0.  1.
          4    1    6    6  503    0  0.52777678101E+02  0.59695197490E+02 -0.26593008917E+03  0.27761090078E+03  0.00000000000E+00 0.  1.
         -4    1    6    6    0  503 -0.41228433593E+02  0.46094120926E+02 -0.16992779437E+03  0.18083115611E+03  0.00000000000E+00 0. -1.
<mgrwt>
<rscale>  0 0.18295173E+04</rscale>
<asrwt>0</asrwt>
<pdfrwt beam="1">  1        1 0.11033197E+00 0.18295173E+04</pdfrwt>
<pdfrwt beam="2">  1       -1 0.17950847E+00 0.18295173E+04</pdfrwt>
<totfact> 0.51840617E+00</totfact>
</mgrwt>
</event>
<event>
12    3  0.4773567E-008  0.2889817E+04  0.7818608E-02  0.8275914E-01
         -1   -1    0    0    0  501 -0.00000000000E+00  0.00000000000E+00  0.65221602921E+03  0.65221602921E+03  0.00000000000E+00 0.  1.
          1   -1    0    0  501    0  0.00000000000E+00 -0.00000000000E+00 -0.32010271444E+04  0.32010271444E+04  0.00000000000E+00 0. -1.
         23    2    1    2    0    0 -0.16685175064E+03  0.69137770422E+03 -0.26102679296E+04  0.27067915498E+04  0.85902230265E+02 0.  0.
        254    2    1    2    0    0  0.16685175064E+03 -0.69137770422E+03  0.61456814459E+02  0.11464516238E+04  0.89706841934E+03 0.  0.
         23    2    4    4    0    0  0.18297742242E+03  0.11057076038E+03  0.22210997092E+03  0.32201570474E+03  0.93030343167E+02 0.  0.
         23    2    4    4    0    0 -0.16125671771E+02 -0.80194846460E+03 -0.16065315646E+03  0.82443591902E+03  0.10248790521E+03 0.  0.
          2    1    3    3  502    0 -0.14786359348E+03  0.60771798193E+03 -0.21745720974E+04  0.22627303407E+04  0.00000000000E+00 0. -1.
         -2    1    3    3    0  502 -0.18988157159E+02  0.83659722294E+02 -0.43569583223E+03  0.44406120914E+03  0.00000000000E+00 0.  1.
         13    1    5    5    0    0  0.11175634165E+03  0.15936981742E+02  0.12854861384E+03  0.17107955286E+03  0.00000000000E+00 0. -1.
        -13    1    5    5    0    0  0.71221080762E+02  0.94633778640E+02  0.93561357082E+02  0.15093615188E+03  0.00000000000E+00 0.  1.
          1    1    6    6  503    0  0.22572282669E+02 -0.52955359810E+03 -0.69351217147E+02  0.53455225425E+03  0.00000000000E+00 0.  1.
         -1    1    6    6    0  503 -0.38697954441E+02 -0.27239486651E+03 -0.91301939317E+02  0.28988366477E+03  0.00000000000E+00 0. -1.
<mgrwt>
<rscale>  0 0.28898174E+04</rscale>
<asrwt>0</asrwt>
<pdfrwt beam="1">  1        1 0.49246571E+00 0.28898174E+04</pdfrwt>
<pdfrwt beam="2">  1       -1 0.10034093E+00 0.28898174E+04</pdfrwt>
<totfact> 0.34451114E-01</totfact>
</mgrwt>
</event>
<event>
12    3  0.4773567E-008  0.3285498E+04  0.7818608E-02  0.8166595E-01
         -3   -1    0    0    0  501 -0.00000000000E+00  0.00000000000E+00  0.22047804555E+04  0.22047804555E+04  0.00000000000E+00 0.  1.
          3   -1    0    0  501    0  0.00000000000E+00 -0.00000000000E+00 -0.12239878514E+04  0.12239878514E+04  0.00000000000E+00 0. -1.
         23    2    1    2    0    0 -0.61898606619E+03  0.22074188710E+03  0.18877547989E+04  0.20008642563E+04  0.89268475344E+02 0.  0.
        254    2    1    2    0    0  0.61898606619E+03 -0.22074188710E+03 -0.90696219474E+03  0.14279040505E+04  0.88569680137E+03 0.  0.
         23    2    4    4    0    0  0.75370539816E+02 -0.13774999711E+03  0.14858003548E+03  0.23431493358E+03  0.90397351606E+02 0.  0.
         23    2    4    4    0    0  0.54361552637E+03 -0.82991889989E+02 -0.10555422302E+04  0.11935891169E+04  0.89889298520E+02 0.  0.
          4    1    3    3  502    0 -0.16483860569E+02  0.13895252635E+02  0.11799699231E+03  0.11995034764E+03  0.00000000000E+00 0. -1.
         -4    1    3    3    0  502 -0.60250220562E+03  0.20684663447E+03  0.17697578066E+04  0.18809139087E+04  0.00000000000E+00 0.  1.
         13    1    5    5    0    0  0.67779342982E+02 -0.53868299175E+02  0.11428286767E+03  0.14337505653E+03  0.00000000000E+00 0.  1.
        -13    1    5    5    0    0  0.75911968345E+01 -0.83881697939E+02  0.34297167811E+02  0.90939877053E+02  0.00000000000E+00 0. -1.
          3    1    6    6  503    0  0.11969798020E+03 -0.24925498842E+02 -0.32122757537E+03  0.34370924069E+03  0.00000000000E+00 0. -1.
         -3    1    6    6    0  503  0.42391754617E+03 -0.58066391146E+02 -0.73431465485E+03  0.84987987626E+03  0.00000000000E+00 0.  1.
<mgrwt>
<rscale>  0 0.32854981E+04</rscale>
<asrwt>0</asrwt>
<pdfrwt beam="1">  1        3 0.18830582E+00 0.32854981E+04</pdfrwt>
<pdfrwt beam="2">  1       -3 0.33919699E+00 0.32854981E+04</pdfrwt>
<totfact> 0.87018937E-03</totfact>
</mgrwt>
</event>
<event>
12    3  0.4773567E-008  0.1514887E+04  0.7818608E-02  0.8874613E-01
          1   -1    0    0  501    0  0.00000000000E+00  0.00000000000E+00  0.72427717300E+03  0.72427717300E+03  0.00000000000E+00 0. -1.
         -1   -1    0    0    0  501 -0.00000000000E+00 -0.00000000000E+00 -0.79212825721E+03  0.79212825721E+03  0.00000000000E+00 0.  1.
         23    2    1    2    0    0 -0.33406632952E+00 -0.42870227702E+03 -0.26402681257E+03  0.51236095459E+03  0.94962287840E+02 0.  0.
        254    2    1    2    0    0  0.33406632952E+00  0.42870227702E+03  0.19617572837E+03  0.10040444756E+04  0.88647314607E+03 0.  0.
         23    2    4    4    0    0  0.26335872227E+03  0.12629935122E+03 -0.25051541931E+03  0.39618358452E+03  0.94308613738E+02 0.  0.
         23    2    4    4    0    0 -0.26302465594E+03  0.30240292580E+03  0.44669114767E+03  0.60786089110E+03  0.96604256387E+02 0.  0.
          2    1    3    3  502    0 -0.96691561679E+01 -0.30875554669E+03 -0.23623404581E+03  0.38888302173E+03  0.00000000000E+00 0.  1.
         -2    1    3    3    0  502  0.93350898383E+01 -0.11994673033E+03 -0.27792766764E+02  0.12347793286E+03  0.00000000000E+00 0. -1.
         13    1    5    5    0    0  0.93338968311E+02  0.61801243232E+02 -0.15378467436E+03  0.19021378167E+03  0.00000000000E+00 0. -1.
        -13    1    5    5    0    0  0.17001975396E+03  0.64498107985E+02 -0.96730744944E+02  0.20596980285E+03  0.00000000000E+00 0.  1.
          3    1    6    6  503    0 -0.63393254975E+02  0.12826295465E+03  0.19975741139E+03  0.24570940909E+03  0.00000000000E+00 0. -1.
         -3    1    6    6    0  503 -0.19963140096E+03  0.17413997115E+03  0.24693373628E+03  0.36215148200E+03  0.00000000000E+00 0.  1.
<mgrwt>
<rscale>  0 0.15148867E+04</rscale>
<asrwt>0</asrwt>
<pdfrwt beam="1">  1        1 0.11142726E+00 0.15148867E+04</pdfrwt>
<pdfrwt beam="2">  1       -1 0.12186589E+00 0.15148867E+04</pdfrwt>
<totfact> 0.14894249E+01</totfact>
</mgrwt>
</event>
<event>
12    3  0.4773567E-008  0.2107721E+04  0.7818608E-02  0.8557850E-01
         -1   -1    0    0    0  501 -0.00000000000E+00  0.00000000000E+00  0.49882573540E+03  0.49882573540E+03  0.00000000000E+00 0.  1.
          1   -1    0    0  501    0  0.00000000000E+00 -0.00000000000E+00 -0.22264718762E+04  0.22264718762E+04  0.00000000000E+00 0. -1.
         23    2    1    2    0    0 -0.40112260503E+03 -0.28236080215E+03  0.15032494430E+03  0.52203597719E+03  0.96420981844E+02 0.  0.
        254    2    1    2    0    0  0.40112260503E+03  0.28236080215E+03 -0.18779710851E+04  0.22032616344E+04  0.10425734824E+04 0.  0.
         23    2    4    4    0    0  0.42693518748E+02  0.39421716130E+03 -0.17488702585E+04  0.17956778712E+04  0.93176870341E+02 0.  0.
         23    2    4    4    0    0  0.35842908628E+03 -0.11185635915E+03 -0.12910082664E+03  0.40758376326E+03  0.92055666109E+02 0.  0.
          3    1    3    3  502    0 -0.19960994642E+03 -0.10007173781E+03  0.10425312352E+03  0.24642888869E+03  0.00000000000E+00 0. -1.
         -3    1    3    3    0  502 -0.20151265861E+03 -0.18228906434E+03  0.46071820779E+02  0.27560708849E+03  0.00000000000E+00 0.  1.
         13    1    5    5    0    0  0.37340646706E+02  0.35515006534E+03 -0.14099175550E+04  0.14544392063E+04  0.00000000000E+00 0. -1.
        -13    1    5    5    0    0  0.53528720415E+01  0.39067095958E+02 -0.33895270346E+03  0.34123866488E+03  0.00000000000E+00 0.  1.
          3    1    6    6  503    0  0.34040210075E+03 -0.12628302605E+03 -0.12586350719E+03  0.38426893617E+03  0.00000000000E+00 0. -1.
         -3    1    6    6    0  503  0.18026985531E+02  0.14426666901E+02 -0.32373194544E+01  0.23314827094E+02  0.00000000000E+00 0.  1.
<mgrwt>
<rscale>  0 0.21077205E+04</rscale>
<asrwt>0</asrwt>
<pdfrwt beam="1">  1        1 0.34253414E+00 0.21077205E+04</pdfrwt>
<pdfrwt beam="2">  1       -1 0.76742421E-01 0.21077205E+04</pdfrwt>
<totfact> 0.32719003E+00</totfact>
</mgrwt>
</event>
<event>
12    3  0.4773567E-008  0.1642733E+04  0.7818608E-02  0.8794717E-01
         -2   -1    0    0    0  501 -0.00000000000E+00  0.00000000000E+00  0.23059839335E+03  0.23059839335E+03  0.00000000000E+00 0.  1.
          2   -1    0    0  501    0  0.00000000000E+00 -0.00000000000E+00 -0.29256183491E+04  0.29256183491E+04  0.00000000000E+00 0. -1.
         23    2    1    2    0    0  0.19570694465E+03  0.52049743285E+03 -0.12252559459E+04  0.13485760421E+04  0.90478851701E+02 0.  0.
        254    2    1    2    0    0 -0.19570694465E+03 -0.52049743285E+03 -0.14697640099E+04  0.18076407004E+04  0.89338674220E+03 0.  0.
         23    2    4    4    0    0 -0.25712525287E+03 -0.22975260856E+03 -0.57352612852E+02  0.36154116635E+03  0.92320290102E+02 0.  0.
         23    2    4    4    0    0  0.61418308226E+02 -0.29074482430E+03 -0.14124113971E+04  0.14460995341E+04  0.89404398019E+02 0.  0.
          3    1    3    3  502    0  0.17485101560E+03  0.34987517952E+03 -0.87312437832E+03  0.95672968958E+03  0.00000000000E+00 0. -1.
         -3    1    3    3    0  502  0.20855929050E+02  0.17062225333E+03 -0.35213156754E+03  0.39184635250E+03  0.00000000000E+00 0.  1.
         13    1    5    5    0    0 -0.21621988237E+03 -0.22358100457E+03 -0.68944541186E+02  0.31857942950E+03  0.00000000000E+00 0. -1.
        -13    1    5    5    0    0 -0.40905370499E+02 -0.61716039864E+01  0.11591928334E+02  0.42961736859E+02  0.00000000000E+00 0.  1.
          1    1    6    6  503    0  0.53184354664E+02 -0.26024423204E+03 -0.13528302011E+04  0.13786606503E+04  0.00000000000E+00 0. -1.
         -1    1    6    6    0  503  0.82339535618E+01 -0.30500592258E+02 -0.59581196019E+02  0.67438883728E+02  0.00000000000E+00 0.  1.
<mgrwt>
<rscale>  0 0.16427330E+04</rscale>
<asrwt>0</asrwt>
<pdfrwt beam="1">  1        2 0.45009515E+00 0.16427330E+04</pdfrwt>
<pdfrwt beam="2">  1       -2 0.35476674E-01 0.16427330E+04</pdfrwt>
<totfact> 0.13888109E+01</totfact>
</mgrwt>
</event>
<event>
12    3  0.4773567E-008  0.2148139E+04  0.7818608E-02  0.8540329E-01
          1   -1    0    0  501    0  0.00000000000E+00  0.00000000000E+00  0.24960096628E+04  0.24960096628E+04  0.00000000000E+00 0. -1.
         -1   -1    0    0    0  501 -0.00000000000E+00 -0.00000000000E+00 -0.46218762878E+03  0.46218762878E+03  0.00000000000E+00 0.  1.
         23    2    1    2    0    0 -0.35428136867E+03  0.65561937605E+03  0.19792255394E+03  0.77634740270E+03  0.90498054631E+02 0.  0.
        254    2    1    2    0    0  0.35428136867E+03 -0.65561937605E+03  0.18358994801E+04  0.21818498889E+04  0.91355896482E+03 0.  0.
         23    2    4    4    0    0  0.54278700273E+03 -0.72949191817E+03  0.16719316726E+04  0.19054605753E+04  0.92996221354E+02 0.  0.
         23    2    4    4    0    0 -0.18850563406E+03  0.73872542118E+02  0.16396780757E+03  0.27638931365E+03  0.92271795411E+02 0.  0.
          4    1    3    3  502    0 -0.55554327289E+02  0.68804379769E+02  0.49529930333E+02  0.10135847254E+03  0.00000000000E+00 0. -1.
         -4    1    3    3    0  502 -0.29872704138E+03  0.58681499628E+03  0.14839262361E+03  0.67498893017E+03  0.00000000000E+00 0.  1.
         13    1    5    5    0    0  0.46039147761E+03 -0.55617259806E+03  0.13324928755E+04  0.15155281372E+04  0.00000000000E+00 0. -1.
        -13    1    5    5    0    0  0.82395525125E+02 -0.17331932011E+03  0.33943879709E+03  0.38993243806E+03  0.00000000000E+00 0.  1.
          2    1    6    6  503    0 -0.10915342254E+03  0.16284443826E+01  0.11457711492E+03  0.15825623762E+03  0.00000000000E+00 0. -1.
         -2    1    6    6    0  503 -0.79352211523E+02  0.72244097735E+02  0.49390692649E+02  0.11813307603E+03  0.00000000000E+00 0.  1.
<mgrwt>
<rscale>  0 0.21481385E+04</rscale>
<asrwt>0</asrwt>
<pdfrwt beam="1">  1        1 0.38400148E+00 0.21481385E+04</pdfrwt>
<pdfrwt beam="2">  1       -1 0.71105791E-01 0.21481385E+04</pdfrwt>
<totfact> 0.24947166E+00</totfact>
</mgrwt>
</event>
<event>
12    3  0.4773567E-008  0.2653345E+04  0.7818608E-02  0.8350304E-01
          1   -1    0    0  501    0  0.00000000000E+00  0.00000000000E+00  0.29384337492E+04  0.29384337492E+04  0.00000000000E+00 0. -1.
         -1   -1    0    0    0  501 -0.00000000000E+00 -0.00000000000E+00 -0.59897888773E+03  0.59897888773E+03  0.00000000000E+00 0.  1.
         23    2    1    2    0    0  0.43418886593E+03 -0.56099351628E+03  0.22826330119E+04  0.23920117417E+04  0.89849922889E+02 0.  0.
        254    2    1    2    0    0 -0.43418886593E+03  0.56099351628E+03  0.56821849507E+02  0.11454008952E+04  0.89748581691E+03 0.  0.
         23    2    4    4    0    0 -0.29731050728E+03  0.36646799004E+03 -0.39785663048E+03  0.62437515056E+03  0.94138752696E+02 0.  0.
         23    2    4    4    0    0 -0.13687835866E+03  0.19452552624E+03  0.45467847999E+03  0.52102574465E+03  0.90329624142E+02 0.  0.
          4    1    3    3  502    0  0.23721232207E+02 -0.15635954689E+02  0.51646625220E+02  0.58945346152E+02  0.00000000000E+00 0.  1.
         -4    1    3    3    0  502  0.41046763373E+03 -0.54535756159E+03  0.22309863867E+04  0.23330663955E+04  0.00000000000E+00 0. -1.
         13    1    5    5    0    0 -0.19451745008E+02  0.63267333191E+02 -0.84495976656E+02  0.10733450472E+03  0.00000000000E+00 0.  1.
        -13    1    5    5    0    0 -0.27785876227E+03  0.30320065685E+03 -0.31336065382E+03  0.51704064584E+03  0.00000000000E+00 0. -1.
          4    1    6    6  503    0 -0.37284872019E+02  0.53155464279E+02  0.22086755039E+03  0.23021324870E+03  0.00000000000E+00 0. -1.
         -4    1    6    6    0  503 -0.99593486638E+02  0.14137006196E+03  0.23381092960E+03  0.29081249595E+03  0.00000000000E+00 0.  1.
<mgrwt>
<rscale>  0 0.26533449E+04</rscale>
<asrwt>0</asrwt>
<pdfrwt beam="1">  1        1 0.45206672E+00 0.26533449E+04</pdfrwt>
<pdfrwt beam="2">  1       -1 0.92150600E-01 0.26533449E+04</pdfrwt>
<totfact> 0.66567606E-01</totfact>
</mgrwt>
</event>
<event>
12    3  0.4773567E-008  0.1551341E+04  0.7818608E-02  0.8851012E-01
          2   -1    0    0  501    0  0.00000000000E+00  0.00000000000E+00  0.45276178128E+03  0.45276178128E+03  0.00000000000E+00 0. -1.
         -2   -1    0    0    0  501 -0.00000000000E+00 -0.00000000000E+00 -0.13288773660E+04  0.13288773660E+04  0.00000000000E+00 0.  1.
         23    2    1    2    0    0 -0.36068632673E+03 -0.29845216567E+03 -0.58393517409E+02  0.48173042717E+03  0.97396509685E+02 0.  0.
        254    2    1    2    0    0  0.36068632673E+03  0.29845216567E+03 -0.81772206732E+03  0.12999087201E+04  0.89550264084E+03 0.  0.
         23    2    4    4    0    0  0.16156488833E+03  0.19757254778E+03 -0.97515834260E+03  0.10122020324E+04  0.92092542914E+02 0.  0.
         23    2    4    4    0    0  0.19912143840E+03  0.10087961789E+03  0.15743627529E+03  0.28770668772E+03  0.90348839745E+02 0.  0.
          3    1    3    3  502    0  0.10824085602E+01 -0.10844889240E+01 -0.10924603061E+02  0.11031531016E+02  0.00000000000E+00 0.  1.
         -3    1    3    3    0  502 -0.36176873529E+03 -0.29736767674E+03 -0.47468914348E+02  0.47069889615E+03  0.00000000000E+00 0. -1.
         13    1    5    5    0    0  0.14065860842E+03  0.17018696199E+03 -0.92735695242E+03  0.95327821928E+03  0.00000000000E+00 0.  1.
        -13    1    5    5    0    0  0.20906279909E+02  0.27385585786E+02 -0.47801390185E+02  0.58923813116E+02  0.00000000000E+00 0. -1.
          4    1    6    6  503    0  0.71647350843E+02  0.86555473571E+02  0.68115521214E+02  0.13139603159E+03  0.00000000000E+00 0. -1.
         -4    1    6    6    0  503  0.12747408756E+03  0.14324144319E+02  0.89320754072E+02  0.15631065612E+03  0.00000000000E+00 0.  1.
<mgrwt>
<rscale>  0 0.15513412E+04</rscale>
<asrwt>0</asrwt>
<pdfrwt beam="1">  1        2 0.69655660E-01 0.15513412E+04</pdfrwt>
<pdfrwt beam="2">  1       -2 0.20444267E+00 0.15513412E+04</pdfrwt>
<totfact> 0.82606603E+00</totfact>
</mgrwt>
</event>
<event>
12    3  0.5128663E-008  0.2323715E+04  0.7818608E-02  0.8468629E-01
         -1   -1    0    0    0  501 -0.00000000000E+00  0.00000000000E+00  0.99903512761E+03  0.99903512761E+03  0.00000000000E+00 0.  1.
          1   -1    0    0  501    0  0.00000000000E+00 -0.00000000000E+00 -0.13512162473E+04  0.13512162473E+04  0.00000000000E+00 0. -1.
         23    2    1    2    0    0  0.37951285128E+03 -0.77229858356E+03 -0.64446537219E+03  0.10789294050E+04  0.90983177459E+02 0.  0.
        254    2    1    2    0    0 -0.37951285128E+03  0.77229858356E+03  0.29228425253E+03  0.12713219699E+04  0.88901876266E+03 0.  0.
         23    2    4    4    0    0 -0.44116572131E+03  0.19471592423E+03  0.44623908876E+03  0.66343851840E+03  0.92086147470E+02 0.  0.
         23    2    4    4    0    0  0.61652870025E+02  0.57758265932E+03 -0.15395483623E+03  0.60788345147E+03  0.91746358188E+02 0.  0.
          3    1    3    3  502    0  0.33859554385E+03 -0.64998543760E+03 -0.51181927953E+03  0.89391665512E+03  0.00000000000E+00 0. -1.
         -3    1    3    3    0  502  0.40917307434E+02 -0.12231314596E+03 -0.13264609266E+03  0.18501274989E+03  0.00000000000E+00 0.  1.
         13    1    5    5    0    0 -0.28352652964E+03  0.75827939687E+02  0.26562248911E+03  0.39584400485E+03  0.00000000000E+00 0. -1.
        -13    1    5    5    0    0 -0.15763919166E+03  0.11888798455E+03  0.18061659965E+03  0.26759451355E+03  0.00000000000E+00 0.  1.
          1    1    6    6  503    0  0.59187559926E+02  0.49387544355E+03 -0.97465420599E+02  0.50686845355E+03  0.00000000000E+00 0. -1.
         -1    1    6    6    0  503  0.24653100983E+01  0.83707215768E+02 -0.56489415633E+02  0.10101499792E+03  0.00000000000E+00 0.  1.
<mgrwt>
<rscale>  0 0.23237147E+04</rscale>
<asrwt>0</asrwt>
<pdfrwt beam="1">  1        1 0.20787942E+00 0.23237147E+04</pdfrwt>
<pdfrwt beam="2">  1       -1 0.15369771E+00 0.23237147E+04</pdfrwt>
<totfact> 0.24502208E+00</totfact>
</mgrwt>
</event>
<event>
12    3  0.4773567E-008  0.1935580E+04  0.7818608E-02  0.8637346E-01
          2   -1    0    0  501    0  0.00000000000E+00  0.00000000000E+00  0.37490086518E+04  0.37490086518E+04  0.00000000000E+00 0. -1.
         -2   -1    0    0    0  501 -0.00000000000E+00 -0.00000000000E+00 -0.24983064727E+03  0.24983064727E+03  0.00000000000E+00 0.  1.
         23    2    1    2    0    0  0.66668767670E+03 -0.14675324708E+01  0.65733937145E+03  0.94058999264E+03  0.90221245184E+02 0.  0.
        254    2    1    2    0    0 -0.66668767670E+03  0.14675324708E+01  0.28418386331E+04  0.30582493064E+04  0.91234170788E+03 0.  0.
         23    2    4    4    0    0 -0.57041999304E+03  0.92045586545E+02  0.70941886959E+03  0.91979241063E+03  0.94295215389E+02 0.  0.
         23    2    4    4    0    0 -0.96267683657E+02 -0.90578054075E+02  0.21324197635E+04  0.21384568958E+04  0.91170152600E+02 0.  0.
          1    1    3    3  502    0  0.49699404497E+02 -0.24312112959E+02  0.51728010092E+02  0.75742304375E+02  0.00000000000E+00 0. -1.
         -1    1    3    3    0  502  0.61698827220E+03  0.22844580488E+02  0.60561136136E+03  0.86484768827E+03  0.00000000000E+00 0.  1.
         13    1    5    5    0    0 -0.19087986856E+03  0.72509583227E+02  0.27659289596E+03  0.34379702439E+03  0.00000000000E+00 0.  1.
        -13    1    5    5    0    0 -0.37954012448E+03  0.19536003318E+02  0.43282597363E+03  0.57599538624E+03  0.00000000000E+00 0. -1.
          3    1    6    6  503    0 -0.17750828511E+02 -0.42546907410E+01  0.97476041657E+03  0.97493131246E+03  0.00000000000E+00 0. -1.
         -3    1    6    6    0  503 -0.78516855145E+02 -0.86323363334E+02  0.11576593469E+04  0.11635255834E+04  0.00000000000E+00 0.  1.
<mgrwt>
<rscale>  0 0.19355798E+04</rscale>
<asrwt>0</asrwt>
<pdfrwt beam="1">  1        2 0.57677052E+00 0.19355798E+04</pdfrwt>
<pdfrwt beam="2">  1       -2 0.38435487E-01 0.19355798E+04</pdfrwt>
<totfact> 0.32329106E+00</totfact>
</mgrwt>
</event>
<event>
12    3  0.4773567E-008  0.2576332E+04  0.7818608E-02  0.8376285E-01
         -1   -1    0    0    0  501 -0.00000000000E+00  0.00000000000E+00  0.13893618616E+04  0.13893618616E+04  0.00000000000E+00 0.  1.
          1   -1    0    0  501    0  0.00000000000E+00 -0.00000000000E+00 -0.11943408637E+04  0.11943408637E+04  0.00000000000E+00 0. -1.
         23    2    1    2    0    0  0.68680632209E+03 -0.95409001735E+03 -0.55724607590E+01  0.11787866240E+04  0.86695832327E+02 0.  0.
        254    2    1    2    0    0 -0.68680632209E+03  0.95409001735E+03  0.20059345872E+03  0.14049161013E+04  0.74267141511E+03 0.  0.
         23    2    4    4    0    0 -0.42751717009E+03  0.78125123632E+03  0.44420050780E+03  0.99934363488E+03  0.90825021123E+02 0.  0.
         23    2    4    4    0    0 -0.25928915201E+03  0.17283878103E+03 -0.24360704908E+03  0.40557246646E+03  0.89668961253E+02 0.  0.
          3    1    3    3  502    0  0.44858874063E+03 -0.69065434880E+03  0.12211160850E+01  0.82355132132E+03  0.00000000000E+00 0. -1.
         -3    1    3    3    0  502  0.23821758147E+03 -0.26343566855E+03 -0.67935768439E+01  0.35523530268E+03  0.00000000000E+00 0.  1.
         13    1    5    5    0    0 -0.14727373975E+02  0.34300970475E+02  0.19474252220E+00  0.37329479562E+02  0.00000000000E+00 0.  1.
        -13    1    5    5    0    0 -0.41278979611E+03  0.74695026585E+03  0.44400576527E+03  0.96201415531E+03  0.00000000000E+00 0. -1.
          2    1    6    6  503    0 -0.19146726826E+03  0.15550328033E+03 -0.22320366325E+03  0.33265727152E+03  0.00000000000E+00 0. -1.
         -2    1    6    6    0  503 -0.67821883747E+02  0.17335500696E+02 -0.20403385833E+02  0.72915194938E+02  0.00000000000E+00 0.  1.
<mgrwt>
<rscale>  0 0.25763320E+04</rscale>
<asrwt>0</asrwt>
<pdfrwt beam="1">  1        1 0.18374475E+00 0.25763320E+04</pdfrwt>
<pdfrwt beam="2">  1       -1 0.21374798E+00 0.25763320E+04</pdfrwt>
<totfact> 0.11544674E+00</totfact>
</mgrwt>
</event>
<event>
12    3  0.4773567E-008  0.1028369E+04  0.7818608E-02  0.9277966E-01
          2   -1    0    0  501    0  0.00000000000E+00  0.00000000000E+00  0.76593837222E+03  0.76593837222E+03  0.00000000000E+00 0. -1.
         -2   -1    0    0    0  501 -0.00000000000E+00 -0.00000000000E+00 -0.34517863165E+03  0.34517863165E+03  0.00000000000E+00 0.  1.
         23    2    1    2    0    0  0.24427848803E+02 -0.55740464749E+02  0.98541581347E+02  0.14768241053E+03  0.91629317998E+02 0.  0.
        254    2    1    2    0    0 -0.24427848803E+02  0.55740464749E+02  0.32221815923E+03  0.96343459334E+03  0.90591277411E+03 0.  0.
         23    2    4    4    0    0 -0.18829027988E+03  0.29778938141E+03  0.49315285359E+03  0.61289023876E+03  0.91120593641E+02 0.  0.
         23    2    4    4    0    0  0.16386243108E+03 -0.24204891666E+03 -0.17093469436E+03  0.35054435458E+03  0.90686826030E+02 0.  0.
          4    1    3    3  502    0  0.25727409402E+02 -0.80411340205E+02  0.83578998744E+02  0.11879954655E+03  0.00000000000E+00 0. -1.
         -4    1    3    3    0  502 -0.12995605997E+01  0.24670875457E+02  0.14962582602E+02  0.28882863980E+02  0.00000000000E+00 0.  1.
         13    1    5    5    0    0 -0.18052355061E+03  0.30420464267E+03  0.48179608995E+03  0.59770953584E+03  0.00000000000E+00 0. -1.
        -13    1    5    5    0    0 -0.77667292704E+01 -0.64152612630E+01  0.11356763642E+02  0.15180702917E+02  0.00000000000E+00 0.  1.
          1    1    6    6  503    0  0.10220077247E+03 -0.21493473227E+03 -0.12326111702E+03  0.26802096933E+03  0.00000000000E+00 0. -1.
         -1    1    6    6    0  503  0.61661658606E+02 -0.27114184394E+02 -0.47673577341E+02  0.82523385255E+02  0.00000000000E+00 0.  1.
<mgrwt>
<rscale>  0 0.10283687E+04</rscale>
<asrwt>0</asrwt>
<pdfrwt beam="1">  1        2 0.11783667E+00 0.10283687E+04</pdfrwt>
<pdfrwt beam="2">  1       -2 0.53104405E-01 0.10283687E+04</pdfrwt>
<totfact> 0.12163459E+02</totfact>
</mgrwt>
</event>
<event>
12    3  0.4773567E-008  0.1714506E+04  0.7818608E-02  0.8753134E-01
         -2   -1    0    0    0  501 -0.00000000000E+00  0.00000000000E+00  0.70399502074E+03  0.70399502074E+03  0.00000000000E+00 0.  1.
          2   -1    0    0  501    0  0.00000000000E+00 -0.00000000000E+00 -0.10438754059E+04  0.10438754059E+04  0.00000000000E+00 0. -1.
         23    2    1    2    0    0  0.94359590274E+02 -0.17538543598E+03 -0.72085428579E+03  0.75367289524E+03  0.93424559192E+02 0.  0.
        254    2    1    2    0    0 -0.94359590274E+02  0.17538543598E+03  0.38097390061E+03  0.99419753140E+03  0.89645068747E+03 0.  0.
         23    2    4    4    0    0 -0.32280456878E+03 -0.18158689551E+02 -0.15725235715E+03  0.37171290057E+03  0.94390937032E+02 0.  0.
         23    2    4    4    0    0  0.22844497850E+03  0.19354412553E+03  0.53822625777E+03  0.62248463083E+03  0.90294929736E+02 0.  0.
          3    1    3    3  502    0  0.10630003665E+03 -0.17838714807E+03 -0.67865372666E+03  0.70971300756E+03  0.00000000000E+00 0. -1.
         -3    1    3    3    0  502 -0.11940446371E+02  0.30017120859E+01 -0.42200559125E+02  0.43959887687E+02  0.00000000000E+00 0.  1.
         13    1    5    5    0    0 -0.33750520146E+02  0.35009058553E+01  0.12073591251E+02  0.36015629352E+02  0.00000000000E+00 0. -1.
        -13    1    5    5    0    0 -0.28905404863E+03 -0.21659595407E+02 -0.16932594840E+03  0.33569727122E+03  0.00000000000E+00 0.  1.
          2    1    6    6  503    0  0.87499981682E+02  0.91667304411E+02  0.14533753090E+03  0.19282670816E+03  0.00000000000E+00 0. -1.
         -2    1    6    6    0  503  0.14094499682E+03  0.10187682112E+03  0.39288872687E+03  0.42965792267E+03  0.00000000000E+00 0.  1.
<mgrwt>
<rscale>  0 0.17145064E+04</rscale>
<asrwt>0</asrwt>
<pdfrwt beam="1">  1        2 0.16059622E+00 0.17145064E+04</pdfrwt>
<pdfrwt beam="2">  1       -2 0.10830693E+00 0.17145064E+04</pdfrwt>
<totfact> 0.15315169E+01</totfact>
</mgrwt>
</event>
<event>
12    3  0.4773567E-008  0.2035854E+04  0.7818608E-02  0.8590039E-01
         -1   -1    0    0    0  501 -0.00000000000E+00  0.00000000000E+00  0.84207581277E+03  0.84207581277E+03  0.00000000000E+00 0.  1.
          1   -1    0    0  501    0  0.00000000000E+00 -0.00000000000E+00 -0.12305014849E+04  0.12305014849E+04  0.00000000000E+00 0. -1.
         23    2    1    2    0    0 -0.55536200001E+03  0.57788278066E+03  0.44739927595E+02  0.80820275556E+03  0.93885961388E+02 0.  0.
        254    2    1    2    0    0  0.55536200001E+03 -0.57788278066E+03 -0.43316559975E+03  0.12643745421E+04  0.87671836227E+03 0.  0.
         23    2    4    4    0    0  0.92306521003E+02 -0.67138558540E+03 -0.36722533095E+03  0.77627016783E+03  0.91988214860E+02 0.  0.
         23    2    4    4    0    0  0.46305547901E+03  0.93502804745E+02 -0.65940268794E+02  0.48810437429E+03  0.10360796309E+03 0.  0.
          2    1    3    3  502    0 -0.39136998314E+03  0.37489117225E+03 -0.77932213567E+01  0.54200976839E+03  0.00000000000E+00 0. -1.
         -2    1    3    3    0  502 -0.16399201687E+03  0.20299160841E+03  0.52533148952E+02  0.26619298717E+03  0.00000000000E+00 0.  1.
         13    1    5    5    0    0  0.36364204411E+02 -0.94867096388E+02 -0.29577153680E+02  0.10581554403E+03  0.00000000000E+00 0.  1.
        -13    1    5    5    0    0  0.55942316592E+02 -0.57651848901E+03 -0.33764817727E+03  0.67045462380E+03  0.00000000000E+00 0. -1.
          3    1    6    6  503    0  0.80438109600E+02  0.28196672867E+02 -0.51703925772E+02  0.99692716771E+02  0.00000000000E+00 0.  1.
         -3    1    6    6    0  503  0.38261736941E+03  0.65306131879E+02 -0.14236343021E+02  0.38841165752E+03  0.00000000000E+00 0. -1.
<mgrwt>
<rscale>  0 0.20358542E+04</rscale>
<asrwt>0</asrwt>
<pdfrwt beam="1">  1        1 0.18930792E+00 0.20358542E+04</pdfrwt>
<pdfrwt beam="2">  1       -1 0.12955012E+00 0.20358542E+04</pdfrwt>
<totfact> 0.48036182E+00</totfact>
</mgrwt>
</event>
<event>
12    3  0.4773567E-008  0.2101729E+04  0.7818608E-02  0.8560482E-01
         -2   -1    0    0    0  501 -0.00000000000E+00  0.00000000000E+00  0.75558402196E+03  0.75558402196E+03  0.00000000000E+00 0.  1.
          2   -1    0    0  501    0  0.00000000000E+00 -0.00000000000E+00 -0.14615402466E+04  0.14615402466E+04  0.00000000000E+00 0. -1.
         23    2    1    2    0    0  0.42142453316E+03  0.29577068219E+03 -0.10022835929E+04  0.11305924561E+04  0.92671287614E+02 0.  0.
        254    2    1    2    0    0 -0.42142453316E+03 -0.29577068219E+03  0.29632736822E+03  0.10865318125E+04  0.90975960389E+03 0.  0.
         23    2    4    4    0    0 -0.34695806802E+03  0.13893890899E+03 -0.18567280766E+03  0.42718733699E+03  0.91272712144E+02 0.  0.
         23    2    4    4    0    0 -0.74466465134E+02 -0.43470959118E+03  0.48200017588E+03  0.65934447553E+03  0.88844160017E+02 0.  0.
          4    1    3    3  502    0  0.40514317197E+03  0.29685594191E+03 -0.93503940601E+03  0.10613967829E+04  0.00000000000E+00 0. -1.
         -4    1    3    3    0  502  0.16281361192E+02 -0.10852597192E+01 -0.67244186863E+02  0.69195673115E+02  0.00000000000E+00 0.  1.
         13    1    5    5    0    0 -0.72614208254E+02  0.30953987083E+02 -0.32753881071E+00  0.78937189197E+02  0.00000000000E+00 0. -1.
        -13    1    5    5    0    0 -0.27434385977E+03  0.10798492191E+03 -0.18534526885E+03  0.34825014780E+03  0.00000000000E+00 0.  1.
          1    1    6    6  503    0 -0.66949108996E+02 -0.24218522093E+03  0.32500758865E+03  0.41081114531E+03  0.00000000000E+00 0.  1.
         -1    1    6    6    0  503 -0.75173561379E+01 -0.19252437025E+03  0.15699258723E+03  0.24853333022E+03  0.00000000000E+00 0. -1.
<mgrwt>
<rscale>  0 0.21017292E+04</rscale>
<asrwt>0</asrwt>
<pdfrwt beam="1">  1        2 0.22485235E+00 0.21017292E+04</pdfrwt>
<pdfrwt beam="2">  1       -2 0.11624370E+00 0.21017292E+04</pdfrwt>
<totfact> 0.70644341E+00</totfact>
</mgrwt>
</event>
<event>
12    3  0.4773567E-008  0.1942178E+04  0.7818608E-02  0.8634142E-01
         -2   -1    0    0    0  501 -0.00000000000E+00  0.00000000000E+00  0.47945466304E+03  0.47945466304E+03  0.00000000000E+00 0.  1.
          2   -1    0    0  501    0  0.00000000000E+00 -0.00000000000E+00 -0.19668459196E+04  0.19668459196E+04  0.00000000000E+00 0. -1.
         23    2    1    2    0    0 -0.39244096068E+03 -0.25538269133E+03  0.16683557227E+03  0.50628080440E+03  0.96207682067E+02 0.  0.
        254    2    1    2    0    0  0.39244096068E+03  0.25538269133E+03 -0.16542268289E+04  0.19400197783E+04  0.89887713962E+03 0.  0.
         23    2    4    4    0    0  0.63659787934E+03  0.64032373489E+02 -0.13456817488E+04  0.14928643453E+04  0.91801848534E+02 0.  0.
         23    2    4    4    0    0 -0.24415691866E+03  0.19135031784E+03 -0.30854508004E+03  0.44715543302E+03  0.92305849197E+02 0.  0.
          2    1    3    3  502    0 -0.73162792912E+02 -0.51846727007E+02 -0.63945114690E+01  0.89898649295E+02  0.00000000000E+00 0. -1.
         -2    1    3    3    0  502 -0.31927816776E+03 -0.20353596432E+03  0.17323008374E+03  0.41638215511E+03  0.00000000000E+00 0.  1.
         13    1    5    5    0    0  0.48128811733E+03  0.84189395075E+02 -0.10560637869E+04  0.11636136937E+04  0.00000000000E+00 0.  1.
        -13    1    5    5    0    0  0.15530976200E+03 -0.20157021586E+02 -0.28961796194E+03  0.32925065159E+03  0.00000000000E+00 0. -1.
          3    1    6    6  503    0 -0.14103190241E+02  0.13756257683E+02 -0.65171198923E+02  0.68083917113E+02  0.00000000000E+00 0. -1.
         -3    1    6    6    0  503 -0.23005372842E+03  0.17759406015E+03 -0.24337388111E+03  0.37907151590E+03  0.00000000000E+00 0.  1.
<mgrwt>
<rscale>  0 0.19421776E+04</rscale>
<asrwt>0</asrwt>
<pdfrwt beam="1">  1        2 0.30259167E+00 0.19421776E+04</pdfrwt>
<pdfrwt beam="2">  1       -2 0.73762257E-01 0.19421776E+04</pdfrwt>
<totfact> 0.10779437E+01</totfact>
</mgrwt>
</event>
<event>
12    3  0.4773567E-008  0.1407093E+04  0.7818608E-02  0.8948700E-01
          1   -1    0    0  501    0  0.00000000000E+00  0.00000000000E+00  0.17486224105E+04  0.17486224105E+04  0.00000000000E+00 0. -1.
         -1   -1    0    0    0  501 -0.00000000000E+00 -0.00000000000E+00 -0.28306706702E+03  0.28306706702E+03  0.00000000000E+00 0.  1.
         23    2    1    2    0    0 -0.14254894460E+03  0.18461537161E+03 -0.48208866993E+02  0.26596082266E+03  0.11835551230E+03 0.  0.
        254    2    1    2    0    0  0.14254894460E+03 -0.18461537161E+03  0.15137642105E+04  0.17657286549E+04  0.87858554544E+03 0.  0.
         23    2    4    4    0    0  0.39653735964E+03 -0.36551110965E+03  0.11776253638E+04  0.12983601515E+04  0.89985203480E+02 0.  0.
         23    2    4    4    0    0 -0.25398841503E+03  0.18089573804E+03  0.33613884673E+03  0.46736850334E+03  0.90612419822E+02 0.  0.
          3    1    3    3  502    0  0.14140644977E+02  0.98926909154E+01  0.15045810996E+02  0.22895405706E+02  0.00000000000E+00 0. -1.
         -3    1    3    3    0  502 -0.15668958958E+03  0.17472268070E+03 -0.63254677989E+02  0.24306541696E+03  0.00000000000E+00 0.  1.
         13    1    5    5    0    0  0.24662309315E+03 -0.16937196640E+03  0.67776151431E+03  0.74085793736E+03  0.00000000000E+00 0. -1.
        -13    1    5    5    0    0  0.14991426649E+03 -0.19613914326E+03  0.49986384945E+03  0.55750221417E+03  0.00000000000E+00 0.  1.
          2    1    6    6  503    0 -0.10553160701E+02  0.21224338025E+02  0.66336436869E+02  0.70444052850E+02  0.00000000000E+00 0. -1.
         -2    1    6    6    0  503 -0.24343525433E+03  0.15967140002E+03  0.26980240986E+03  0.39692445049E+03  0.00000000000E+00 0.  1.
<mgrwt>
<rscale>  0 0.14070926E+04</rscale>
<asrwt>0</asrwt>
<pdfrwt beam="1">  1        1 0.26901883E+00 0.14070926E+04</pdfrwt>
<pdfrwt beam="2">  1       -1 0.43548780E-01 0.14070926E+04</pdfrwt>
<totfact> 0.22407715E+01</totfact>
</mgrwt>
</event>
<event>
12    3  0.4773567E-008  0.1779325E+04  0.7818608E-02  0.8717372E-01
         -2   -1    0    0    0  501 -0.00000000000E+00  0.00000000000E+00  0.54642199005E+03  0.54642199005E+03  0.00000000000E+00 0.  1.
          2   -1    0    0  501    0  0.00000000000E+00 -0.00000000000E+00 -0.14485137103E+04  0.14485137103E+04  0.00000000000E+00 0. -1.
         23    2    1    2    0    0 -0.36401941318E+03 -0.10786383278E+03  0.26307225358E+03  0.47086972280E+03  0.91468823404E+02 0.  0.
        254    2    1    2    0    0  0.36401941318E+03  0.10786383278E+03 -0.11651639738E+04  0.15240659775E+04  0.90610445226E+03 0.  0.
         23    2    4    4    0    0  0.20387059359E+03  0.17565275403E+03  0.52321961364E+02  0.29083563941E+03  0.97111650062E+02 0.  0.
         23    2    4    4    0    0  0.16014881959E+03 -0.67788921250E+02 -0.12174859352E+04  0.12332303381E+04  0.91335000123E+02 0.  0.
          4    1    3    3  502    0 -0.87478198833E+02 -0.62650614165E+02  0.48941458366E+02  0.11820660334E+03  0.00000000000E+00 0. -1.
         -4    1    3    3    0  502 -0.27654121435E+03 -0.45213218617E+02  0.21413079521E+03  0.35266311946E+03  0.00000000000E+00 0.  1.
         13    1    5    5    0    0  0.19963674256E+03  0.18714349785E+03  0.47797953331E+02  0.27778078067E+03  0.00000000000E+00 0. -1.
        -13    1    5    5    0    0  0.42338510313E+01 -0.11490743815E+02  0.45240080333E+01  0.13054858738E+02  0.00000000000E+00 0.  1.
          4    1    6    6  503    0  0.12607681352E+03 -0.16793908954E+02 -0.64143102785E+03  0.65391984354E+03  0.00000000000E+00 0.  1.
         -4    1    6    6    0  503  0.34072006068E+02 -0.50995012296E+02 -0.57605490734E+03  0.57931049459E+03  0.00000000000E+00 0. -1.
<mgrwt>
<rscale>  0 0.17793254E+04</rscale>
<asrwt>0</asrwt>
<pdfrwt beam="1">  1        2 0.22284826E+00 0.17793254E+04</pdfrwt>
<pdfrwt beam="2">  1       -2 0.84064922E-01 0.17793254E+04</pdfrwt>
<totfact> 0.15863975E+01</totfact>
</mgrwt>
</event>
<event>
12    3  0.4773567E-008  0.1386283E+04  0.7818608E-02  0.8963808E-01
          2   -1    0    0  501    0  0.00000000000E+00  0.00000000000E+00  0.13160525297E+04  0.13160525297E+04  0.00000000000E+00 0. -1.
         -2   -1    0    0    0  501 -0.00000000000E+00 -0.00000000000E+00 -0.36506535228E+03  0.36506535228E+03  0.00000000000E+00 0.  1.
         23    2    1    2    0    0 -0.52099972490E+02 -0.13014378233E+03  0.72222248198E+03  0.74092673682E+03  0.87836806851E+02 0.  0.
        254    2    1    2    0    0  0.52099972490E+02  0.13014378233E+03  0.22876469539E+03  0.94019114511E+03  0.90109616151E+03 0.  0.
         23    2    4    4    0    0 -0.37273392795E+03 -0.27356113231E+01  0.29045896260E+03  0.48141941078E+03  0.91979212405E+02 0.  0.
         23    2    4    4    0    0  0.42483390044E+03  0.13287939365E+03 -0.61694267208E+02  0.45877173433E+03  0.92328464695E+02 0.  0.
          4    1    3    3  502    0 -0.37721483267E+02 -0.82230372585E+02  0.62574667931E+03  0.63225283799E+03  0.00000000000E+00 0. -1.
         -4    1    3    3    0  502 -0.14378489223E+02 -0.47913409745E+02  0.96475802671E+02  0.10867389883E+03  0.00000000000E+00 0.  1.
         13    1    5    5    0    0 -0.93205783810E+02  0.25142396319E+01  0.26523975832E+02  0.96938954144E+02  0.00000000000E+00 0.  1.
        -13    1    5    5    0    0 -0.27952814414E+03 -0.52498509550E+01  0.26393498676E+03  0.38448045664E+03  0.00000000000E+00 0. -1.
          2    1    6    6  503    0  0.23487638150E+03  0.37558701447E+02 -0.63654802903E+02  0.24623059228E+03  0.00000000000E+00 0. -1.
         -2    1    6    6    0  503  0.18995751894E+03  0.95320692206E+02  0.19605356944E+01  0.21254114205E+03  0.00000000000E+00 0.  1.
<mgrwt>
<rscale>  0 0.13862831E+04</rscale>
<asrwt>0</asrwt>
<pdfrwt beam="1">  1        2 0.20246962E+00 0.13862831E+04</pdfrwt>
<pdfrwt beam="2">  1       -2 0.56163901E-01 0.13862831E+04</pdfrwt>
<totfact> 0.46905139E+01</totfact>
</mgrwt>
</event>
<event>
12    3  0.4773567E-008  0.1278144E+04  0.7818608E-02  0.9047079E-01
          2   -1    0    0  501    0  0.00000000000E+00  0.00000000000E+00  0.15119540301E+04  0.15119540301E+04  0.00000000000E+00 0.  1.
         -2   -1    0    0    0  501 -0.00000000000E+00 -0.00000000000E+00 -0.27012260197E+03  0.27012260197E+03  0.00000000000E+00 0. -1.
         23    2    1    2    0    0 -0.25995072651E+03 -0.13092025811E+03  0.47315363308E+03  0.56240596672E+03  0.87815811217E+02 0.  0.
        254    2    1    2    0    0  0.25995072651E+03  0.13092025811E+03  0.76867779500E+03  0.12196706653E+04  0.90111957313E+03 0.  0.
         23    2    4    4    0    0  0.47662448699E+03  0.23960096490E+03  0.17017448973E+03  0.56721671438E+03  0.90531321328E+02 0.  0.
         23    2    4    4    0    0 -0.21667376048E+03 -0.10868070678E+03  0.59850330527E+03  0.65245395092E+03  0.93439483855E+02 0.  0.
          1    1    3    3  502    0 -0.24523573878E+03 -0.14138691906E+03  0.42190965038E+03  0.50807340173E+03  0.00000000000E+00 0. -1.
         -1    1    3    3    0  502 -0.14714987735E+02  0.10466660948E+02  0.51243982700E+02  0.54332564990E+02  0.00000000000E+00 0.  1.
         13    1    5    5    0    0  0.35417568112E+03  0.14773961138E+03  0.15319410818E+03  0.41320193689E+03  0.00000000000E+00 0. -1.
        -13    1    5    5    0    0  0.12244880588E+03  0.91861353513E+02  0.16980381548E+02  0.15401477750E+03  0.00000000000E+00 0.  1.
          3    1    6    6  503    0 -0.15797609505E+03 -0.34276584061E+02  0.32471317928E+03  0.36272576365E+03  0.00000000000E+00 0. -1.
         -3    1    6    6    0  503 -0.58697665434E+02 -0.74404122722E+02  0.27379012599E+03  0.28972818727E+03  0.00000000000E+00 0.  1.
<mgrwt>
<rscale>  0 0.12781439E+04</rscale>
<asrwt>0</asrwt>
<pdfrwt beam="1">  1        2 0.23260831E+00 0.12781439E+04</pdfrwt>
<pdfrwt beam="2">  1       -2 0.41557324E-01 0.12781439E+04</pdfrwt>
<totfact> 0.67279013E+01</totfact>
</mgrwt>
</event>
<event>
12    3  0.4773567E-008  0.1733476E+04  0.7818608E-02  0.8742499E-01
         -1   -1    0    0    0  501 -0.00000000000E+00  0.00000000000E+00  0.59337357480E+03  0.59337357480E+03  0.00000000000E+00 0.  1.
          1   -1    0    0  501    0  0.00000000000E+00 -0.00000000000E+00 -0.12660406006E+04  0.12660406006E+04  0.00000000000E+00 0. -1.
         23    2    1    2    0    0  0.53440630467E+03 -0.51476117512E+02 -0.59334295573E+03  0.80524980849E+03  0.90174840205E+02 0.  0.
        254    2    1    2    0    0 -0.53440630467E+03  0.51476117512E+02 -0.79324070087E+02  0.10541643669E+04  0.90373132914E+03 0.  0.
         23    2    4    4    0    0 -0.44118691813E+02 -0.24100798544E+03 -0.33167082676E+03  0.42279019264E+03  0.93352566410E+02 0.  0.
         23    2    4    4    0    0 -0.49028761285E+03  0.29248410295E+03  0.25234675667E+03  0.63137417430E+03  0.95002992423E+02 0.  0.
          1    1    3    3  502    0  0.33453894610E+03 -0.88711979024E+01 -0.42182680474E+03  0.53845413714E+03  0.00000000000E+00 0. -1.
         -1    1    3    3    0  502  0.19986735857E+03 -0.42604919609E+02 -0.17151615099E+03  0.26679567134E+03  0.00000000000E+00 0.  1.
         13    1    5    5    0    0 -0.24084236083E+02 -0.21821523109E+03 -0.23556635333E+03  0.32200845382E+03  0.00000000000E+00 0. -1.
        -13    1    5    5    0    0 -0.20034455730E+02 -0.22792754349E+02 -0.96104473425E+02  0.10078173882E+03  0.00000000000E+00 0.  1.
          3    1    6    6  503    0 -0.47958750864E+03  0.28402526970E+03  0.26074568642E+03  0.61535586880E+03  0.00000000000E+00 0. -1.
         -3    1    6    6    0  503 -0.10700104212E+02  0.84588332520E+01 -0.83989297525E+01  0.16018305501E+02  0.00000000000E+00 0.  1.
<mgrwt>
<rscale>  0 0.17334763E+04</rscale>
<asrwt>0</asrwt>
<pdfrwt beam="1">  1        1 0.19477547E+00 0.17334763E+04</pdfrwt>
<pdfrwt beam="2">  1       -1 0.91288244E-01 0.17334763E+04</pdfrwt>
<totfact> 0.10628484E+01</totfact>
</mgrwt>
</event>
<event>
12    3  0.4773567E-008  0.1876669E+04  0.7818608E-02  0.8666558E-01
         -2   -1    0    0    0  501 -0.00000000000E+00  0.00000000000E+00  0.55081878410E+03  0.55081878410E+03  0.00000000000E+00 0.  1.
          2   -1    0    0  501    0  0.00000000000E+00 -0.00000000000E+00 -0.15984778757E+04  0.15984778757E+04  0.00000000000E+00 0. -1.
         23    2    1    2    0    0  0.54249983080E+03  0.20317965892E+03  0.55219821132E+02  0.58869103060E+03  0.88993598897E+02 0.  0.
        254    2    1    2    0    0 -0.54249983080E+03 -0.20317965892E+03 -0.11028789127E+04  0.15606056292E+04  0.93997871973E+03 0.  0.
         23    2    4    4    0    0  0.22407225077E+03 -0.22606393431E+03 -0.32917499759E+03  0.46742809555E+03  0.93912563116E+02 0.  0.
         23    2    4    4    0    0 -0.76657208156E+03  0.22884275393E+02 -0.77370391511E+03  0.10931775336E+04  0.90900635272E+02 0.  0.
          3    1    3    3  502    0  0.10072747262E+03  0.50989994949E+02 -0.22223245936E+02  0.11506466002E+03  0.00000000000E+00 0. -1.
         -3    1    3    3    0  502  0.44177235818E+03  0.15218966397E+03  0.77443067068E+02  0.47362637058E+03  0.00000000000E+00 0.  1.
         13    1    5    5    0    0  0.65329097494E+02 -0.91514622035E+02 -0.60792440516E+02  0.12782229011E+03  0.00000000000E+00 0. -1.
        -13    1    5    5    0    0  0.15874315327E+03 -0.13454931227E+03 -0.26838255708E+03  0.33960580544E+03  0.00000000000E+00 0.  1.
          4    1    6    6  503    0 -0.67718087828E+03  0.45975953385E+02 -0.66018056671E+03  0.94685062753E+03  0.00000000000E+00 0. -1.
         -4    1    6    6    0  503 -0.89391203280E+02 -0.23091677993E+02 -0.11352334841E+03  0.14632690610E+03  0.00000000000E+00 0.  1.
<mgrwt>
<rscale>  0 0.18766690E+04</rscale>
<asrwt>0</asrwt>
<pdfrwt beam="1">  1        2 0.24591967E+00 0.18766690E+04</pdfrwt>
<pdfrwt beam="2">  1       -2 0.84741353E-01 0.18766690E+04</pdfrwt>
<totfact> 0.12720747E+01</totfact>
</mgrwt>
</event>
<event>
12    3  0.4773567E-008  0.2317437E+04  0.7818608E-02  0.8471077E-01
         -2   -1    0    0    0  501 -0.00000000000E+00  0.00000000000E+00  0.92781217113E+03  0.92781217113E+03  0.00000000000E+00 0.  1.
          2   -1    0    0  501    0  0.00000000000E+00 -0.00000000000E+00 -0.14470910388E+04  0.14470910388E+04  0.00000000000E+00 0. -1.
         23    2    1    2    0    0 -0.67735208410E+03  0.27988467155E+03 -0.88734660033E+03  0.11546457658E+04  0.93174997218E+02 0.  0.
        254    2    1    2    0    0  0.67735208410E+03 -0.27988467155E+03  0.36806773264E+03  0.12202574442E+04  0.90355580848E+03 0.  0.
         23    2    4    4    0    0  0.69416082675E+03 -0.34295719966E+03 -0.54782118068E+02  0.78230884313E+03  0.97607127708E+02 0.  0.
         23    2    4    4    0    0 -0.16808742653E+02  0.63072528113E+02  0.42284985071E+03  0.43794860104E+03  0.93468193915E+02 0.  0.
          1    1    3    3  502    0 -0.48706368992E+03  0.15696198413E+03 -0.59466156245E+03  0.78453201105E+03  0.00000000000E+00 0. -1.
         -1    1    3    3    0  502 -0.19028839417E+03  0.12292268742E+03 -0.29268503788E+03  0.37011375473E+03  0.00000000000E+00 0.  1.
         13    1    5    5    0    0  0.13839074211E+03 -0.85843344525E+02  0.25036418433E+02  0.16476619662E+03  0.00000000000E+00 0. -1.
        -13    1    5    5    0    0  0.55577008463E+03 -0.25711385514E+03 -0.79818536501E+02  0.61754264650E+03  0.00000000000E+00 0.  1.
          3    1    6    6  503    0 -0.32253054005E+02  0.61985620639E+02  0.15938091578E+03  0.17402515041E+03  0.00000000000E+00 0. -1.
         -3    1    6    6    0  503  0.15444311352E+02  0.10869074739E+01  0.26346893493E+03  0.26392345063E+03  0.00000000000E+00 0.  1.
<mgrwt>
<rscale>  0 0.23174371E+04</rscale>
<asrwt>0</asrwt>
<pdfrwt beam="1">  1        2 0.22262939E+00 0.23174371E+04</pdfrwt>
<pdfrwt beam="2">  1       -2 0.14274033E+00 0.23174371E+04</pdfrwt>
<totfact> 0.42053935E+00</totfact>
</mgrwt>
</event>
<event>
12    3  0.4773567E-008  0.3999057E+04  0.7818608E-02  0.8004737E-01
         -2   -1    0    0    0  501 -0.00000000000E+00  0.00000000000E+00  0.12911776416E+04  0.12911776416E+04  0.00000000000E+00 0.  1.
          2   -1    0    0  501    0  0.00000000000E+00 -0.00000000000E+00 -0.30964871735E+04  0.30964871735E+04  0.00000000000E+00 0. -1.
         23    2    1    2    0    0  0.13075678160E+04  0.17607727227E+03 -0.23520935063E+04  0.26986129779E+04  0.97115099882E+02 0.  0.
        254    2    1    2    0    0 -0.13075678160E+04 -0.17607727227E+03  0.54678397437E+03  0.16890518372E+04  0.90176859274E+03 0.  0.
         23    2    4    4    0    0 -0.31629648222E+03  0.34239089900E+03  0.15431074517E+03  0.49917826423E+03  0.89956328431E+02 0.  0.
         23    2    4    4    0    0 -0.99127133381E+03 -0.51846817127E+03  0.39247322920E+03  0.11898735730E+04  0.10166504902E+03 0.  0.
          4    1    3    3  502    0  0.12129462908E+04  0.16492537706E+03 -0.22283908101E+04  0.25424721605E+04  0.00000000000E+00 0. -1.
         -4    1    3    3    0  502  0.94621525213E+02  0.11151895213E+02 -0.12370269620E+03  0.15614081737E+03  0.00000000000E+00 0.  1.
         13    1    5    5    0    0 -0.29126952469E+03  0.29826794584E+03  0.16315900222E+03  0.44768578661E+03  0.00000000000E+00 0. -1.
        -13    1    5    5    0    0 -0.25026957524E+02  0.44122953164E+02 -0.88482570463E+01  0.51492477622E+02  0.00000000000E+00 0.  1.
          2    1    6    6  503    0 -0.69631314547E+03 -0.34553697548E+03  0.31846968553E+03  0.84004210524E+03  0.00000000000E+00 0. -1.
         -2    1    6    6    0  503 -0.29495818834E+03 -0.17293119579E+03  0.74003543667E+02  0.34983146774E+03  0.00000000000E+00 0.  1.
<mgrwt>
<rscale>  0 0.39990574E+04</rscale>
<asrwt>0</asrwt>
<pdfrwt beam="1">  1        2 0.47638264E+00 0.39990574E+04</pdfrwt>
<pdfrwt beam="2">  1       -2 0.19864272E+00 0.39990574E+04</pdfrwt>
<totfact> 0.16189334E-01</totfact>
</mgrwt>
</event>
<event>
12    3  0.4773567E-008  0.2483347E+04  0.7818608E-02  0.8408942E-01
         -2   -1    0    0    0  501 -0.00000000000E+00  0.00000000000E+00  0.15750774345E+04  0.15750774345E+04  0.00000000000E+00 0.  1.
          2   -1    0    0  501    0  0.00000000000E+00 -0.00000000000E+00 -0.97884263924E+03  0.97884263924E+03  0.00000000000E+00 0. -1.
         23    2    1    2    0    0 -0.13963427659E+03 -0.93786751944E+03  0.78223027367E+03  0.12321249456E+04  0.84584073095E+02 0.  0.
        254    2    1    2    0    0  0.13963427659E+03  0.93786751944E+03 -0.18599547837E+03  0.13217951281E+04  0.90191730639E+03 0.  0.
         23    2    4    4    0    0  0.40267194576E+03  0.84213817649E+03  0.58540851812E+02  0.93961872703E+03  0.90082832172E+02 0.  0.
         23    2    4    4    0    0 -0.26303766917E+03  0.95729342950E+02 -0.24453633018E+03  0.38217640110E+03  0.88926161918E+02 0.  0.
          2    1    3    3  502    0 -0.19607244342E+02 -0.26132696178E+03  0.17472509879E+03  0.31496838751E+03  0.00000000000E+00 0. -1.
         -2    1    3    3    0  502 -0.12002703225E+03 -0.67654055767E+03  0.60750517487E+03  0.91715655814E+03  0.00000000000E+00 0.  1.
         13    1    5    5    0    0  0.35263466275E+03  0.66658826537E+03  0.65411628966E+02  0.75694768783E+03  0.00000000000E+00 0.  1.
        -13    1    5    5    0    0  0.50037283011E+02  0.17554991112E+03 -0.68707771538E+01  0.18267103921E+03  0.00000000000E+00 0. -1.
          3    1    6    6  503    0 -0.71856882605E+02  0.54243149582E+02 -0.12094579024E+03  0.15077670586E+03  0.00000000000E+00 0. -1.
         -3    1    6    6    0  503 -0.19118078657E+03  0.41486193368E+02 -0.12359053995E+03  0.23139969524E+03  0.00000000000E+00 0.  1.
<mgrwt>
<rscale>  0 0.24833469E+04</rscale>
<asrwt>0</asrwt>
<pdfrwt beam="1">  1        2 0.15059118E+00 0.24833469E+04</pdfrwt>
<pdfrwt beam="2">  1       -2 0.24231961E+00 0.24833469E+04</pdfrwt>
<totfact> 0.16635732E+00</totfact>
</mgrwt>
</event>
<event>
12    3  0.4773567E-008  0.2026381E+04  0.7818608E-02  0.8594385E-01
          2   -1    0    0  501    0  0.00000000000E+00  0.00000000000E+00  0.12180176049E+04  0.12180176049E+04  0.00000000000E+00 0. -1.
         -2   -1    0    0    0  501 -0.00000000000E+00 -0.00000000000E+00 -0.84280802503E+03  0.84280802503E+03  0.00000000000E+00 0.  1.
         23    2    1    2    0    0  0.67761922605E+03 -0.46078760851E+03  0.93351592979E+02  0.82988967622E+03  0.92245970693E+02 0.  0.
        254    2    1    2    0    0 -0.67761922605E+03  0.46078760851E+03  0.28185798689E+03  0.12309359537E+04  0.87422329053E+03 0.  0.
         23    2    4    4    0    0 -0.49438729720E+03  0.45960101183E+03  0.56198246419E+03  0.88301339290E+03  0.90755012350E+02 0.  0.
         23    2    4    4    0    0 -0.18323192885E+03  0.11865966794E+01 -0.28012447731E+03  0.34792256081E+03  0.94894877509E+02 0.  0.
          4    1    3    3  502    0 -0.10105724925E+01  0.26574841499E+01  0.24637240529E+00  0.28538006468E+01  0.00000000000E+00 0. -1.
         -4    1    3    3    0  502  0.67862979855E+03 -0.46344509266E+03  0.93105220574E+02  0.82703587557E+03  0.00000000000E+00 0.  1.
         13    1    5    5    0    0 -0.40057035421E+02  0.73236640321E+02  0.87118572319E+02  0.12065577987E+03  0.00000000000E+00 0. -1.
        -13    1    5    5    0    0 -0.45433026178E+03  0.38636437151E+03  0.47486389188E+03  0.76235761303E+03  0.00000000000E+00 0.  1.
          3    1    6    6  503    0 -0.86885225893E+02 -0.25273949515E+01 -0.54590053415E+02  0.10264260390E+03  0.00000000000E+00 0. -1.
         -3    1    6    6    0  503 -0.96346702955E+02  0.37139916309E+01 -0.22553442389E+03  0.24527995691E+03  0.00000000000E+00 0.  1.
<mgrwt>
<rscale>  0 0.20263810E+04</rscale>
<asrwt>0</asrwt>
<pdfrwt beam="1">  1        2 0.18738732E+00 0.20263810E+04</pdfrwt>
<pdfrwt beam="2">  1       -2 0.12966277E+00 0.20263810E+04</pdfrwt>
<totfact> 0.74898193E+00</totfact>
</mgrwt>
</event>
<event>
12    3  0.4773567E-008  0.1781275E+04  0.7818608E-02  0.8716321E-01
         -2   -1    0    0    0  501 -0.00000000000E+00  0.00000000000E+00  0.71506951906E+03  0.71506951906E+03  0.00000000000E+00 0. -1.
          2   -1    0    0  501    0  0.00000000000E+00 -0.00000000000E+00 -0.11093119392E+04  0.11093119392E+04  0.00000000000E+00 0.  1.
         23    2    1    2    0    0  0.74539881149E+02 -0.38491832926E+03 -0.68831539667E+03  0.79740483918E+03  0.91422525522E+02 0.  0.
        254    2    1    2    0    0 -0.74539881149E+02  0.38491832926E+03  0.29407297657E+03  0.10269766190E+04  0.90248753257E+03 0.  0.
         23    2    4    4    0    0  0.23956476720E+02  0.66305232215E+03  0.25264238087E+03  0.71572650110E+03  0.90686035696E+02 0.  0.
         23    2    4    4    0    0 -0.98496357869E+02 -0.27813399290E+03  0.41430595699E+02  0.31125011795E+03  0.90000506363E+02 0.  0.
          3    1    3    3  502    0  0.17775317432E+02 -0.54696479689E+01 -0.38996555513E+02  0.43204285674E+02  0.00000000000E+00 0. -1.
         -3    1    3    3    0  502  0.56764563717E+02 -0.37944868129E+03 -0.64931884116E+03  0.75420055351E+03  0.00000000000E+00 0.  1.
         13    1    5    5    0    0  0.18315405056E+02  0.44212105013E+03  0.21338616423E+03  0.49126381112E+03  0.00000000000E+00 0.  1.
        -13    1    5    5    0    0  0.56410716637E+01  0.22093127202E+03  0.39256216644E+02  0.22446268998E+03  0.00000000000E+00 0. -1.
          1    1    6    6  503    0 -0.90122925101E+02 -0.28405913218E+03  0.42092879207E+02  0.30097099973E+03  0.00000000000E+00 0. -1.
         -1    1    6    6    0  503 -0.83734327674E+01  0.59251392807E+01 -0.66228350799E+00  0.10279118214E+02  0.00000000000E+00 0.  1.
<mgrwt>
<rscale>  0 0.17812750E+04</rscale>
<asrwt>0</asrwt>
<pdfrwt beam="1">  1        2 0.17066338E+00 0.17812750E+04</pdfrwt>
<pdfrwt beam="2">  1       -2 0.11001069E+00 0.17812750E+04</pdfrwt>
<totfact> 0.13354609E+01</totfact>
</mgrwt>
</event>
<event>
12    3  0.4773567E-008  0.2356466E+04  0.7818608E-02  0.8455984E-01
          4   -1    0    0  501    0  0.00000000000E+00  0.00000000000E+00  0.94094775493E+03  0.94094775493E+03  0.00000000000E+00 0. -1.
         -4   -1    0    0    0  501 -0.00000000000E+00 -0.00000000000E+00 -0.14753556135E+04  0.14753556135E+04  0.00000000000E+00 0.  1.
         23    2    1    2    0    0  0.67386429182E+03  0.57336095572E+03 -0.71313299904E+03  0.11400887241E+04  0.91693811479E+02 0.  0.
        254    2    1    2    0    0 -0.67386429182E+03 -0.57336095572E+03  0.17872514052E+03  0.12762146443E+04  0.90218915601E+03 0.  0.
         23    2    4    4    0    0  0.21196081164E+03 -0.12721846195E+03 -0.37287052476E+01  0.26378378295E+03  0.91956827776E+02 0.  0.
         23    2    4    4    0    0 -0.88582510346E+03 -0.44614249377E+03  0.18245384576E+03  0.10124308614E+04  0.89429327324E+02 0.  0.
          3    1    3    3  502    0  0.33123752382E+02  0.15660143628E+02 -0.11706953702E+02  0.38463955013E+02  0.00000000000E+00 0. -1.
         -3    1    3    3    0  502  0.64074053944E+03  0.55770081209E+03 -0.70142604534E+03  0.11016247690E+04  0.00000000000E+00 0.  1.
         13    1    5    5    0    0  0.21784576594E+03 -0.11100321860E+03  0.47933825017E+01  0.24454338837E+03  0.00000000000E+00 0. -1.
        -13    1    5    5    0    0 -0.58849543073E+01 -0.16215243348E+02 -0.85220877492E+01  0.19240394581E+02  0.00000000000E+00 0.  1.
          3    1    6    6  503    0 -0.63359235288E+03 -0.36003611074E+03  0.11814581352E+03  0.73825720715E+03  0.00000000000E+00 0. -1.
         -3    1    6    6    0  503 -0.25223275058E+03 -0.86106383035E+02  0.64308032240E+02  0.27417365423E+03  0.00000000000E+00 0.  1.
<mgrwt>
<rscale>  0 0.23564656E+04</rscale>
<asrwt>0</asrwt>
<pdfrwt beam="1">  1        4 0.14476119E+00 0.23564656E+04</pdfrwt>
<pdfrwt beam="2">  1       -4 0.22697779E+00 0.23564656E+04</pdfrwt>
<totfact> 0.51948585E-02</totfact>
</mgrwt>
</event>
<event>
12    3  0.4773567E-008  0.1493591E+04  0.7818608E-02  0.8888726E-01
          1   -1    0    0  501    0  0.00000000000E+00  0.00000000000E+00  0.83657230957E+03  0.83657230957E+03  0.00000000000E+00 0. -1.
         -1   -1    0    0    0  501 -0.00000000000E+00 -0.00000000000E+00 -0.66665280564E+03  0.66665280564E+03  0.00000000000E+00 0.  1.
         23    2    1    2    0    0  0.24155664614E+03 -0.21094370531E+03 -0.24757840040E+03  0.41294115723E+03  0.79865354749E+02 0.  0.
        254    2    1    2    0    0 -0.24155664614E+03  0.21094370531E+03  0.41749790433E+03  0.10902839580E+04  0.95476057144E+03 0.  0.
         23    2    4    4    0    0 -0.47238355653E+03  0.60205775968E+02  0.58089807278E+03  0.75549822198E+03  0.81018717136E+02 0.  0.
         23    2    4    4    0    0  0.23082691039E+03  0.15073792934E+03 -0.16340016845E+03  0.33478573599E+03  0.96844659469E+02 0.  0.
          1    1    3    3  502    0  0.14201342439E+03 -0.81128835422E+02 -0.94444487268E+02  0.18886360639E+03  0.00000000000E+00 0. -1.
         -1    1    3    3    0  502  0.99543221748E+02 -0.12981486989E+03 -0.15313391313E+03  0.22407755084E+03  0.00000000000E+00 0.  1.
         13    1    5    5    0    0 -0.45363117773E+03  0.70945677225E+02  0.56785883275E+03  0.73025898725E+03  0.00000000000E+00 0.  1.
        -13    1    5    5    0    0 -0.18752378794E+02 -0.10739901257E+02  0.13039240031E+02  0.25239234735E+02  0.00000000000E+00 0. -1.
          1    1    6    6  503    0  0.77531464469E+02  0.31159523594E+01 -0.60518459742E+02  0.98403867360E+02  0.00000000000E+00 0. -1.
         -1    1    6    6    0  503  0.15329544592E+03  0.14762197698E+03 -0.10288170871E+03  0.23638186863E+03  0.00000000000E+00 0.  1.
<mgrwt>
<rscale>  0 0.14935907E+04</rscale>
<asrwt>0</asrwt>
<pdfrwt beam="1">  1        1 0.12870343E+00 0.14935907E+04</pdfrwt>
<pdfrwt beam="2">  1       -1 0.10256197E+00 0.14935907E+04</pdfrwt>
<totfact> 0.17898459E+01</totfact>
</mgrwt>
</event>
<event>
12    3  0.4773567E-008  0.1126070E+04  0.7818608E-02  0.9180148E-01
         -2   -1    0    0    0  501 -0.00000000000E+00  0.00000000000E+00  0.37602339183E+03  0.37602339183E+03  0.00000000000E+00 0. -1.
          2   -1    0    0  501    0  0.00000000000E+00 -0.00000000000E+00 -0.84305564812E+03  0.84305564812E+03  0.00000000000E+00 0.  1.
         23    2    1    2    0    0  0.13242435553E+03 -0.38103108392E+01  0.57858743341E+02  0.17100980302E+03  0.91356390798E+02 0.  0.
        254    2    1    2    0    0 -0.13242435553E+03  0.38103108392E+01 -0.52489099963E+03  0.10480692369E+04  0.89743402849E+03 0.  0.
         23    2    4    4    0    0  0.28437575654E+03  0.48176770946E+01  0.78288163042E+02  0.30907426930E+03  0.92223026135E+02 0.  0.
         23    2    4    4    0    0 -0.41680011208E+03 -0.10073662554E+01 -0.60317916267E+03  0.73899496763E+03  0.92547888591E+02 0.  0.
          3    1    3    3  502    0  0.14459714192E+03 -0.18086579030E+01  0.62883609153E+02  0.15768941941E+03  0.00000000000E+00 0. -1.
         -3    1    3    3    0  502 -0.12172786387E+02 -0.20016529362E+01 -0.50248658118E+01  0.13320383603E+02  0.00000000000E+00 0.  1.
         13    1    5    5    0    0  0.19296712604E+03 -0.34967306724E+02  0.30309157155E+02  0.19843807417E+03  0.00000000000E+00 0.  1.
        -13    1    5    5    0    0  0.91408630503E+02  0.39784983819E+02  0.47979005886E+02  0.11063619513E+03  0.00000000000E+00 0. -1.
          2    1    6    6  503    0 -0.28053452984E+03 -0.13411269084E+02 -0.47320218901E+03  0.55027247456E+03  0.00000000000E+00 0. -1.
         -2    1    6    6    0  503 -0.13626558224E+03  0.12403902828E+02 -0.12997697366E+03  0.18872249307E+03  0.00000000000E+00 0.  1.
<mgrwt>
<rscale>  0 0.11260704E+04</rscale>
<asrwt>0</asrwt>
<pdfrwt beam="1">  1        2 0.12970087E+00 0.11260704E+04</pdfrwt>
<pdfrwt beam="2">  1       -2 0.57849753E-01 0.11260704E+04</pdfrwt>
<totfact> 0.89021152E+01</totfact>
</mgrwt>
</event>
<event>
12    3  0.4773567E-008  0.1253566E+04  0.7818608E-02  0.9067220E-01
         -2   -1    0    0    0  501 -0.00000000000E+00  0.00000000000E+00  0.43156798978E+03  0.43156798978E+03  0.00000000000E+00 0.  1.
          2   -1    0    0  501    0  0.00000000000E+00 -0.00000000000E+00 -0.91030144830E+03  0.91030144830E+03  0.00000000000E+00 0. -1.
         23    2    1    2    0    0 -0.75895939917E+02 -0.26857869910E+03 -0.21163675240E+03  0.36234635818E+03  0.92790392896E+02 0.  0.
        254    2    1    2    0    0  0.75895939917E+02  0.26857869910E+03 -0.26709670613E+03  0.97952307990E+03  0.90012782555E+03 0.  0.
         23    2    4    4    0    0  0.21104019527E+03 -0.40281752696E+02  0.25869194102E+03  0.34834297360E+03  0.90888521204E+02 0.  0.
         23    2    4    4    0    0 -0.13514425535E+03  0.30886045180E+03 -0.52578864715E+03  0.63118010630E+03  0.90971845553E+02 0.  0.
          2    1    3    3  502    0 -0.82208317171E+02 -0.22571163634E+03 -0.20986879050E+03  0.31898097031E+03  0.00000000000E+00 0. -1.
         -2    1    3    3    0  502  0.63123772538E+01 -0.42867062760E+02 -0.17679619007E+01  0.43365387875E+02  0.00000000000E+00 0.  1.
         13    1    5    5    0    0  0.20744777195E+03 -0.16898351879E+02  0.24301146953E+03  0.31996047678E+03  0.00000000000E+00 0. -1.
        -13    1    5    5    0    0  0.35924233200E+01 -0.23383400817E+02  0.15680471494E+02  0.28382496813E+02  0.00000000000E+00 0.  1.
          3    1    6    6  503    0 -0.10576041364E+02  0.20038438414E+01 -0.52107785349E+02  0.53207981874E+02  0.00000000000E+00 0.  1.
         -3    1    6    6    0  503 -0.12456821399E+03  0.30685660796E+03 -0.47368086180E+03  0.57797212443E+03  0.00000000000E+00 0. -1.
<mgrwt>
<rscale>  0 0.12535661E+04</rscale>
<asrwt>0</asrwt>
<pdfrwt beam="1">  1        2 0.14004638E+00 0.12535661E+04</pdfrwt>
<pdfrwt beam="2">  1       -2 0.66395075E-01 0.12535661E+04</pdfrwt>
<totfact> 0.59185330E+01</totfact>
</mgrwt>
</event>
<event>
12    3  0.4773567E-008  0.1390529E+04  0.7818608E-02  0.8960703E-01
          2   -1    0    0  501    0  0.00000000000E+00  0.00000000000E+00  0.11425502052E+04  0.11425502052E+04  0.00000000000E+00 0. -1.
         -2   -1    0    0    0  501 -0.00000000000E+00 -0.00000000000E+00 -0.42308198533E+03  0.42308198533E+03  0.00000000000E+00 0.  1.
         23    2    1    2    0    0 -0.16987245567E+03  0.35600898876E+03  0.22112734216E+03  0.46165075897E+03  0.92871257839E+02 0.  0.
        254    2    1    2    0    0  0.16987245567E+03 -0.35600898876E+03  0.49834087772E+03  0.11039814316E+04  0.90268062989E+03 0.  0.
         23    2    4    4    0    0 -0.23000567825E+03 -0.33582413707E+03  0.55114929246E+03  0.69159713640E+03  0.94130725239E+02 0.  0.
         23    2    4    4    0    0  0.39987813393E+03 -0.20184851688E+02 -0.52808414743E+02  0.41238429517E+03  0.83439367234E+02 0.  0.
          3    1    3    3  502    0 -0.11056517244E+03  0.24208753545E+03  0.19663334727E+03  0.33090135303E+03  0.00000000000E+00 0. -1.
         -3    1    3    3    0  502 -0.59307283234E+02  0.11392145331E+03  0.24493994892E+02  0.13074940594E+03  0.00000000000E+00 0.  1.
         13    1    5    5    0    0 -0.12162569088E+03 -0.97772293206E+02  0.21545645679E+03  0.26603329636E+03  0.00000000000E+00 0. -1.
        -13    1    5    5    0    0 -0.10837998737E+03 -0.23805184387E+03  0.33569283566E+03  0.42556384004E+03  0.00000000000E+00 0.  1.
          3    1    6    6  503    0  0.35587975725E+03 -0.20828597187E+02 -0.73134773355E+02  0.36391335116E+03  0.00000000000E+00 0. -1.
         -3    1    6    6    0  503  0.43998376678E+02  0.64374549923E+00  0.20326358612E+02  0.48470944008E+02  0.00000000000E+00 0.  1.
<mgrwt>
<rscale>  0 0.13905285E+04</rscale>
<asrwt>0</asrwt>
<pdfrwt beam="1">  1        2 0.17577695E+00 0.13905285E+04</pdfrwt>
<pdfrwt beam="2">  1       -2 0.65089537E-01 0.13905285E+04</pdfrwt>
<totfact> 0.43496952E+01</totfact>
</mgrwt>
</event>
<event>
12    3  0.4773567E-008  0.2128784E+04  0.7818608E-02  0.8548669E-01
          1   -1    0    0  501    0  0.00000000000E+00  0.00000000000E+00  0.15185524551E+04  0.15185524551E+04  0.00000000000E+00 0. -1.
         -1   -1    0    0    0  501 -0.00000000000E+00 -0.00000000000E+00 -0.74605919849E+03  0.74605919849E+03  0.00000000000E+00 0.  1.
         23    2    1    2    0    0  0.71831767249E+03 -0.47730849978E+03  0.42827898121E+03  0.96847631236E+03  0.10353646356E+03 0.  0.
        254    2    1    2    0    0 -0.71831767249E+03  0.47730849978E+03  0.34421427542E+03  0.12961353412E+04  0.90425641985E+03 0.  0.
         23    2    4    4    0    0 -0.63062467823E+03  0.32739657073E+03  0.62747199022E+03  0.95238979782E+03  0.91919688709E+02 0.  0.
         23    2    4    4    0    0 -0.87692994265E+02  0.14991192905E+03 -0.28325771479E+03  0.34374554342E+03  0.88104585110E+02 0.  0.
          3    1    3    3  502    0  0.60844922638E+03 -0.37582732180E+03  0.38776344837E+03  0.81352143720E+03  0.00000000000E+00 0. -1.
         -3    1    3    3    0  502  0.10986844612E+03 -0.10148117798E+03  0.40515532839E+02  0.15495487517E+03  0.00000000000E+00 0.  1.
         13    1    5    5    0    0 -0.27436256542E+03  0.12761501340E+03  0.20989323501E+03  0.36826020563E+03  0.00000000000E+00 0. -1.
        -13    1    5    5    0    0 -0.35626211281E+03  0.19978155734E+03  0.41757875521E+03  0.58412959219E+03  0.00000000000E+00 0.  1.
          1    1    6    6  503    0 -0.55195840783E+00  0.38412622768E+02 -0.12814605691E+03  0.13378058958E+03  0.00000000000E+00 0. -1.
         -1    1    6    6    0  503 -0.87141035857E+02  0.11149930628E+03 -0.15511165788E+03  0.20996495384E+03  0.00000000000E+00 0.  1.
<mgrwt>
<rscale>  0 0.21287837E+04</rscale>
<asrwt>0</asrwt>
<pdfrwt beam="1">  1        1 0.23362345E+00 0.21287837E+04</pdfrwt>
<pdfrwt beam="2">  1       -1 0.11477834E+00 0.21287837E+04</pdfrwt>
<totfact> 0.40175577E+00</totfact>
</mgrwt>
</event>
<event>
12    3  0.4773567E-008  0.1526120E+04  0.7818608E-02  0.8867267E-01
          1   -1    0    0  501    0  0.00000000000E+00  0.00000000000E+00  0.27651968665E+03  0.27651968665E+03  0.00000000000E+00 0. -1.
         -1   -1    0    0    0  501 -0.00000000000E+00 -0.00000000000E+00 -0.21056741609E+04  0.21056741609E+04  0.00000000000E+00 0.  1.
         23    2    1    2    0    0 -0.20658754214E+03 -0.33518571651E+03 -0.10676345996E+04  0.11416565314E+04  0.92239472533E+02 0.  0.
        254    2    1    2    0    0  0.20658754214E+03  0.33518571651E+03 -0.76151987462E+03  0.12405373161E+04  0.89665625305E+03 0.  0.
         23    2    4    4    0    0  0.49861205602E+03  0.42239197760E+03 -0.51988740670E+03  0.84017692046E+03  0.92657308840E+02 0.  0.
         23    2    4    4    0    0 -0.29202451388E+03 -0.87206261091E+02 -0.24163246792E+03  0.40036039566E+03  0.94968142980E+02 0.  0.
          1    1    3    3  502    0  0.28484418658E+00 -0.56198136050E+02 -0.17646213978E+03  0.18519502803E+03  0.00000000000E+00 0. -1.
         -1    1    3    3    0  502 -0.20687238632E+03 -0.27898758046E+03 -0.89117245985E+03  0.95646150339E+03  0.00000000000E+00 0.  1.
         13    1    5    5    0    0  0.41643420378E+03  0.39338868218E+03 -0.45054312696E+03  0.72880807528E+03  0.00000000000E+00 0. -1.
        -13    1    5    5    0    0  0.82177852235E+02  0.29003295418E+02 -0.69344279738E+02  0.11136884517E+03  0.00000000000E+00 0.  1.
          2    1    6    6  503    0 -0.24432694968E+03 -0.92828074741E+02 -0.23573641879E+03  0.35197211387E+03  0.00000000000E+00 0. -1.
         -2    1    6    6    0  503 -0.47697564204E+02  0.56218136503E+01 -0.58960491355E+01  0.48388281796E+02  0.00000000000E+00 0.  1.
<mgrwt>
<rscale>  0 0.15261197E+04</rscale>
<asrwt>0</asrwt>
<pdfrwt beam="1">  1        1 0.42541489E-01 0.15261197E+04</pdfrwt>
<pdfrwt beam="2">  1       -1 0.32394988E+00 0.15261197E+04</pdfrwt>
<totfact> 0.21786447E+00</totfact>
</mgrwt>
</event>
<event>
12    3  0.4773567E-008  0.1189636E+04  0.7818608E-02  0.9121977E-01
         -1   -1    0    0    0  501 -0.00000000000E+00  0.00000000000E+00  0.23326569764E+03  0.23326569764E+03  0.00000000000E+00 0.  1.
          1   -1    0    0  501    0  0.00000000000E+00 -0.00000000000E+00 -0.15167603478E+04  0.15167603478E+04  0.00000000000E+00 0. -1.
         23    2    1    2    0    0 -0.21055546188E+03 -0.68367200922E+02 -0.43933145719E+03  0.49865287207E+03  0.81454778010E+02 0.  0.
        254    2    1    2    0    0  0.21055546188E+03  0.68367200922E+02 -0.84416319298E+03  0.12513731734E+04  0.89683646556E+03 0.  0.
         23    2    4    4    0    0  0.37088236432E+03  0.15227038578E+03 -0.30603427311E+02  0.41288594999E+03  0.93798930645E+02 0.  0.
         23    2    4    4    0    0 -0.16032690243E+03 -0.83903184863E+02 -0.81355976567E+03  0.83848722338E+03  0.91852443484E+02 0.  0.
          3    1    3    3  502    0 -0.12434455061E+03 -0.52971246033E+02 -0.34191466593E+03  0.36765902539E+03  0.00000000000E+00 0. -1.
         -3    1    3    3    0  502 -0.86210911277E+02 -0.15395954889E+02 -0.97416791259E+02  0.13099384668E+03  0.00000000000E+00 0.  1.
         13    1    5    5    0    0  0.43134427805E+02  0.74454174531E+01 -0.32571105790E+02  0.54560883749E+02  0.00000000000E+00 0. -1.
        -13    1    5    5    0    0  0.32774793651E+03  0.14482496833E+03  0.19676784788E+01  0.35832506625E+03  0.00000000000E+00 0.  1.
          3    1    6    6  503    0 -0.51294167878E+02 -0.20257320952E+02 -0.45540933852E+03  0.45873643448E+03  0.00000000000E+00 0.  1.
         -3    1    6    6    0  503 -0.10903273456E+03 -0.63645863911E+02 -0.35815042715E+03  0.37975078890E+03  0.00000000000E+00 0. -1.
<mgrwt>
<rscale>  0 0.11896355E+04</rscale>
<asrwt>0</asrwt>
<pdfrwt beam="1">  1        1 0.23334774E+00 0.11896355E+04</pdfrwt>
<pdfrwt beam="2">  1       -1 0.35887031E-01 0.11896355E+04</pdfrwt>
<totfact> 0.46785899E+01</totfact>
</mgrwt>
</event>
<event>
12    3  0.4773567E-008  0.2336230E+04  0.7818608E-02  0.8463771E-01
         -2   -1    0    0    0  501 -0.00000000000E+00  0.00000000000E+00  0.97445080614E+03  0.97445080614E+03  0.00000000000E+00 0.  1.
          2   -1    0    0  501    0  0.00000000000E+00 -0.00000000000E+00 -0.14002688017E+04  0.14002688017E+04  0.00000000000E+00 0. -1.
         23    2    1    2    0    0  0.24194494277E+03  0.47335022423E+03  0.67100314445E+03  0.86107957087E+03  0.92817117941E+02 0.  0.
        254    2    1    2    0    0 -0.24194494277E+03 -0.47335022423E+03 -0.10968211400E+04  0.15136400369E+04  0.89749192654E+03 0.  0.
         23    2    4    4    0    0 -0.54535570441E+03 -0.47168589392E+03 -0.77595819096E+03  0.10631436133E+04  0.90899953632E+02 0.  0.
         23    2    4    4    0    0  0.30341076164E+03 -0.16643303163E+01 -0.32086294903E+03  0.45049642363E+03  0.89068150131E+02 0.  0.
          3    1    3    3  502    0  0.73017866956E+02  0.23799601143E+03  0.33623971334E+03  0.41836689064E+03  0.00000000000E+00 0. -1.
         -3    1    3    3    0  502  0.16892707582E+03  0.23535421280E+03  0.33476343111E+03  0.44271268023E+03  0.00000000000E+00 0.  1.
         13    1    5    5    0    0 -0.12439884039E+03 -0.16137677360E+03 -0.22120293263E+03  0.30074619191E+03  0.00000000000E+00 0.  1.
        -13    1    5    5    0    0 -0.42095686402E+03 -0.31030912032E+03 -0.55475525833E+03  0.76239742141E+03  0.00000000000E+00 0. -1.
          1    1    6    6  503    0  0.23792662359E+03  0.16805396490E+02 -0.19774904443E+03  0.30983250981E+03  0.00000000000E+00 0. -1.
         -1    1    6    6    0  503  0.65484138050E+02 -0.18469726806E+02 -0.12311390459E+03  0.14066391381E+03  0.00000000000E+00 0.  1.
<mgrwt>
<rscale>  0 0.23362304E+04</rscale>
<asrwt>0</asrwt>
<pdfrwt beam="1">  1        2 0.21542597E+00 0.23362304E+04</pdfrwt>
<pdfrwt beam="2">  1       -2 0.14991551E+00 0.23362304E+04</pdfrwt>
<totfact> 0.39242568E+00</totfact>
</mgrwt>
</event>
<event>
12    3  0.4773567E-008  0.1953447E+04  0.7818608E-02  0.8628701E-01
         -2   -1    0    0    0  501 -0.00000000000E+00  0.00000000000E+00  0.77368720774E+03  0.77368720774E+03  0.00000000000E+00 0. -1.
          2   -1    0    0  501    0  0.00000000000E+00 -0.00000000000E+00 -0.12330415467E+04  0.12330415467E+04  0.00000000000E+00 0.  1.
         23    2    1    2    0    0  0.70505044419E+03 -0.23757665566E+03 -0.36815377448E+03  0.83504057854E+03  0.90646400770E+02 0.  0.
        254    2    1    2    0    0 -0.70505044419E+03  0.23757665566E+03 -0.91200564445E+02  0.11716881759E+04  0.90055363103E+03 0.  0.
         23    2    4    4    0    0 -0.26543046526E+03  0.29245817224E+03 -0.44147618355E+03  0.59954442818E+03  0.92559096374E+02 0.  0.
         23    2    4    4    0    0 -0.43961997893E+03 -0.54881516586E+02  0.35027561911E+03  0.57214374769E+03  0.91530060323E+02 0.  0.
          4    1    3    3  502    0  0.19230535633E+03 -0.79206900751E+02 -0.14662938921E+03  0.25447055032E+03  0.00000000000E+00 0. -1.
         -4    1    3    3    0  502  0.51274508786E+03 -0.15836975490E+03 -0.22152438527E+03  0.58057002822E+03  0.00000000000E+00 0.  1.
         13    1    5    5    0    0 -0.22754891328E+03  0.20017823127E+03 -0.36119128900E+03  0.47149653176E+03  0.00000000000E+00 0. -1.
        -13    1    5    5    0    0 -0.37881551984E+02  0.92279940969E+02 -0.80284894554E+02  0.12804789643E+03  0.00000000000E+00 0.  1.
          2    1    6    6  503    0 -0.43578437848E+03 -0.62664831240E+02  0.35151238071E+03  0.56337896606E+03  0.00000000000E+00 0. -1.
         -2    1    6    6    0  503 -0.38356004461E+01  0.77833146539E+01 -0.12367616028E+01  0.87647816314E+01  0.00000000000E+00 0.  1.
<mgrwt>
<rscale>  0 0.19534467E+04</rscale>
<asrwt>0</asrwt>
<pdfrwt beam="1">  1        2 0.18969870E+00 0.19534467E+04</pdfrwt>
<pdfrwt beam="2">  1       -2 0.11902880E+00 0.19534467E+04</pdfrwt>
<totfact> 0.91480031E+00</totfact>
</mgrwt>
</event>
<event>
12    3  0.4773567E-008  0.1507160E+04  0.7818608E-02  0.8879705E-01
          4   -1    0    0  501    0  0.00000000000E+00  0.00000000000E+00  0.19947646731E+04  0.19947646731E+04  0.00000000000E+00 0. -1.
         -4   -1    0    0    0  501 -0.00000000000E+00 -0.00000000000E+00 -0.28468664182E+03  0.28468664182E+03  0.00000000000E+00 0.  1.
         23    2    1    2    0    0  0.26230414134E+03 -0.39561130543E+03  0.41472627241E+03  0.63693223302E+03  0.91504212390E+02 0.  0.
        254    2    1    2    0    0 -0.26230414134E+03  0.39561130543E+03  0.12953517588E+04  0.16425190819E+04  0.89141516008E+03 0.  0.
         23    2    4    4    0    0 -0.56442290298E+03  0.10923101512E+03  0.78777566966E+03  0.97948724607E+03  0.91105057155E+02 0.  0.
         23    2    4    4    0    0  0.30211876164E+03  0.28638029031E+03  0.50757608918E+03  0.66303183579E+03  0.93211116057E+02 0.  0.
          2    1    3    3  502    0  0.12514147479E+03 -0.20528110377E+03  0.15075114527E+03  0.28377214113E+03  0.00000000000E+00 0. -1.
         -2    1    3    3    0  502  0.13716266655E+03 -0.19033020165E+03  0.26397512714E+03  0.35316009189E+03  0.00000000000E+00 0.  1.
         13    1    5    5    0    0 -0.22776203467E+03  0.18172559206E+02  0.37474687376E+03  0.43890888090E+03  0.00000000000E+00 0. -1.
        -13    1    5    5    0    0 -0.33666086831E+03  0.91058455911E+02  0.41302879590E+03  0.54057836516E+03  0.00000000000E+00 0.  1.
          3    1    6    6  503    0  0.21127832313E+03  0.19172988478E+03  0.27645670216E+03  0.39727469931E+03  0.00000000000E+00 0. -1.
         -3    1    6    6    0  503  0.90840438507E+02  0.94650405532E+02  0.23111938702E+03  0.26575713648E+03  0.00000000000E+00 0.  1.
<mgrwt>
<rscale>  0 0.15071601E+04</rscale>
<asrwt>0</asrwt>
<pdfrwt beam="1">  1        4 0.30688686E+00 0.15071601E+04</pdfrwt>
<pdfrwt beam="2">  1       -4 0.43797946E-01 0.15071601E+04</pdfrwt>
<totfact> 0.27595984E-01</totfact>
</mgrwt>
</event>
<event>
12    3  0.4773567E-008  0.1766855E+04  0.7818608E-02  0.8724127E-01
         -1   -1    0    0    0  501 -0.00000000000E+00  0.00000000000E+00  0.98535492228E+03  0.98535492228E+03  0.00000000000E+00 0.  1.
          1   -1    0    0  501    0  0.00000000000E+00 -0.00000000000E+00 -0.79204331016E+03  0.79204331016E+03  0.00000000000E+00 0. -1.
         23    2    1    2    0    0  0.28718827064E+03  0.62012516212E+02  0.65725703862E+03  0.72555775965E+03  0.90136523137E+02 0.  0.
        254    2    1    2    0    0 -0.28718827064E+03 -0.62012516212E+02 -0.46394542650E+03  0.10518404728E+04  0.89710666393E+03 0.  0.
         23    2    4    4    0    0 -0.12594286648E+03 -0.62313042087E+02  0.25778544785E+03  0.30739722484E+03  0.91077965979E+02 0.  0.
         23    2    4    4    0    0 -0.16124540416E+03  0.30052587510E+00 -0.72173087435E+03  0.74444324795E+03  0.85440761646E+02 0.  0.
          4    1    3    3  502    0  0.11545257874E+03 -0.99836962298E+01  0.31952710887E+03  0.33989196140E+03  0.00000000000E+00 0. -1.
         -4    1    3    3    0  502  0.17173569191E+03  0.71996212442E+02  0.33772992976E+03  0.38566579824E+03  0.00000000000E+00 0.  1.
         13    1    5    5    0    0 -0.40269044628E+01 -0.22611897519E+02  0.10714276855E+03  0.10957685304E+03  0.00000000000E+00 0. -1.
        -13    1    5    5    0    0 -0.12191596202E+03 -0.39701144568E+02  0.15064267930E+03  0.19782037181E+03  0.00000000000E+00 0.  1.
          3    1    6    6  503    0 -0.16888586204E+03  0.66833461723E+01 -0.63375561395E+03  0.65590645653E+03  0.00000000000E+00 0. -1.
         -3    1    6    6    0  503  0.76404578787E+01 -0.63828202972E+01 -0.87975260397E+02  0.88536791412E+02  0.00000000000E+00 0.  1.
<mgrwt>
<rscale>  0 0.17668546E+04</rscale>
<asrwt>0</asrwt>
<pdfrwt beam="1">  1        1 0.12185282E+00 0.17668546E+04</pdfrwt>
<pdfrwt beam="2">  1       -1 0.15159306E+00 0.17668546E+04</pdfrwt>
<totfact> 0.72090397E+00</totfact>
</mgrwt>
</event>
<event>
12    3  0.4773567E-008  0.2769285E+04  0.7818608E-02  0.8312868E-01
         -2   -1    0    0    0  501 -0.00000000000E+00  0.00000000000E+00  0.50972786292E+03  0.50972786292E+03  0.00000000000E+00 0.  1.
          2   -1    0    0  501    0  0.00000000000E+00 -0.00000000000E+00 -0.37612914254E+04  0.37612914254E+04  0.00000000000E+00 0. -1.
         23    2    1    2    0    0 -0.19004107767E+03 -0.78461482345E+03 -0.29027123141E+04  0.30142562391E+04  0.90916799955E+02 0.  0.
        254    2    1    2    0    0  0.19004107767E+03  0.78461482345E+03 -0.34885124847E+03  0.12567630492E+04  0.89778624183E+03 0.  0.
         23    2    4    4    0    0  0.43278985394E+02 -0.16367180454E+03 -0.20684621306E+03  0.28178652795E+03  0.89200679927E+02 0.  0.
         23    2    4    4    0    0  0.14676209228E+03  0.94828662799E+03 -0.14200503541E+03  0.97497652130E+03  0.98118023000E+02 0.  0.
          1    1    3    3  502    0 -0.17294090436E+03 -0.76085157555E+03 -0.27399634088E+04  0.28488950767E+04  0.00000000000E+00 0. -1.
         -1    1    3    3    0  502 -0.17100173317E+02 -0.23763247899E+02 -0.16274890526E+03  0.16536116244E+03  0.00000000000E+00 0.  1.
         13    1    5    5    0    0 -0.16703315103E+02 -0.96534841424E+02 -0.81372555795E+02  0.12735567981E+03  0.00000000000E+00 0. -1.
        -13    1    5    5    0    0  0.59982300497E+02 -0.67136963120E+02 -0.12547365726E+03  0.15443084814E+03  0.00000000000E+00 0.  1.
          2    1    6    6  503    0  0.10242169377E+03  0.39414259497E+03 -0.86306450891E+02  0.41627802247E+03  0.00000000000E+00 0. -1.
         -2    1    6    6    0  503  0.44340398504E+02  0.55414403303E+03 -0.55698584519E+02  0.55869849883E+03  0.00000000000E+00 0.  1.
<mgrwt>
<rscale>  0 0.27692851E+04</rscale>
<asrwt>0</asrwt>
<pdfrwt beam="1">  1        2 0.57866022E+00 0.27692851E+04</pdfrwt>
<pdfrwt beam="2">  1       -2 0.78419672E-01 0.27692851E+04</pdfrwt>
<totfact> 0.66282346E-01</totfact>
</mgrwt>
</event>
<event>
12    3  0.4773567E-008  0.1859490E+04  0.7818608E-02  0.8675288E-01
          2   -1    0    0  501    0  0.00000000000E+00  0.00000000000E+00  0.29177486515E+04  0.29177486515E+04  0.00000000000E+00 0. -1.
         -2   -1    0    0    0  501 -0.00000000000E+00 -0.00000000000E+00 -0.29626462419E+03  0.29626462419E+03  0.00000000000E+00 0.  1.
         23    2    1    2    0    0 -0.16362594006E+03  0.68435209637E+03  0.83454590991E+03  0.10952028701E+04  0.88832487044E+02 0.  0.
        254    2    1    2    0    0  0.16362594006E+03 -0.68435209637E+03  0.17869381174E+04  0.21188104057E+04  0.89504103794E+03 0.  0.
         23    2    4    4    0    0  0.49538720530E+03 -0.28284818448E+03  0.68201488044E+03  0.89378952000E+03  0.91125354784E+02 0.  0.
         23    2    4    4    0    0 -0.33176126524E+03 -0.40150391189E+03  0.11049232370E+04  0.12250208857E+04  0.92465573668E+02 0.  0.
          2    1    3    3  502    0 -0.88054493867E+02  0.50479856397E+03  0.56689825020E+03  0.76416543376E+03  0.00000000000E+00 0. -1.
         -2    1    3    3    0  502 -0.75571446192E+02  0.17955353240E+03  0.26764765971E+03  0.33103743629E+03  0.00000000000E+00 0.  1.
         13    1    5    5    0    0  0.47672054156E+03 -0.28932625112E+03  0.65336087718E+03  0.85898346326E+03  0.00000000000E+00 0.  1.
        -13    1    5    5    0    0  0.18666663739E+02  0.64780666446E+01  0.28654003264E+02  0.34806056738E+02  0.00000000000E+00 0. -1.
          2    1    6    6  503    0 -0.17021888764E+03 -0.18917787044E+03  0.43567458584E+03  0.50455433912E+03  0.00000000000E+00 0. -1.
         -2    1    6    6    0  503 -0.16154237760E+03 -0.21232604145E+03  0.66924865116E+03  0.72046654657E+03  0.00000000000E+00 0.  1.
<mgrwt>
<rscale>  0 0.18594899E+04</rscale>
<asrwt>0</asrwt>
<pdfrwt beam="1">  1        2 0.44888439E+00 0.18594899E+04</pdfrwt>
<pdfrwt beam="2">  1       -2 0.45579175E-01 0.18594899E+04</pdfrwt>
<totfact> 0.84261402E+00</totfact>
</mgrwt>
</event>
<event>
12    3  0.4773567E-008  0.1773675E+04  0.7818608E-02  0.8720425E-01
          1   -1    0    0  501    0  0.00000000000E+00  0.00000000000E+00  0.20492968721E+04  0.20492968721E+04  0.00000000000E+00 0. -1.
         -1   -1    0    0    0  501 -0.00000000000E+00 -0.00000000000E+00 -0.38378080493E+03  0.38378080493E+03  0.00000000000E+00 0.  1.
         23    2    1    2    0    0 -0.45073152118E+03  0.16548056549E+03  0.12361800083E+04  0.13290444817E+04  0.87609929202E+02 0.  0.
        254    2    1    2    0    0  0.45073152118E+03 -0.16548056549E+03  0.42933605880E+03  0.11040331953E+04  0.89667001907E+03 0.  0.
         23    2    4    4    0    0  0.30425493775E+03 -0.52082259442E+03  0.17749880550E+03  0.63543619028E+03  0.91902578627E+02 0.  0.
         23    2    4    4    0    0  0.14647658343E+03  0.35534202893E+03  0.25183725330E+03  0.46859700498E+03  0.91857519598E+02 0.  0.
          2    1    3    3  502    0 -0.11656249567E+03  0.70244755994E+02  0.43409852921E+03  0.45493150496E+03  0.00000000000E+00 0. -1.
         -2    1    3    3    0  502 -0.33416902551E+03  0.95235809496E+02  0.80208147912E+03  0.87411297677E+03  0.00000000000E+00 0.  1.
         13    1    5    5    0    0  0.27965644520E+03 -0.40797888882E+03  0.14174424382E+03  0.51453467495E+03  0.00000000000E+00 0.  1.
        -13    1    5    5    0    0  0.24598492551E+02 -0.11284370559E+03  0.35754561679E+02  0.12090151533E+03  0.00000000000E+00 0. -1.
          1    1    6    6  503    0  0.32259213767E+02  0.48160756647E+02  0.47503940122E+01  0.58160825277E+02  0.00000000000E+00 0. -1.
         -1    1    6    6    0  503  0.11421736966E+03  0.30718127228E+03  0.24708685929E+03  0.41043617970E+03  0.00000000000E+00 0.  1.
<mgrwt>
<rscale>  0 0.17736751E+04</rscale>
<asrwt>0</asrwt>
<pdfrwt beam="1">  1        1 0.31527643E+00 0.17736751E+04</pdfrwt>
<pdfrwt beam="2">  1       -1 0.59043202E-01 0.17736751E+04</pdfrwt>
<totfact> 0.75879852E+00</totfact>
</mgrwt>
</event>
<event>
12    3  0.4773567E-008  0.1507659E+04  0.7818608E-02  0.8879376E-01
          1   -1    0    0  501    0  0.00000000000E+00  0.00000000000E+00  0.11122247170E+04  0.11122247170E+04  0.00000000000E+00 0. -1.
         -1   -1    0    0    0  501 -0.00000000000E+00 -0.00000000000E+00 -0.51092100220E+03  0.51092100220E+03  0.00000000000E+00 0.  1.
         23    2    1    2    0    0  0.84039495294E+01 -0.10272629735E+03  0.69550483940E+03  0.70895617141E+03  0.90931583192E+02 0.  0.
        254    2    1    2    0    0 -0.84039495294E+01  0.10272629735E+03 -0.94201124601E+02  0.91418954779E+03  0.90346298147E+03 0.  0.
         23    2    4    4    0    0 -0.94449175137E+02  0.59794097934E+02  0.38859051856E+03  0.41443545832E+03  0.90874513296E+02 0.  0.
         23    2    4    4    0    0  0.86045225607E+02  0.42932199414E+02 -0.48279164316E+03  0.49975408947E+03  0.86136082127E+02 0.  0.
          4    1    3    3  502    0 -0.39341879545E+02 -0.27281318800E+02  0.26509222091E+03  0.26938065897E+03  0.00000000000E+00 0. -1.
         -4    1    3    3    0  502  0.47745829074E+02 -0.75444978547E+02  0.43041261849E+03  0.43957551244E+03  0.00000000000E+00 0.  1.
         13    1    5    5    0    0  0.48495603832E+01 -0.12043431495E+02  0.96738428093E+01  0.16190914513E+02  0.00000000000E+00 0. -1.
        -13    1    5    5    0    0 -0.99298735520E+02  0.71837529428E+02  0.37891667575E+03  0.39824454381E+03  0.00000000000E+00 0.  1.
          4    1    6    6  503    0 -0.31416966633E+01 -0.70754580891E+01 -0.17995266831E+03  0.18011911392E+03  0.00000000000E+00 0. -1.
         -4    1    6    6    0  503  0.89186922271E+02  0.50007657503E+02 -0.30283897485E+03  0.31963497556E+03  0.00000000000E+00 0.  1.
<mgrwt>
<rscale>  0 0.15076591E+04</rscale>
<asrwt>0</asrwt>
<pdfrwt beam="1">  1        1 0.17111149E+00 0.15076591E+04</pdfrwt>
<pdfrwt beam="2">  1       -1 0.78603231E-01 0.15076591E+04</pdfrwt>
<totfact> 0.19436814E+01</totfact>
</mgrwt>
</event>
<event>
12    3  0.4773567E-008  0.1852189E+04  0.7818608E-02  0.8679028E-01
         -1   -1    0    0    0  501 -0.00000000000E+00  0.00000000000E+00  0.11362113721E+04  0.11362113721E+04  0.00000000000E+00 0. -1.
          1   -1    0    0  501    0  0.00000000000E+00 -0.00000000000E+00 -0.75483365387E+03  0.75483365387E+03  0.00000000000E+00 0.  1.
         23    2    1    2    0    0 -0.27594876549E+03  0.66833819706E+03  0.17620258601E+03  0.75158771406E+03  0.10494319316E+03 0.  0.
        254    2    1    2    0    0  0.27594876549E+03 -0.66833819706E+03  0.20517513225E+03  0.11394573119E+04  0.85641255481E+03 0.  0.
         23    2    4    4    0    0 -0.27710529268E+03 -0.28330339011E+03  0.21316343847E+03  0.45930089332E+03  0.92035346639E+02 0.  0.
         23    2    4    4    0    0  0.55305405816E+03 -0.38503480695E+03 -0.79883062265E+01  0.68015641862E+03  0.91806028885E+02 0.  0.
          3    1    3    3  502    0 -0.37843725977E+02  0.15026267355E+03  0.49394464571E+00  0.15495567960E+03  0.00000000000E+00 0. -1.
         -3    1    3    3    0  502 -0.23810503951E+03  0.51807552350E+03  0.17570864136E+03  0.59663203446E+03  0.00000000000E+00 0.  1.
         13    1    5    5    0    0 -0.11802265102E+03 -0.18622568075E+03  0.11500489261E+03  0.24866739965E+03  0.00000000000E+00 0.  1.
        -13    1    5    5    0    0 -0.15908264166E+03 -0.97077709353E+02  0.98158545860E+02  0.21063349367E+03  0.00000000000E+00 0. -1.
          1    1    6    6  503    0  0.39009845098E+03 -0.28820505334E+03  0.33307622658E+02  0.48615671543E+03  0.00000000000E+00 0. -1.
         -1    1    6    6    0  503  0.16295560718E+03 -0.96829753614E+02 -0.41295928885E+02  0.19399970319E+03  0.00000000000E+00 0.  1.
<mgrwt>
<rscale>  0 0.18521885E+04</rscale>
<asrwt>0</asrwt>
<pdfrwt beam="1">  1        1 0.11612825E+00 0.18521885E+04</pdfrwt>
<pdfrwt beam="2">  1       -1 0.17480175E+00 0.18521885E+04</pdfrwt>
<totfact> 0.51690967E+00</totfact>
</mgrwt>
</event>
<event>
12    3  0.4773567E-008  0.1087320E+04  0.7818608E-02  0.9217640E-01
          1   -1    0    0  501    0  0.00000000000E+00  0.00000000000E+00  0.15152237110E+04  0.15152237110E+04  0.00000000000E+00 0. -1.
         -1   -1    0    0    0  501 -0.00000000000E+00 -0.00000000000E+00 -0.19506428821E+03  0.19506428821E+03  0.00000000000E+00 0.  1.
         23    2    1    2    0    0 -0.47085966999E+02  0.17777953584E+03  0.10573382789E+03  0.23186300570E+03  0.93585038332E+02 0.  0.
        254    2    1    2    0    0  0.47085966999E+02 -0.17777953584E+03  0.12144255949E+04  0.14784249935E+04  0.82285374415E+03 0.  0.
         23    2    4    4    0    0 -0.90943381158E+02 -0.46415337213E+03  0.90646032622E+03  0.10265689716E+04  0.92002603691E+02 0.  0.
         23    2    4    4    0    0  0.13802934816E+03  0.28637383629E+03  0.30796526870E+03  0.45185602189E+03  0.90935046776E+02 0.  0.
          2    1    3    3  502    0 -0.51615715822E+02  0.10744914527E+03  0.19982733368E+02  0.12086691264E+03  0.00000000000E+00 0.  1.
         -2    1    3    3    0  502  0.45297488226E+01  0.70330390573E+02  0.85751094520E+02  0.11099609306E+03  0.00000000000E+00 0. -1.
         13    1    5    5    0    0  0.12691789683E+02 -0.10906858642E+02  0.26840868547E+02  0.31630259486E+02  0.00000000000E+00 0.  1.
        -13    1    5    5    0    0 -0.10363517084E+03 -0.45324651349E+03  0.87961945767E+03  0.99493871216E+03  0.00000000000E+00 0. -1.
          1    1    6    6  503    0  0.84146226932E+02  0.22945075943E+03  0.18705504903E+03  0.30776261936E+03  0.00000000000E+00 0. -1.
         -1    1    6    6    0  503  0.53883121226E+02  0.56923076863E+02  0.12091021967E+03  0.14409340254E+03  0.00000000000E+00 0.  1.
<mgrwt>
<rscale>  0 0.10873197E+04</rscale>
<asrwt>0</asrwt>
<pdfrwt beam="1">  1        1 0.23311133E+00 0.10873197E+04</pdfrwt>
<pdfrwt beam="2">  1       -1 0.30009891E-01 0.10873197E+04</pdfrwt>
<totfact> 0.64921799E+01</totfact>
</mgrwt>
</event>
<event>
12    3  0.4773567E-008  0.1570033E+04  0.7818608E-02  0.8839172E-01
         -2   -1    0    0    0  501 -0.00000000000E+00  0.00000000000E+00  0.44963290219E+03  0.44963290219E+03  0.00000000000E+00 0.  1.
          2   -1    0    0  501    0  0.00000000000E+00 -0.00000000000E+00 -0.13705648032E+04  0.13705648032E+04  0.00000000000E+00 0. -1.
         23    2    1    2    0    0  0.37715881511E+03  0.16243032734E+03  0.71030521680E+02  0.42613264910E+03  0.88945582042E+02 0.  0.
        254    2    1    2    0    0 -0.37715881511E+03 -0.16243032734E+03 -0.99196242271E+03  0.13940650563E+04  0.88926686103E+03 0.  0.
         23    2    4    4    0    0 -0.48617132658E+03 -0.27125529301E+03 -0.10620677012E+04  0.12026061606E+04  0.91278598857E+02 0.  0.
         23    2    4    4    0    0  0.10901251148E+03  0.10882496567E+03  0.70105278535E+02  0.19145889576E+03  0.89527414097E+02 0.  0.
          2    1    3    3  502    0  0.35626768767E+02  0.48000441452E+02  0.55185091766E+01  0.60031349942E+02  0.00000000000E+00 0. -1.
         -2    1    3    3    0  502  0.34153204634E+03  0.11442988589E+03  0.65512012504E+02  0.36610129916E+03  0.00000000000E+00 0.  1.
         13    1    5    5    0    0 -0.43465066999E+01 -0.67951646567E+01 -0.52524563750E+02  0.53140344187E+02  0.00000000000E+00 0.  1.
        -13    1    5    5    0    0 -0.48182481988E+03 -0.26446012836E+03 -0.10095431375E+04  0.11494658164E+04  0.00000000000E+00 0. -1.
          3    1    6    6  503    0  0.29742767285E+02  0.37191310925E+02  0.69944862802E+02  0.84617431103E+02  0.00000000000E+00 0. -1.
         -3    1    6    6    0  503  0.79269744191E+02  0.71633654745E+02  0.16041573251E+00  0.10684146465E+03  0.00000000000E+00 0.  1.
<mgrwt>
<rscale>  0 0.15700332E+04</rscale>
<asrwt>0</asrwt>
<pdfrwt beam="1">  1        2 0.21085612E+00 0.15700332E+04</pdfrwt>
<pdfrwt beam="2">  1       -2 0.69174293E-01 0.15700332E+04</pdfrwt>
<totfact> 0.27585454E+01</totfact>
</mgrwt>
</event>
<event>
12    3  0.4773567E-008  0.1575787E+04  0.7818608E-02  0.8835563E-01
         -2   -1    0    0    0  501 -0.00000000000E+00  0.00000000000E+00  0.37330592873E+03  0.37330592873E+03  0.00000000000E+00 0.  1.
          2   -1    0    0  501    0  0.00000000000E+00 -0.00000000000E+00 -0.16629146573E+04  0.16629146573E+04  0.00000000000E+00 0. -1.
         23    2    1    2    0    0 -0.20040897423E+03 -0.16161767935E+03  0.15573282016E+03  0.31625027231E+03  0.97352412565E+02 0.  0.
        254    2    1    2    0    0  0.20040897423E+03  0.16161767935E+03 -0.14453415487E+04  0.17199703137E+04  0.89610359690E+03 0.  0.
         23    2    4    4    0    0 -0.36908723354E+02 -0.34279564300E+03 -0.68701001020E+03  0.77435336354E+03  0.93644384774E+02 0.  0.
         23    2    4    4    0    0  0.23731769759E+03  0.50441332235E+03 -0.75833153855E+03  0.94561695019E+03  0.91499752978E+02 0.  0.
          3    1    3    3  502    0 -0.13749556962E+03 -0.48862917613E+02  0.76464038621E+02  0.16474029739E+03  0.00000000000E+00 0. -1.
         -3    1    3    3    0  502 -0.62913404615E+02 -0.11275476174E+03  0.79268781540E+02  0.15150997492E+03  0.00000000000E+00 0.  1.
         13    1    5    5    0    0 -0.19289995520E+02 -0.67189453052E+01 -0.47258312870E+02  0.51483942045E+02  0.00000000000E+00 0. -1.
        -13    1    5    5    0    0 -0.17618727834E+02 -0.33607669769E+03 -0.63975169733E+03  0.72286942150E+03  0.00000000000E+00 0.  1.
          1    1    6    6  503    0  0.52249587231E+02  0.45199520902E+02 -0.77911139567E+02  0.10413050333E+03  0.00000000000E+00 0. -1.
         -1    1    6    6    0  503  0.18506811035E+03  0.45921380144E+03 -0.68042039898E+03  0.84148644686E+03  0.00000000000E+00 0.  1.
<mgrwt>
<rscale>  0 0.15757867E+04</rscale>
<asrwt>0</asrwt>
<pdfrwt beam="1">  1        2 0.25583303E+00 0.15757867E+04</pdfrwt>
<pdfrwt beam="2">  1       -2 0.57431679E-01 0.15757867E+04</pdfrwt>
<totfact> 0.28058521E+01</totfact>
</mgrwt>
</event>
<event>
12    3  0.4773567E-008  0.1779813E+04  0.7818608E-02  0.8717109E-01
         -2   -1    0    0    0  501 -0.00000000000E+00  0.00000000000E+00  0.53413442568E+03  0.53413442568E+03  0.00000000000E+00 0.  1.
          2   -1    0    0  501    0  0.00000000000E+00 -0.00000000000E+00 -0.14826478893E+04  0.14826478893E+04  0.00000000000E+00 0. -1.
         23    2    1    2    0    0 -0.67615381871E+02  0.78829399853E+02  0.38751638748E+03  0.41172111388E+03  0.92517084390E+02 0.  0.
        254    2    1    2    0    0  0.67615381871E+02 -0.78829399853E+02 -0.13360298511E+04  0.16050612011E+04  0.88343634863E+03 0.  0.
         23    2    4    4    0    0 -0.37238842186E+03 -0.15519776810E+03 -0.46432426486E+03  0.62192402758E+03  0.91831308352E+02 0.  0.
         23    2    4    4    0    0  0.44000380373E+03  0.76368368251E+02 -0.87170558622E+03  0.98313717349E+03  0.85162185812E+02 0.  0.
          4    1    3    3  502    0  0.36885704006E+01 -0.77857254992E+01  0.34415309064E+00  0.86221525444E+01  0.00000000000E+00 0. -1.
         -4    1    3    3    0  502 -0.71303952272E+02  0.86615125352E+02  0.38717223439E+03  0.40309896134E+03  0.00000000000E+00 0.  1.
         13    1    5    5    0    0 -0.11652903567E+01 -0.11790203611E+02 -0.21787471656E+01  0.12046316533E+02  0.00000000000E+00 0.  1.
        -13    1    5    5    0    0 -0.37122313150E+03 -0.14340756449E+03 -0.46214551769E+03  0.60987771105E+03  0.00000000000E+00 0. -1.
          2    1    6    6  503    0  0.32503813231E+03  0.52645233937E+02 -0.55435904430E+03  0.64477535477E+03  0.00000000000E+00 0. -1.
         -2    1    6    6    0  503  0.11496567142E+03  0.23723134314E+02 -0.31734654192E+03  0.33836181873E+03  0.00000000000E+00 0.  1.
<mgrwt>
<rscale>  0 0.17798127E+04</rscale>
<asrwt>0</asrwt>
<pdfrwt beam="1">  1        2 0.22809967E+00 0.17798127E+04</pdfrwt>
<pdfrwt beam="2">  1       -2 0.82174529E-01 0.17798127E+04</pdfrwt>
<totfact> 0.15974220E+01</totfact>
</mgrwt>
</event>
<event>
12    3  0.4773567E-008  0.1526412E+04  0.7818608E-02  0.8867077E-01
          2   -1    0    0  501    0  0.00000000000E+00  0.00000000000E+00  0.83203842434E+03  0.83203842434E+03  0.00000000000E+00 0.  1.
         -2   -1    0    0    0  501 -0.00000000000E+00 -0.00000000000E+00 -0.70006752505E+03  0.70006752505E+03  0.00000000000E+00 0. -1.
         23    2    1    2    0    0  0.12258226062E+03  0.32222328743E+03  0.39786860231E+03  0.53372305962E+03  0.87787368607E+02 0.  0.
        254    2    1    2    0    0 -0.12258226062E+03 -0.32222328743E+03 -0.26589770302E+03  0.99838288976E+03  0.89845008126E+03 0.  0.
         23    2    4    4    0    0  0.15550542230E+03 -0.39475998431E+03  0.17190802867E+03  0.46671724460E+03  0.90858321078E+02 0.  0.
         23    2    4    4    0    0 -0.27808768291E+03  0.72536696872E+02 -0.43780573169E+03  0.53166564516E+03  0.91652429105E+02 0.  0.
          3    1    3    3  502    0  0.19355933382E+02  0.22411613160E+02  0.70294883178E+01  0.30435937106E+02  0.00000000000E+00 0. -1.
         -3    1    3    3    0  502  0.10322632723E+03  0.29981167427E+03  0.39083911399E+03  0.50328712252E+03  0.00000000000E+00 0.  1.
         13    1    5    5    0    0 -0.16193107108E+01 -0.86723709213E+02  0.49660564841E+02  0.99948965013E+02  0.00000000000E+00 0. -1.
        -13    1    5    5    0    0  0.15712473301E+03 -0.30803627509E+03  0.12224746383E+03  0.36676827958E+03  0.00000000000E+00 0.  1.
          3    1    6    6  503    0 -0.57954936725E+02  0.53360759805E+02 -0.14269706648E+03  0.16299876736E+03  0.00000000000E+00 0. -1.
         -3    1    6    6    0  503 -0.22013274619E+03  0.19175937067E+02 -0.29510866521E+03  0.36866687780E+03  0.00000000000E+00 0.  1.
<mgrwt>
<rscale>  0 0.15264116E+04</rscale>
<asrwt>0</asrwt>
<pdfrwt beam="1">  1        2 0.12800591E+00 0.15264116E+04</pdfrwt>
<pdfrwt beam="2">  1       -2 0.10770270E+00 0.15264116E+04</pdfrwt>
<totfact> 0.21788687E+01</totfact>
</mgrwt>
</event>
<event>
12    3  0.4773567E-008  0.1631779E+04  0.7818608E-02  0.8801259E-01
          2   -1    0    0  501    0  0.00000000000E+00  0.00000000000E+00  0.17925112558E+04  0.17925112558E+04  0.00000000000E+00 0. -1.
         -2   -1    0    0    0  501 -0.00000000000E+00 -0.00000000000E+00 -0.37136504615E+03  0.37136504615E+03  0.00000000000E+00 0.  1.
         23    2    1    2    0    0  0.27988994737E+03 -0.25187944491E+03  0.10517601779E+04  0.11208634173E+04  0.91398527716E+02 0.  0.
        254    2    1    2    0    0 -0.27988994737E+03  0.25187944491E+03  0.36938603173E+03  0.10430128847E+04  0.89980453422E+03 0.  0.
         23    2    4    4    0    0  0.13904193659E+03  0.32829510508E+03  0.46937322769E+03  0.59639075935E+03  0.90886604147E+02 0.  0.
         23    2    4    4    0    0 -0.41893188397E+03 -0.76415660178E+02 -0.99987195960E+02  0.44662212535E+03  0.90169878406E+02 0.  0.
          3    1    3    3  502    0  0.18547155137E+03 -0.22013029584E+03  0.78496139930E+03  0.83607502169E+03  0.00000000000E+00 0. -1.
         -3    1    3    3    0  502  0.94418396000E+02 -0.31749149068E+02  0.26679877865E+03  0.28478839558E+03  0.00000000000E+00 0.  1.
         13    1    5    5    0    0  0.20754912806E+02  0.40729368611E+01  0.42337220116E+02  0.47326477023E+02  0.00000000000E+00 0. -1.
        -13    1    5    5    0    0  0.11828702379E+03  0.32422216822E+03  0.42703600757E+03  0.54906428232E+03  0.00000000000E+00 0.  1.
          1    1    6    6  503    0 -0.30369351147E+02  0.16587048932E+02  0.63070797476E+00  0.34609615339E+02  0.00000000000E+00 0. -1.
         -1    1    6    6    0  503 -0.38856253282E+03 -0.93002709111E+02 -0.10061790393E+03  0.41201251001E+03  0.00000000000E+00 0.  1.
<mgrwt>
<rscale>  0 0.16317794E+04</rscale>
<asrwt>0</asrwt>
<pdfrwt beam="1">  1        2 0.27577096E+00 0.16317794E+04</pdfrwt>
<pdfrwt beam="2">  1       -2 0.57133085E-01 0.16317794E+04</pdfrwt>
<totfact> 0.23927295E+01</totfact>
</mgrwt>
</event>
<event>
12    3  0.4773567E-008  0.1603295E+04  0.7818608E-02  0.8818526E-01
         -2   -1    0    0    0  501 -0.00000000000E+00  0.00000000000E+00  0.52909713468E+03  0.52909713468E+03  0.00000000000E+00 0.  1.
          2   -1    0    0  501    0  0.00000000000E+00 -0.00000000000E+00 -0.12145953760E+04  0.12145953760E+04  0.00000000000E+00 0. -1.
         23    2    1    2    0    0  0.13472254879E+03  0.70463954079E+01  0.34240941581E+03  0.37919207480E+03  0.91337860275E+02 0.  0.
        254    2    1    2    0    0 -0.13472254879E+03 -0.70463954079E+01 -0.10279076572E+04  0.13645004359E+04  0.88716823156E+03 0.  0.
         23    2    4    4    0    0 -0.46437649264E+03 -0.74258051464E+02 -0.84513753724E+03  0.97142684616E+03  0.90845338106E+02 0.  0.
         23    2    4    4    0    0  0.32965394385E+03  0.67211656056E+02 -0.18277011991E+03  0.39307358973E+03  0.88953925215E+02 0.  0.
          4    1    3    3  502    0  0.89803342278E+02  0.43017849568E+02  0.16537238414E+03  0.19303678692E+03  0.00000000000E+00 0. -1.
         -4    1    3    3    0  502  0.44919206513E+02 -0.35971454160E+02  0.17703703166E+03  0.18615528789E+03  0.00000000000E+00 0.  1.
         13    1    5    5    0    0 -0.36172017512E+03 -0.66285420117E+02 -0.72698914377E+03  0.81470758998E+03  0.00000000000E+00 0.  1.
        -13    1    5    5    0    0 -0.10265631752E+03 -0.79726313466E+01 -0.11814839347E+03  0.15671925618E+03  0.00000000000E+00 0. -1.
          2    1    6    6  503    0  0.27264083505E+03  0.32990610674E+02 -0.11381386167E+03  0.29727933066E+03  0.00000000000E+00 0.  1.
         -2    1    6    6    0  503  0.57013108801E+02  0.34221045382E+02 -0.68956258234E+02  0.95794259076E+02  0.00000000000E+00 0. -1.
<mgrwt>
<rscale>  0 0.16032953E+04</rscale>
<asrwt>0</asrwt>
<pdfrwt beam="1">  1        2 0.18686082E+00 0.16032953E+04</pdfrwt>
<pdfrwt beam="2">  1       -2 0.81399561E-01 0.16032953E+04</pdfrwt>
<totfact> 0.23660737E+01</totfact>
</mgrwt>
</event>
<event>
12    3  0.4773567E-008  0.1257645E+04  0.7818608E-02  0.9063844E-01
          2   -1    0    0  501    0  0.00000000000E+00  0.00000000000E+00  0.35826397879E+03  0.35826397879E+03  0.00000000000E+00 0. -1.
         -2   -1    0    0    0  501 -0.00000000000E+00 -0.00000000000E+00 -0.11037056260E+04  0.11037056260E+04  0.00000000000E+00 0.  1.
         23    2    1    2    0    0  0.14870048326E+03  0.93277771925E+02  0.77779601376E+02  0.21192267342E+03  0.89716089200E+02 0.  0.
        254    2    1    2    0    0 -0.14870048326E+03 -0.93277771925E+02 -0.82322124861E+03  0.12500469314E+04  0.92418154606E+03 0.  0.
         23    2    4    4    0    0  0.46226035277E+02  0.42112070520E+02 -0.95675719776E+03  0.96312937710E+03  0.91233703978E+02 0.  0.
         23    2    4    4    0    0 -0.19492651854E+03 -0.13538984245E+03  0.13353594915E+03  0.28691755430E+03  0.90349743690E+02 0.  0.
          1    1    3    3  502    0  0.15756205009E+03  0.97842983037E+02  0.79529519044E+02  0.20180186658E+03  0.00000000000E+00 0. -1.
         -1    1    3    3    0  502 -0.88615668273E+01 -0.45652111119E+01 -0.17499176682E+01  0.10120806834E+02  0.00000000000E+00 0.  1.
         13    1    5    5    0    0  0.69386370466E+02  0.50494710850E+02 -0.76427423589E+03  0.76907690895E+03  0.00000000000E+00 0. -1.
        -13    1    5    5    0    0 -0.23160335190E+02 -0.83826403295E+01 -0.19248296187E+03  0.19405246815E+03  0.00000000000E+00 0.  1.
          3    1    6    6  503    0 -0.12063179420E+03 -0.12793560395E+03  0.11459583119E+03  0.20988509489E+03  0.00000000000E+00 0. -1.
         -3    1    6    6    0  503 -0.74294724331E+02 -0.74542384992E+01  0.18940117965E+02  0.77032459416E+02  0.00000000000E+00 0.  1.
<mgrwt>
<rscale>  0 0.12576454E+04</rscale>
<asrwt>0</asrwt>
<pdfrwt beam="1">  1        2 0.55117536E-01 0.12576454E+04</pdfrwt>
<pdfrwt beam="2">  1       -2 0.16980086E+00 0.12576454E+04</pdfrwt>
<totfact> 0.18899200E+01</totfact>
</mgrwt>
</event>
<event>
12    3  0.4773567E-008  0.1524713E+04  0.7818608E-02  0.8868183E-01
          1   -1    0    0  501    0  0.00000000000E+00  0.00000000000E+00  0.11307829708E+04  0.11307829708E+04  0.00000000000E+00 0. -1.
         -1   -1    0    0    0  501 -0.00000000000E+00 -0.00000000000E+00 -0.51396902428E+03  0.51396902428E+03  0.00000000000E+00 0.  1.
         23    2    1    2    0    0  0.33831275206E+03 -0.16862451571E+03 -0.14189263093E+03  0.41320716363E+03  0.87845864216E+02 0.  0.
        254    2    1    2    0    0 -0.33831275206E+03  0.16862451571E+03  0.75870657749E+03  0.12315448315E+04  0.89340766491E+03 0.  0.
         23    2    4    4    0    0  0.34424132915E+02  0.88833047557E+02  0.82410927250E+03  0.83442912166E+03  0.89663452925E+02 0.  0.
         23    2    4    4    0    0 -0.37273688497E+03  0.79791468155E+02 -0.65402695008E+02  0.39711570982E+03  0.90132739121E+02 0.  0.
          1    1    3    3  502    0  0.28648371719E+03 -0.12467164327E+03 -0.82974240061E+02  0.32326562354E+03  0.00000000000E+00 0. -1.
         -1    1    3    3    0  502  0.51829034874E+02 -0.43952872443E+02 -0.58918390869E+02  0.89941540095E+02  0.00000000000E+00 0.  1.
         13    1    5    5    0    0  0.11496988160E+02  0.38169036417E+02  0.92684487380E+02  0.10089336092E+03  0.00000000000E+00 0. -1.
        -13    1    5    5    0    0  0.22927144755E+02  0.50664011140E+02  0.73142478512E+03  0.73353576074E+03  0.00000000000E+00 0.  1.
          2    1    6    6  503    0 -0.10563827009E+03  0.33297203045E+02  0.20652909543E+02  0.11267071718E+03  0.00000000000E+00 0. -1.
         -2    1    6    6    0  503 -0.26709861489E+03  0.46494265109E+02 -0.86055604551E+02  0.28444499264E+03  0.00000000000E+00 0.  1.
<mgrwt>
<rscale>  0 0.15247130E+04</rscale>
<asrwt>0</asrwt>
<pdfrwt beam="1">  1        1 0.17396661E+00 0.15247130E+04</pdfrwt>
<pdfrwt beam="2">  1       -1 0.79072157E-01 0.15247130E+04</pdfrwt>
<totfact> 0.18562348E+01</totfact>
</mgrwt>
</event>
<event>
12    3  0.4773567E-008  0.2260831E+04  0.7818608E-02  0.8493527E-01
          1   -1    0    0  501    0  0.00000000000E+00  0.00000000000E+00  0.92736713376E+03  0.92736713376E+03  0.00000000000E+00 0. -1.
         -1   -1    0    0    0  501 -0.00000000000E+00 -0.00000000000E+00 -0.13779220715E+04  0.13779220715E+04  0.00000000000E+00 0.  1.
         23    2    1    2    0    0  0.21278344764E+03 -0.90761468937E+03 -0.11699476112E+02  0.93548983311E+03  0.77221306369E+02 0.  0.
        254    2    1    2    0    0 -0.21278344764E+03  0.90761468937E+03 -0.43885546165E+03  0.13697993722E+04  0.90261563460E+03 0.  0.
         23    2    4    4    0    0 -0.49542308714E+03  0.36358660892E+03 -0.41958552162E+03  0.74975132464E+03  0.91846509968E+02 0.  0.
         23    2    4    4    0    0  0.28263963950E+03  0.54402808045E+03 -0.19269940035E+02  0.62004804753E+03  0.90755344342E+02 0.  0.
          1    1    3    3  502    0  0.18048586282E+03 -0.82542139986E+03 -0.29345446821E+02  0.84543290052E+03  0.00000000000E+00 0. -1.
         -1    1    3    3    0  502  0.32297584822E+02 -0.82193289510E+02  0.17645970709E+02  0.90056932593E+02  0.00000000000E+00 0.  1.
         13    1    5    5    0    0 -0.60440139823E+01  0.23177869949E+02 -0.76667255387E+01  0.25149998825E+02  0.00000000000E+00 0.  1.
        -13    1    5    5    0    0 -0.48937907316E+03  0.34040873898E+03 -0.41191879608E+03  0.72460132582E+03  0.00000000000E+00 0. -1.
          1    1    6    6  503    0  0.28769609403E+03  0.53461074330E+03 -0.25563391675E+02  0.60764395527E+03  0.00000000000E+00 0. -1.
         -1    1    6    6    0  503 -0.50564545355E+01  0.94173371430E+01  0.62934516403E+01  0.12404092264E+02  0.00000000000E+00 0.  1.
<mgrwt>
<rscale>  0 0.22608314E+04</rscale>
<asrwt>0</asrwt>
<pdfrwt beam="1">  1        1 0.14267187E+00 0.22608314E+04</pdfrwt>
<pdfrwt beam="2">  1       -1 0.21198801E+00 0.22608314E+04</pdfrwt>
<totfact> 0.19535862E+00</totfact>
</mgrwt>
</event>
<event>
12    3  0.4773567E-008  0.1757511E+04  0.7818608E-02  0.8729227E-01
          1   -1    0    0  501    0  0.00000000000E+00  0.00000000000E+00  0.15782143816E+04  0.15782143816E+04  0.00000000000E+00 0. -1.
         -1   -1    0    0    0  501 -0.00000000000E+00 -0.00000000000E+00 -0.48929449407E+03  0.48929449407E+03  0.00000000000E+00 0.  1.
         23    2    1    2    0    0 -0.54871940062E+03 -0.32820082731E+03  0.47933292507E+03  0.80376737184E+03  0.86447506179E+02 0.  0.
        254    2    1    2    0    0  0.54871940062E+03  0.32820082731E+03  0.60958696251E+03  0.12637415039E+04  0.90368000979E+03 0.  0.
         23    2    4    4    0    0  0.36882671750E+02 -0.79670075440E+02 -0.18898969602E+03  0.22731030930E+03  0.90803188911E+02 0.  0.
         23    2    4    4    0    0  0.51183672887E+03  0.40787090275E+03  0.79857665853E+03  0.10364311946E+04  0.90163358421E+02 0.  0.
          4    1    3    3  502    0 -0.40485804724E+03 -0.21340655855E+03  0.37856263909E+03  0.59393776556E+03  0.00000000000E+00 0. -1.
         -4    1    3    3    0  502 -0.14386135338E+03 -0.11479426876E+03  0.10077028598E+03  0.20982960628E+03  0.00000000000E+00 0.  1.
         13    1    5    5    0    0  0.13954090879E+02 -0.22298935095E+02  0.21891987020E+01  0.26396055569E+02  0.00000000000E+00 0. -1.
        -13    1    5    5    0    0  0.22928580871E+02 -0.57371140345E+02 -0.19117889472E+03  0.20091425373E+03  0.00000000000E+00 0.  1.
          3    1    6    6  503    0  0.70514968484E+02  0.63574124650E+02  0.71493659035E+02  0.11885021408E+03  0.00000000000E+00 0. -1.
         -3    1    6    6    0  503  0.44132176039E+03  0.34429677810E+03  0.72708299950E+03  0.91758098049E+03  0.00000000000E+00 0.  1.
<mgrwt>
<rscale>  0 0.17575114E+04</rscale>
<asrwt>0</asrwt>
<pdfrwt beam="1">  1        1 0.24280221E+00 0.17575114E+04</pdfrwt>
<pdfrwt beam="2">  1       -1 0.75276077E-01 0.17575114E+04</pdfrwt>
<totfact> 0.97042751E+00</totfact>
</mgrwt>
</event>
<event>
12    3  0.4773567E-008  0.2065592E+04  0.7818608E-02  0.8576554E-01
          2   -1    0    0  501    0  0.00000000000E+00  0.00000000000E+00  0.22878061667E+04  0.22878061667E+04  0.00000000000E+00 0. -1.
         -2   -1    0    0    0  501 -0.00000000000E+00 -0.00000000000E+00 -0.46624015340E+03  0.46624015340E+03  0.00000000000E+00 0.  1.
         23    2    1    2    0    0 -0.85175308141E+02  0.52153427718E+03  0.16560739852E+04  0.17407840565E+04  0.92169688835E+02 0.  0.
        254    2    1    2    0    0  0.85175308141E+02 -0.52153427718E+03  0.16549202811E+03  0.10132622636E+04  0.84856347321E+03 0.  0.
         23    2    4    4    0    0  0.42894959923E+03 -0.41170674647E+03 -0.11261839731E+02  0.60171889433E+03  0.91861825568E+02 0.  0.
         23    2    4    4    0    0 -0.34377429109E+03 -0.10982753071E+03  0.17675386784E+03  0.41154336927E+03  0.88787190955E+02 0.  0.
          1    1    3    3  502    0 -0.83291142194E+02  0.51840307744E+03  0.15867361058E+04  0.16713499438E+04  0.00000000000E+00 0. -1.
         -1    1    3    3    0  502 -0.18841659469E+01  0.31311997372E+01  0.69337879332E+02  0.69434112678E+02  0.00000000000E+00 0.  1.
         13    1    5    5    0    0  0.26122093468E+03 -0.18926863767E+03 -0.17556602528E+02  0.32305917138E+03  0.00000000000E+00 0. -1.
        -13    1    5    5    0    0  0.16772866455E+03 -0.22243810880E+03  0.62947627970E+01  0.27865972295E+03  0.00000000000E+00 0.  1.
          1    1    6    6  503    0 -0.23803277380E+03 -0.62221492949E+02  0.16216160592E+03  0.29466506753E+03  0.00000000000E+00 0. -1.
         -1    1    6    6    0  503 -0.10574151728E+03 -0.47606037761E+02  0.14592261920E+02  0.11687830174E+03  0.00000000000E+00 0.  1.
<mgrwt>
<rscale>  0 0.20655915E+04</rscale>
<asrwt>0</asrwt>
<pdfrwt beam="1">  1        2 0.35197017E+00 0.20655915E+04</pdfrwt>
<pdfrwt beam="2">  1       -2 0.71729256E-01 0.20655915E+04</pdfrwt>
<totfact> 0.75014398E+00</totfact>
</mgrwt>
</event>
<event>
12    3  0.4773567E-008  0.1909931E+04  0.7818608E-02  0.8649929E-01
          1   -1    0    0  501    0  0.00000000000E+00  0.00000000000E+00  0.17252509625E+04  0.17252509625E+04  0.00000000000E+00 0. -1.
         -1   -1    0    0    0  501 -0.00000000000E+00 -0.00000000000E+00 -0.52859525436E+03  0.52859525436E+03  0.00000000000E+00 0.  1.
         23    2    1    2    0    0 -0.20418723329E+01 -0.73873615728E+03  0.51870553516E+03  0.90709480103E+03  0.89611754429E+02 0.  0.
        254    2    1    2    0    0  0.20418723329E+01  0.73873615728E+03  0.67795017295E+03  0.13467514158E+04  0.89910380915E+03 0.  0.
         23    2    4    4    0    0  0.16269010964E+03  0.45467700494E+03 -0.96118382159E+02  0.50181710954E+03  0.96862879587E+02 0.  0.
         23    2    4    4    0    0 -0.16064823730E+03  0.28405915234E+03  0.77406855511E+03  0.84493430626E+03  0.90743571121E+02 0.  0.
          4    1    3    3  502    0 -0.77668942906E+01 -0.10689092377E+02  0.11258378445E+00  0.13213402963E+02  0.00000000000E+00 0. -1.
         -4    1    3    3    0  502  0.57250219577E+01 -0.72804706490E+03  0.51859295137E+03  0.89388139807E+03  0.00000000000E+00 0.  1.
         13    1    5    5    0    0  0.52370968784E+02  0.11957834745E+03 -0.69832682632E+02  0.14804831344E+03  0.00000000000E+00 0. -1.
        -13    1    5    5    0    0  0.11031914085E+03  0.33509865749E+03 -0.26285699527E+02  0.35376879609E+03  0.00000000000E+00 0.  1.
          4    1    6    6  503    0 -0.13363460194E+03  0.27047836485E+03  0.64062282298E+03  0.70810617425E+03  0.00000000000E+00 0. -1.
         -4    1    6    6    0  503 -0.27013635360E+02  0.13580787490E+02  0.13344573213E+03  0.13682813200E+03  0.00000000000E+00 0.  1.
<mgrwt>
<rscale>  0 0.19099314E+04</rscale>
<asrwt>0</asrwt>
<pdfrwt beam="1">  1        1 0.26542322E+00 0.19099314E+04</pdfrwt>
<pdfrwt beam="2">  1       -1 0.81322348E-01 0.19099314E+04</pdfrwt>
<totfact> 0.64489044E+00</totfact>
</mgrwt>
</event>
<event>
12    3  0.4773567E-008  0.1973760E+04  0.7818608E-02  0.8618988E-01
          2   -1    0    0  501    0  0.00000000000E+00  0.00000000000E+00  0.22020265437E+04  0.22020265437E+04  0.00000000000E+00 0. -1.
         -2   -1    0    0    0  501 -0.00000000000E+00 -0.00000000000E+00 -0.44228891754E+03  0.44228891754E+03  0.00000000000E+00 0.  1.
         23    2    1    2    0    0  0.37403506651E+03 -0.55575503278E+03  0.16568076223E+03  0.69604806276E+03  0.90922512390E+02 0.  0.
        254    2    1    2    0    0 -0.37403506651E+03  0.55575503278E+03  0.15940568640E+04  0.19482673985E+04  0.89775424428E+03 0.  0.
         23    2    4    4    0    0  0.14081165497E+03  0.55992052933E+03  0.98729107723E+03  0.11473918188E+04  0.91789941852E+02 0.  0.
         23    2    4    4    0    0 -0.51484672149E+03 -0.41654965521E+01  0.60676578674E+03  0.80087557967E+03  0.90291063641E+02 0.  0.
          1    1    3    3  502    0  0.14986100921E+03 -0.16546762394E+03  0.25823449542E+02  0.22473252368E+03  0.00000000000E+00 0. -1.
         -1    1    3    3    0  502  0.22417405730E+03 -0.39028740884E+03  0.13985731269E+03  0.47131553908E+03  0.00000000000E+00 0.  1.
         13    1    5    5    0    0  0.29178588593E+02  0.28737714092E+02  0.54514884468E+02  0.68184447435E+02  0.00000000000E+00 0.  1.
        -13    1    5    5    0    0  0.11163306638E+03  0.53118281524E+03  0.93277619277E+03  0.10792073714E+04  0.00000000000E+00 0. -1.
          1    1    6    6  503    0 -0.46329429675E+03 -0.18501335643E+02  0.57498081924E+03  0.73863850923E+03  0.00000000000E+00 0. -1.
         -1    1    6    6    0  503 -0.51552424738E+02  0.14335839090E+02  0.31784967500E+02  0.62237070446E+02  0.00000000000E+00 0.  1.
<mgrwt>
<rscale>  0 0.19737598E+04</rscale>
<asrwt>0</asrwt>
<pdfrwt beam="1">  1        2 0.33877331E+00 0.19737598E+04</pdfrwt>
<pdfrwt beam="2">  1       -2 0.68044450E-01 0.19737598E+04</pdfrwt>
<totfact> 0.94820936E+00</totfact>
</mgrwt>
</event>
<event>
12    3  0.4773567E-008  0.1361534E+04  0.7818608E-02  0.8982143E-01
         -1   -1    0    0    0  501 -0.00000000000E+00  0.00000000000E+00  0.42581074056E+03  0.42581074056E+03  0.00000000000E+00 0.  1.
          1   -1    0    0  501    0  0.00000000000E+00 -0.00000000000E+00 -0.10883797365E+04  0.10883797365E+04  0.00000000000E+00 0. -1.
         23    2    1    2    0    0  0.13395161398E+03  0.19980995203E+03 -0.49742393805E+03  0.55934043707E+03  0.86971826396E+02 0.  0.
        254    2    1    2    0    0 -0.13395161398E+03 -0.19980995203E+03 -0.16514505788E+03  0.95485003998E+03  0.90917471197E+03 0.  0.
         23    2    4    4    0    0 -0.19199930960E+03  0.23314079536E+03  0.20459452507E+03  0.37532928114E+03  0.88288075337E+02 0.  0.
         23    2    4    4    0    0  0.58047695613E+02 -0.43295074739E+03 -0.36973958295E+03  0.57952075884E+03  0.91219877715E+02 0.  0.
          1    1    3    3  502    0  0.11088291203E+03  0.17818166795E+03 -0.47847211521E+03  0.52247420224E+03  0.00000000000E+00 0. -1.
         -1    1    3    3    0  502  0.23068701959E+02  0.21628284076E+02 -0.18951822840E+02  0.36866234838E+02  0.00000000000E+00 0.  1.
         13    1    5    5    0    0  0.22607398741E+01  0.30311784861E+02  0.50600131497E+01  0.30814265841E+02  0.00000000000E+00 0. -1.
        -13    1    5    5    0    0 -0.19426004947E+03  0.20282901050E+03  0.19953451192E+03  0.34451501530E+03  0.00000000000E+00 0.  1.
          1    1    6    6  503    0 -0.34322512090E+01 -0.93698171297E+01  0.45172103597E+01  0.10953493088E+02  0.00000000000E+00 0. -1.
         -1    1    6    6    0  503  0.61479946822E+02 -0.42358093026E+03 -0.37425679331E+03  0.56856726575E+03  0.00000000000E+00 0.  1.
<mgrwt>
<rscale>  0 0.13615341E+04</rscale>
<asrwt>0</asrwt>
<pdfrwt beam="1">  1        1 0.16744304E+00 0.13615341E+04</pdfrwt>
<pdfrwt beam="2">  1       -1 0.65509345E-01 0.13615341E+04</pdfrwt>
<totfact> 0.29888832E+01</totfact>
</mgrwt>
</event>
<event>
12    3  0.4773567E-008  0.2074484E+04  0.7818608E-02  0.8572567E-01
         -1   -1    0    0    0  501 -0.00000000000E+00  0.00000000000E+00  0.11260429346E+04  0.11260429346E+04  0.00000000000E+00 0.  1.
          1   -1    0    0  501    0  0.00000000000E+00 -0.00000000000E+00 -0.95544401152E+03  0.95544401152E+03  0.00000000000E+00 0. -1.
         23    2    1    2    0    0  0.25463170090E+03  0.58309075293E+03 -0.48189544265E+03  0.80346980918E+03  0.92240920269E+02 0.  0.
        254    2    1    2    0    0 -0.25463170090E+03 -0.58309075293E+03  0.65249436568E+03  0.12780171369E+04  0.89596136953E+03 0.  0.
         23    2    4    4    0    0  0.16023989300E+03  0.13300810626E+03  0.29428742541E+03  0.37135907997E+03  0.89075798507E+02 0.  0.
         23    2    4    4    0    0 -0.41487159390E+03 -0.71609885919E+03  0.35820694027E+03  0.90665805692E+03  0.93811537472E+02 0.  0.
          2    1    3    3  502    0  0.51937576998E+02  0.19266277274E+03 -0.11270608166E+03  0.22917049712E+03  0.00000000000E+00 0. -1.
         -2    1    3    3    0  502  0.20269412390E+03  0.39042798019E+03 -0.36918936099E+03  0.57429931207E+03  0.00000000000E+00 0.  1.
         13    1    5    5    0    0  0.55712899017E+02  0.19925670489E+02  0.32156564750E+02  0.67342439203E+02  0.00000000000E+00 0.  1.
        -13    1    5    5    0    0  0.10452699399E+03  0.11308243578E+03  0.26213086066E+03  0.30401664077E+03  0.00000000000E+00 0. -1.
          1    1    6    6  503    0 -0.12767541376E+03 -0.22618621633E+03  0.65928378198E+02  0.26796971244E+03  0.00000000000E+00 0. -1.
         -1    1    6    6    0  503 -0.28719618014E+03 -0.48991264286E+03  0.29227856208E+03  0.63868834448E+03  0.00000000000E+00 0.  1.
<mgrwt>
<rscale>  0 0.20744840E+04</rscale>
<asrwt>0</asrwt>
<pdfrwt beam="1">  1        1 0.14699139E+00 0.20744840E+04</pdfrwt>
<pdfrwt beam="2">  1       -1 0.17323737E+00 0.20744840E+04</pdfrwt>
<totfact> 0.35238771E+00</totfact>
</mgrwt>
</event>
<event>
12    3  0.4773567E-008  0.1969782E+04  0.7818608E-02  0.8620880E-01
          1   -1    0    0  501    0  0.00000000000E+00  0.00000000000E+00  0.16997443012E+04  0.16997443012E+04  0.00000000000E+00 0. -1.
         -1   -1    0    0    0  501 -0.00000000000E+00 -0.00000000000E+00 -0.57068011913E+03  0.57068011913E+03  0.00000000000E+00 0.  1.
         23    2    1    2    0    0  0.60475184220E+03  0.32084968743E+03  0.86412838330E+03  0.11062726271E+04  0.91934488227E+02 0.  0.
        254    2    1    2    0    0 -0.60475184220E+03 -0.32084968743E+03  0.26493579878E+03  0.11641517932E+04  0.90354253225E+03 0.  0.
         23    2    4    4    0    0 -0.13993920226E+03  0.68593725488E+01 -0.30906362146E+03  0.35095693415E+03  0.89556776372E+02 0.  0.
         23    2    4    4    0    0 -0.46481263995E+03 -0.32770905998E+03  0.57399942024E+03  0.81319485906E+03  0.91468716647E+02 0.  0.
          3    1    3    3  502    0  0.44324027308E+03  0.19462056637E+03  0.57109563908E+03  0.74865835567E+03  0.00000000000E+00 0. -1.
         -3    1    3    3    0  502  0.16151156912E+03  0.12622912106E+03  0.29303274422E+03  0.35761427145E+03  0.00000000000E+00 0.  1.
         13    1    5    5    0    0 -0.91690440170E+01  0.54777726472E+01  0.42113211180E+01  0.11480966289E+02  0.00000000000E+00 0.  1.
        -13    1    5    5    0    0 -0.13077015824E+03  0.13815999015E+01 -0.31327494258E+03  0.33947596786E+03  0.00000000000E+00 0. -1.
          3    1    6    6  503    0 -0.31033126110E+03 -0.26904942782E+03  0.40382112220E+03  0.57599009103E+03  0.00000000000E+00 0. -1.
         -3    1    6    6    0  503 -0.15448137885E+03 -0.58659632156E+02  0.17017829804E+03  0.23720476804E+03  0.00000000000E+00 0.  1.
<mgrwt>
<rscale>  0 0.19697820E+04</rscale>
<asrwt>0</asrwt>
<pdfrwt beam="1">  1        1 0.26149912E+00 0.19697820E+04</pdfrwt>
<pdfrwt beam="2">  1       -1 0.87796942E-01 0.19697820E+04</pdfrwt>
<totfact> 0.56564003E+00</totfact>
</mgrwt>
</event>
<event>
12    3  0.4773567E-008  0.1503425E+04  0.7818608E-02  0.8882179E-01
         -1   -1    0    0    0  501 -0.00000000000E+00  0.00000000000E+00  0.32889255728E+03  0.32889255728E+03  0.00000000000E+00 0.  1.
          1   -1    0    0  501    0  0.00000000000E+00 -0.00000000000E+00 -0.17181038867E+04  0.17181038867E+04  0.00000000000E+00 0. -1.
         23    2    1    2    0    0  0.15017398382E+03 -0.20155744028E+03  0.10176984855E+03  0.28556583987E+03  0.89516030276E+02 0.  0.
        254    2    1    2    0    0 -0.15017398382E+03  0.20155744028E+03 -0.14909811780E+04  0.17614306041E+04  0.90356807874E+03 0.  0.
         23    2    4    4    0    0 -0.46834581946E+03  0.22724601196E+03 -0.54731665781E+03  0.76078751574E+03  0.90849125676E+02 0.  0.
         23    2    4    4    0    0  0.31817183563E+03 -0.25688571677E+02 -0.94366452019E+03  0.10006430884E+04  0.94290211601E+02 0.  0.
          1    1    3    3  502    0  0.13211825196E+02 -0.44767733953E+02 -0.12172960412E+02  0.48237778696E+02  0.00000000000E+00 0. -1.
         -1    1    3    3    0  502  0.13696215863E+03 -0.15678970633E+03  0.11394280896E+03  0.23732806117E+03  0.00000000000E+00 0.  1.
         13    1    5    5    0    0 -0.22773783730E+03  0.16080787794E+03 -0.29293402288E+03  0.40439341971E+03  0.00000000000E+00 0.  1.
        -13    1    5    5    0    0 -0.24060798216E+03  0.66438134017E+02 -0.25438263492E+03  0.35639409603E+03  0.00000000000E+00 0. -1.
          3    1    6    6  503    0  0.18642303824E+02  0.20116344216E+02 -0.50327627388E+02  0.57315555262E+02  0.00000000000E+00 0. -1.
         -3    1    6    6    0  503  0.29952953181E+03 -0.45804915894E+02 -0.89333689280E+03  0.94332753314E+03  0.00000000000E+00 0.  1.
<mgrwt>
<rscale>  0 0.15034249E+04</rscale>
<asrwt>0</asrwt>
<pdfrwt beam="1">  1        1 0.26432368E+00 0.15034249E+04</pdfrwt>
<pdfrwt beam="2">  1       -1 0.50598854E-01 0.15034249E+04</pdfrwt>
<totfact> 0.17578876E+01</totfact>
</mgrwt>
</event>
<event>
12    3  0.4773567E-008  0.1736246E+04  0.7818608E-02  0.8740958E-01
          1   -1    0    0  501    0  0.00000000000E+00  0.00000000000E+00  0.14515354274E+04  0.14515354274E+04  0.00000000000E+00 0. -1.
         -1   -1    0    0    0  501 -0.00000000000E+00 -0.00000000000E+00 -0.51920019573E+03  0.51920019573E+03  0.00000000000E+00 0.  1.
         23    2    1    2    0    0 -0.33040234191E+03  0.41827347333E+03 -0.40740921380E+02  0.54313334016E+03  0.95997898307E+02 0.  0.
        254    2    1    2    0    0  0.33040234191E+03 -0.41827347333E+03  0.97307615301E+03  0.14276022829E+04  0.89836110371E+03 0.  0.
         23    2    4    4    0    0  0.26555901348E+03  0.10332068072E+03 -0.19519177073E+02  0.30071077805E+03  0.94070298473E+02 0.  0.
         23    2    4    4    0    0  0.64843328428E+02 -0.52159415405E+03  0.99259533009E+03  0.11268915049E+04  0.91508773926E+02 0.  0.
          4    1    3    3  502    0 -0.14166209254E+03  0.15367833570E+03  0.28156481259E+02  0.21089800085E+03  0.00000000000E+00 0. -1.
         -4    1    3    3    0  502 -0.18874024937E+03  0.26459513764E+03 -0.68897402639E+02  0.33223533930E+03  0.00000000000E+00 0.  1.
         13    1    5    5    0    0  0.26443091368E+03  0.81591298985E+02 -0.98695638435E+01  0.27690839003E+03  0.00000000000E+00 0. -1.
        -13    1    5    5    0    0  0.11280998013E+01  0.21729381736E+02 -0.96496132297E+01  0.23802388016E+02  0.00000000000E+00 0.  1.
          3    1    6    6  503    0  0.72094998814E+02 -0.52097632971E+03  0.98291265370E+03  0.11147785923E+04  0.00000000000E+00 0. -1.
         -3    1    6    6    0  503 -0.72516703859E+01 -0.61782434589E+00  0.96826763846E+01  0.12112912626E+02  0.00000000000E+00 0.  1.
<mgrwt>
<rscale>  0 0.17362459E+04</rscale>
<asrwt>0</asrwt>
<pdfrwt beam="1">  1        1 0.22331314E+00 0.17362459E+04</pdfrwt>
<pdfrwt beam="2">  1       -1 0.79876954E-01 0.17362459E+04</pdfrwt>
<totfact> 0.10497031E+01</totfact>
</mgrwt>
</event>
<event>
12    3  0.4773567E-008  0.2515047E+04  0.7818608E-02  0.8397645E-01
         -1   -1    0    0    0  501 -0.00000000000E+00  0.00000000000E+00  0.76493320980E+03  0.76493320980E+03  0.00000000000E+00 0.  1.
          1   -1    0    0  501    0  0.00000000000E+00 -0.00000000000E+00 -0.20673241105E+04  0.20673241105E+04  0.00000000000E+00 0. -1.
         23    2    1    2    0    0  0.58544895891E+02  0.79946071524E+03 -0.14038976912E+04  0.16192278202E+04  0.91679149202E+02 0.  0.
        254    2    1    2    0    0 -0.58544895891E+02 -0.79946071524E+03  0.10150679047E+03  0.12130295001E+04  0.90474968887E+03 0.  0.
         23    2    4    4    0    0  0.24229344171E+03 -0.61988351507E+03 -0.24205165560E+03  0.71453506712E+03  0.94919302655E+02 0.  0.
         23    2    4    4    0    0 -0.30083833760E+03 -0.17957720017E+03  0.34355844607E+03  0.49849443296E+03  0.87821510074E+02 0.  0.
          1    1    3    3  502    0  0.37295596805E+02  0.76774573736E+03 -0.13370890559E+04  0.15422813045E+04  0.00000000000E+00 0. -1.
         -1    1    3    3    0  502  0.21249299086E+02  0.31714977887E+02 -0.66808635245E+02  0.76946515693E+02  0.00000000000E+00 0.  1.
         13    1    5    5    0    0  0.24755841642E+03 -0.61786061941E+03 -0.23586960108E+03  0.70616668236E+03  0.00000000000E+00 0.  1.
        -13    1    5    5    0    0 -0.52649747043E+01 -0.20228956591E+01 -0.61820545208E+01  0.83683847655E+01  0.00000000000E+00 0. -1.
          1    1    6    6  503    0 -0.18042420589E+03 -0.13863327769E+03  0.17350150513E+03  0.28613782001E+03  0.00000000000E+00 0. -1.
         -1    1    6    6    0  503 -0.12041413171E+03 -0.40943922485E+02  0.17005694094E+03  0.21235661296E+03  0.00000000000E+00 0.  1.
<mgrwt>
<rscale>  0 0.25150466E+04</rscale>
<asrwt>0</asrwt>
<pdfrwt beam="1">  1        1 0.31804987E+00 0.25150466E+04</pdfrwt>
<pdfrwt beam="2">  1       -1 0.11768203E+00 0.25150466E+04</pdfrwt>
<totfact> 0.15448006E+00</totfact>
</mgrwt>
</event>
<event>
12    3  0.4773567E-008  0.1750654E+04  0.7818608E-02  0.8732990E-01
          1   -1    0    0  501    0  0.00000000000E+00  0.00000000000E+00  0.15629033515E+04  0.15629033515E+04  0.00000000000E+00 0. -1.
         -1   -1    0    0    0  501 -0.00000000000E+00 -0.00000000000E+00 -0.49023988552E+03  0.49023988552E+03  0.00000000000E+00 0.  1.
         23    2    1    2    0    0 -0.13775675370E+03 -0.46334008212E+03 -0.91389204867E+02  0.50040678540E+03  0.91618825682E+02 0.  0.
        254    2    1    2    0    0  0.13775675370E+03  0.46334008212E+03  0.11640526708E+04  0.15527364516E+04  0.90681360421E+03 0.  0.
         23    2    4    4    0    0 -0.17263486093E+03  0.47456541241E+03  0.22644950871E+03  0.56073689130E+03  0.90174028445E+02 0.  0.
         23    2    4    4    0    0  0.31039161462E+03 -0.11225330290E+02  0.93760316212E+03  0.99199956030E+03  0.92165479194E+02 0.  0.
          1    1    3    3  502    0 -0.32116357021E+02 -0.24757627286E+03 -0.23460676705E+02  0.25075062238E+03  0.00000000000E+00 0. -1.
         -1    1    3    3    0  502 -0.10564039668E+03 -0.21576380926E+03 -0.67928528162E+02  0.24965616302E+03  0.00000000000E+00 0.  1.
         13    1    5    5    0    0 -0.10739520679E+00  0.38001678086E+02 -0.32344060114E+01  0.38139224604E+02  0.00000000000E+00 0.  1.
        -13    1    5    5    0    0 -0.17252746572E+03  0.43656373432E+03  0.22968391472E+03  0.52259766669E+03  0.00000000000E+00 0. -1.
          3    1    6    6  503    0  0.20740295491E+03 -0.17292267359E+02  0.48467329358E+03  0.52746868128E+03  0.00000000000E+00 0. -1.
         -3    1    6    6    0  503  0.10298865971E+03  0.60669370695E+01  0.45292986854E+03  0.46453087903E+03  0.00000000000E+00 0.  1.
<mgrwt>
<rscale>  0 0.17506542E+04</rscale>
<asrwt>0</asrwt>
<pdfrwt beam="1">  1        1 0.24044667E+00 0.17506542E+04</pdfrwt>
<pdfrwt beam="2">  1       -1 0.75421521E-01 0.17506542E+04</pdfrwt>
<totfact> 0.99084902E+00</totfact>
</mgrwt>
</event>
<event>
12    3  0.4773567E-008  0.1323077E+04  0.7818608E-02  0.9011463E-01
         -1   -1    0    0    0  501 -0.00000000000E+00  0.00000000000E+00  0.18059570828E+04  0.18059570828E+04  0.00000000000E+00 0.  1.
          1   -1    0    0  501    0  0.00000000000E+00 -0.00000000000E+00 -0.24232747106E+03  0.24232747106E+03  0.00000000000E+00 0. -1.
         23    2    1    2    0    0 -0.15029100517E+03 -0.30280918959E+03  0.59133270995E+03  0.68734621154E+03  0.92139291911E+02 0.  0.
        254    2    1    2    0    0  0.15029100517E+03  0.30280918959E+03  0.97229690184E+03  0.13609383424E+04  0.89023093345E+03 0.  0.
         23    2    4    4    0    0 -0.61282868528E+02 -0.29035624437E+03  0.25030756119E+03  0.39857690974E+03  0.90262612248E+02 0.  0.
         23    2    4    4    0    0  0.21157387370E+03  0.59316543396E+03  0.72198934065E+03  0.96236143263E+03  0.90896550668E+02 0.  0.
          2    1    3    3  502    0 -0.26573111146E+02 -0.29838742471E+02  0.26550116314E+02  0.47972799215E+02  0.00000000000E+00 0. -1.
         -2    1    3    3    0  502 -0.12371789403E+03 -0.27297044712E+03  0.56478259364E+03  0.63937341232E+03  0.00000000000E+00 0.  1.
         13    1    5    5    0    0 -0.84868458052E+02 -0.23688980970E+03  0.19900782788E+03  0.32081700807E+03  0.00000000000E+00 0. -1.
        -13    1    5    5    0    0  0.23585589524E+02 -0.53466434670E+02  0.51299733314E+02  0.77759901670E+02  0.00000000000E+00 0.  1.
          1    1    6    6  503    0  0.15983936767E+03  0.51487860053E+03  0.57712312222E+03  0.78975926391E+03  0.00000000000E+00 0. -1.
         -1    1    6    6    0  503  0.51734506027E+02  0.78286833435E+02  0.14486621843E+03  0.17260216872E+03  0.00000000000E+00 0.  1.
<mgrwt>
<rscale>  0 0.13230767E+04</rscale>
<asrwt>0</asrwt>
<pdfrwt beam="1">  1        1 0.37281150E-01 0.13230767E+04</pdfrwt>
<pdfrwt beam="2">  1       -1 0.27783954E+00 0.13230767E+04</pdfrwt>
<totfact> 0.52367990E+00</totfact>
</mgrwt>
</event>
<event>
12    3  0.4773567E-008  0.1368591E+04  0.7818608E-02  0.8976873E-01
         -2   -1    0    0    0  501 -0.00000000000E+00  0.00000000000E+00  0.96173452530E+03  0.96173452530E+03  0.00000000000E+00 0.  1.
          2   -1    0    0  501    0  0.00000000000E+00 -0.00000000000E+00 -0.48689137989E+03  0.48689137989E+03  0.00000000000E+00 0. -1.
         23    2    1    2    0    0 -0.93331775665E+02 -0.14477809057E+03  0.49096057352E+03  0.52783696350E+03  0.88871026941E+02 0.  0.
        254    2    1    2    0    0  0.93331775665E+02  0.14477809057E+03 -0.16117428107E+02  0.92078894170E+03  0.90438984282E+03 0.  0.
         23    2    4    4    0    0 -0.38412120788E+03 -0.47401458486E+02 -0.19729525403E+02  0.39819657145E+03  0.91516417840E+02 0.  0.
         23    2    4    4    0    0  0.47745298355E+03  0.19217954905E+03  0.36120972965E+01  0.52259237024E+03  0.90528490621E+02 0.  0.
          1    1    3    3  502    0 -0.74837842021E+02 -0.13087010254E+03  0.30274645124E+03  0.33820570674E+03  0.00000000000E+00 0. -1.
         -1    1    3    3    0  502 -0.18493933644E+02 -0.13907988026E+02  0.18821412228E+03  0.18963125675E+03  0.00000000000E+00 0.  1.
         13    1    5    5    0    0 -0.29649338883E+03 -0.61479851216E+02 -0.44500677958E+02  0.30605295631E+03  0.00000000000E+00 0. -1.
        -13    1    5    5    0    0 -0.87627819049E+02  0.14078392729E+02  0.24771152555E+02  0.92143615145E+02  0.00000000000E+00 0.  1.
          3    1    6    6  503    0  0.40965751819E+03  0.19135028808E+03 -0.14629971910E+02  0.45238064838E+03  0.00000000000E+00 0. -1.
         -3    1    6    6    0  503  0.67795465361E+02  0.82926097754E+00  0.18242069206E+02  0.70211721857E+02  0.00000000000E+00 0.  1.
<mgrwt>
<rscale>  0 0.13685909E+04</rscale>
<asrwt>0</asrwt>
<pdfrwt beam="1">  1        2 0.74906366E-01 0.13685909E+04</pdfrwt>
<pdfrwt beam="2">  1       -2 0.14795916E+00 0.13685909E+04</pdfrwt>
<totfact> 0.19231548E+01</totfact>
</mgrwt>
</event>
<event>
12    3  0.4773567E-008  0.1219160E+04  0.7818608E-02  0.9096249E-01
          1   -1    0    0  501    0  0.00000000000E+00  0.00000000000E+00  0.51479255253E+03  0.51479255253E+03  0.00000000000E+00 0. -1.
         -1   -1    0    0    0  501 -0.00000000000E+00 -0.00000000000E+00 -0.72182044312E+03  0.72182044312E+03  0.00000000000E+00 0.  1.
         23    2    1    2    0    0  0.13556738005E+03 -0.85046229369E+02 -0.27551239552E+03  0.33123475265E+03  0.90542838573E+02 0.  0.
        254    2    1    2    0    0 -0.13556738005E+03  0.85046229369E+02  0.68484504931E+02  0.90537824300E+03  0.88848649952E+03 0.  0.
         23    2    4    4    0    0  0.26099357205E+03 -0.17612248399E+03 -0.16685868828E+03  0.36818256445E+03  0.92627236207E+02 0.  0.
         23    2    4    4    0    0 -0.39656095211E+03  0.26116871336E+03  0.23534319321E+03  0.53719567856E+03  0.87881129339E+02 0.  0.
          1    1    3    3  502    0  0.14635076940E+02 -0.97001810406E+01  0.35396611888E+01  0.17911119189E+02  0.00000000000E+00 0. -1.
         -1    1    3    3    0  502  0.12093230311E+03 -0.75346048328E+02 -0.27905205671E+03  0.31332363347E+03  0.00000000000E+00 0.  1.
         13    1    5    5    0    0  0.25547742880E+03 -0.18013569387E+03 -0.14370988545E+03  0.34404958364E+03  0.00000000000E+00 0.  1.
        -13    1    5    5    0    0  0.55161432593E+01  0.40132098761E+01 -0.23148802833E+02  0.24132980805E+02  0.00000000000E+00 0. -1.
          1    1    6    6  503    0 -0.10760157296E+03  0.26960843375E+02  0.52165662446E+02  0.12258157250E+03  0.00000000000E+00 0. -1.
         -1    1    6    6    0  503 -0.28895937915E+03  0.23420786999E+03  0.18317753076E+03  0.41461410605E+03  0.00000000000E+00 0.  1.
<mgrwt>
<rscale>  0 0.12191600E+04</rscale>
<asrwt>0</asrwt>
<pdfrwt beam="1">  1        1 0.79198854E-01 0.12191600E+04</pdfrwt>
<pdfrwt beam="2">  1       -1 0.11104930E+00 0.12191600E+04</pdfrwt>
<totfact> 0.31407037E+01</totfact>
</mgrwt>
</event>
<event>
12    3  0.4773567E-008  0.1563176E+04  0.7818608E-02  0.8843495E-01
          2   -1    0    0  501    0  0.00000000000E+00  0.00000000000E+00  0.22086369664E+04  0.22086369664E+04  0.00000000000E+00 0. -1.
         -2   -1    0    0    0  501 -0.00000000000E+00 -0.00000000000E+00 -0.27658685950E+03  0.27658685950E+03  0.00000000000E+00 0.  1.
         23    2    1    2    0    0  0.29951157972E+03 -0.41891417080E+03  0.45943575775E+03  0.69612040603E+03  0.91138001437E+02 0.  0.
        254    2    1    2    0    0 -0.29951157972E+03  0.41891417080E+03  0.14726143491E+04  0.17891034199E+04  0.87584345450E+03 0.  0.
         23    2    4    4    0    0 -0.38559892634E+03  0.23674410572E+02  0.12619726863E+04  0.13229743695E+04  0.91864637548E+02 0.  0.
         23    2    4    4    0    0  0.86087346620E+02  0.39523976023E+03  0.21064166279E+03  0.46612905034E+03  0.96337335173E+02 0.  0.
          3    1    3    3  502    0  0.14117462712E+03 -0.27141172415E+03  0.28603019951E+03  0.41881723267E+03  0.00000000000E+00 0. -1.
         -3    1    3    3    0  502  0.15833695260E+03 -0.14750244665E+03  0.17340555824E+03  0.27730317336E+03  0.00000000000E+00 0.  1.
         13    1    5    5    0    0 -0.14591724459E+03 -0.77875133008E+01  0.34493815174E+03  0.37461288840E+03  0.00000000000E+00 0.  1.
        -13    1    5    5    0    0 -0.23968168176E+03  0.31461923872E+02  0.91703453459E+03  0.94836148111E+03  0.00000000000E+00 0. -1.
          4    1    6    6  503    0  0.26048128747E+02  0.22444903643E+03  0.16394739832E+03  0.27916773521E+03  0.00000000000E+00 0.  1.
         -4    1    6    6    0  503  0.60039217874E+02  0.17079072380E+03  0.46694264467E+02  0.18696131512E+03  0.00000000000E+00 0. -1.
<mgrwt>
<rscale>  0 0.15631762E+04</rscale>
<asrwt>0</asrwt>
<pdfrwt beam="1">  1        2 0.33979029E+00 0.15631762E+04</pdfrwt>
<pdfrwt beam="2">  1       -2 0.42551826E-01 0.15631762E+04</pdfrwt>
<totfact> 0.25730805E+01</totfact>
</mgrwt>
</event>
<event>
12    3  0.4773567E-008  0.2766724E+04  0.7818608E-02  0.8313674E-01
          2   -1    0    0  501    0  0.00000000000E+00  0.00000000000E+00  0.13077981908E+04  0.13077981908E+04  0.00000000000E+00 0. -1.
         -2   -1    0    0    0  501 -0.00000000000E+00 -0.00000000000E+00 -0.14632915991E+04  0.14632915991E+04  0.00000000000E+00 0.  1.
         23    2    1    2    0    0 -0.10998294476E+04 -0.37280236002E+03  0.35012027069E+03  0.12163634692E+04  0.91375444132E+02 0.  0.
        254    2    1    2    0    0  0.10998294476E+04  0.37280236002E+03 -0.50561367901E+03  0.15547263207E+04  0.90162205295E+03 0.  0.
         23    2    4    4    0    0  0.87039736914E+03  0.62650679327E+03 -0.21701328011E+03  0.10980884386E+04  0.92742185529E+02 0.  0.
         23    2    4    4    0    0  0.22943207844E+03 -0.25370443325E+03 -0.28860039890E+03  0.45663788209E+03  0.90680466708E+02 0.  0.
          4    1    3    3  502    0 -0.14191802612E+03 -0.45418322795E+02  0.13800477041E+02  0.14964626073E+03  0.00000000000E+00 0. -1.
         -4    1    3    3    0  502 -0.95791142147E+03 -0.32738403723E+03  0.33631979365E+03  0.10667172085E+04  0.00000000000E+00 0.  1.
         13    1    5    5    0    0  0.73457486772E+03  0.51897138826E+03 -0.21541116214E+03  0.92484242274E+03  0.00000000000E+00 0. -1.
        -13    1    5    5    0    0  0.13582250142E+03  0.10753540501E+03 -0.16021179615E+01  0.17324601584E+03  0.00000000000E+00 0.  1.
          2    1    6    6  503    0  0.20293713417E+03 -0.16592655879E+03 -0.21040892364E+03  0.33613541688E+03  0.00000000000E+00 0.  1.
         -2    1    6    6    0  503  0.26494944276E+02 -0.87777874461E+02 -0.78191475257E+02  0.12050246520E+03  0.00000000000E+00 0. -1.
<mgrwt>
<rscale>  0 0.27667238E+04</rscale>
<asrwt>0</asrwt>
<pdfrwt beam="1">  1        2 0.20119972E+00 0.27667238E+04</pdfrwt>
<pdfrwt beam="2">  1       -2 0.22512178E+00 0.27667238E+04</pdfrwt>
<totfact> 0.13095332E+00</totfact>
</mgrwt>
</event>
<event>
12    3  0.4773567E-008  0.2015956E+04  0.7818608E-02  0.8599197E-01
         -2   -1    0    0    0  501 -0.00000000000E+00  0.00000000000E+00  0.16940722126E+04  0.16940722126E+04  0.00000000000E+00 0.  1.
          2   -1    0    0  501    0  0.00000000000E+00 -0.00000000000E+00 -0.59974972713E+03  0.59974972713E+03  0.00000000000E+00 0. -1.
         23    2    1    2    0    0  0.19850456420E+03  0.34955139058E+03  0.12381954356E+04  0.13053189217E+04  0.95599758995E+02 0.  0.
        254    2    1    2    0    0 -0.19850456420E+03 -0.34955139058E+03 -0.14387295011E+03  0.98850301806E+03  0.89154279441E+03 0.  0.
         23    2    4    4    0    0 -0.42070797642E+03 -0.10281217183E+03  0.21446447139E+03  0.49166421200E+03  0.90405441089E+02 0.  0.
         23    2    4    4    0    0  0.22220341222E+03 -0.24673921875E+03 -0.35833742150E+03  0.49683880606E+03  0.90490292755E+02 0.  0.
          4    1    3    3  502    0  0.16866585658E+02  0.88864492665E+02  0.19802081372E+03  0.21770076352E+03  0.00000000000E+00 0. -1.
         -4    1    3    3    0  502  0.18163797854E+03  0.26068689792E+03  0.10401746219E+04  0.10876181582E+04  0.00000000000E+00 0.  1.
         13    1    5    5    0    0 -0.41930922713E+02 -0.38197775478E+02  0.14721375740E+02  0.58600266507E+02  0.00000000000E+00 0.  1.
        -13    1    5    5    0    0 -0.37877705370E+03 -0.64614396354E+02  0.19974309565E+03  0.43306394549E+03  0.00000000000E+00 0. -1.
          3    1    6    6  503    0  0.19575970285E+03 -0.24113982133E+03 -0.35128377616E+03  0.46890357867E+03  0.00000000000E+00 0. -1.
         -3    1    6    6    0  503  0.26443709369E+02 -0.55993974167E+01 -0.70536453389E+01  0.27935227387E+02  0.00000000000E+00 0.  1.
<mgrwt>
<rscale>  0 0.20159557E+04</rscale>
<asrwt>0</asrwt>
<pdfrwt beam="1">  1        2 0.92269189E-01 0.20159557E+04</pdfrwt>
<pdfrwt beam="2">  1       -2 0.26062649E+00 0.20159557E+04</pdfrwt>
<totfact> 0.25462471E+00</totfact>
</mgrwt>
</event>
<event>
12    3  0.4773567E-008  0.2676521E+04  0.7818608E-02  0.8342664E-01
          1   -1    0    0  501    0  0.00000000000E+00  0.00000000000E+00  0.30040708506E+04  0.30040708506E+04  0.00000000000E+00 0. -1.
         -1   -1    0    0    0  501 -0.00000000000E+00 -0.00000000000E+00 -0.59617123417E+03  0.59617123417E+03  0.00000000000E+00 0.  1.
         23    2    1    2    0    0  0.11420332837E+04  0.26803990376E+03  0.86554778722E+03  0.14607003058E+04  0.91580567823E+02 0.  0.
        254    2    1    2    0    0 -0.11420332837E+04 -0.26803990376E+03  0.15423518292E+04  0.21395417790E+04  0.90703056598E+03 0.  0.
         23    2    4    4    0    0 -0.67670283274E+02 -0.26872709403E+03  0.46464813566E+02  0.29541732687E+03  0.91208002996E+02 0.  0.
         23    2    4    4    0    0 -0.10743630004E+04  0.68719027148E+00  0.14958870157E+04  0.18441244521E+04  0.94131302803E+02 0.  0.
          4    1    3    3  502    0  0.70182093144E+03  0.17981441767E+03  0.58600514133E+03  0.93181965544E+03  0.00000000000E+00 0.  1.
         -4    1    3    3    0  502  0.44021235228E+03  0.88225486092E+02  0.27954264589E+03  0.52888065040E+03  0.00000000000E+00 0. -1.
         13    1    5    5    0    0 -0.20602877647E+02 -0.22687835958E+03  0.46127761464E+02  0.23243502101E+03  0.00000000000E+00 0.  1.
        -13    1    5    5    0    0 -0.47067405628E+02 -0.41848734451E+02  0.33705210142E+00  0.62982305863E+02  0.00000000000E+00 0. -1.
          4    1    6    6  503    0 -0.80197314234E+03 -0.37835671410E+01  0.10440909687E+04  0.13165489688E+04  0.00000000000E+00 0.  1.
         -4    1    6    6    0  503 -0.27238985811E+03  0.44707574125E+01  0.45179604696E+03  0.52757548325E+03  0.00000000000E+00 0. -1.
<mgrwt>
<rscale>  0 0.26765206E+04</rscale>
<asrwt>0</asrwt>
<pdfrwt beam="1">  1        1 0.46216474E+00 0.26765206E+04</pdfrwt>
<pdfrwt beam="2">  1       -1 0.91718653E-01 0.26765206E+04</pdfrwt>
<totfact> 0.60138900E-01</totfact>
</mgrwt>
</event>
<event>
12    3  0.4773567E-008  0.1185123E+04  0.7818608E-02  0.9125979E-01
         -2   -1    0    0    0  501 -0.00000000000E+00  0.00000000000E+00  0.52176214635E+03  0.52176214635E+03  0.00000000000E+00 0.  1.
          2   -1    0    0  501    0  0.00000000000E+00 -0.00000000000E+00 -0.67296743264E+03  0.67296743264E+03  0.00000000000E+00 0. -1.
         23    2    1    2    0    0 -0.10532480847E+03 -0.16186754895E+03  0.11701434079E+03  0.24240249466E+03  0.88160052075E+02 0.  0.
        254    2    1    2    0    0  0.10532480847E+03  0.16186754895E+03 -0.26821962708E+03  0.95232708433E+03  0.89313531366E+03 0.  0.
         23    2    4    4    0    0  0.39533756529E+03 -0.16525284215E+03 -0.25219610710E+03  0.50556400552E+03  0.91606740356E+02 0.  0.
         23    2    4    4    0    0 -0.29001275682E+03  0.32712039110E+03 -0.16023519978E+02  0.44676307881E+03  0.90693693289E+02 0.  0.
          2    1    3    3  502    0 -0.11716245159E+03 -0.15556823254E+03  0.11987863469E+03  0.22869062528E+03  0.00000000000E+00 0.  1.
         -2    1    3    3    0  502  0.11837643127E+02 -0.62993164188E+01 -0.28642938992E+01  0.13711869372E+02  0.00000000000E+00 0. -1.
         13    1    5    5    0    0  0.24692755563E+03 -0.73900207975E+02 -0.10836071665E+03  0.27960061406E+03  0.00000000000E+00 0. -1.
        -13    1    5    5    0    0  0.14841000965E+03 -0.91352634170E+02 -0.14383539045E+03  0.22596339146E+03  0.00000000000E+00 0.  1.
          3    1    6    6  503    0 -0.19038278264E+02 -0.89012859275E+00 -0.93959289156E+01  0.21249278773E+02  0.00000000000E+00 0. -1.
         -3    1    6    6    0  503 -0.27097447855E+03  0.32801051969E+03 -0.66275910622E+01  0.42551380004E+03  0.00000000000E+00 0.  1.
<mgrwt>
<rscale>  0 0.11851227E+04</rscale>
<asrwt>0</asrwt>
<pdfrwt beam="1">  1        2 0.10353345E+00 0.11851227E+04</pdfrwt>
<pdfrwt beam="2">  1       -2 0.80271099E-01 0.11851227E+04</pdfrwt>
<totfact> 0.58371535E+01</totfact>
</mgrwt>
</event>
<event>
12    3  0.4773567E-008  0.1320159E+04  0.7818608E-02  0.9013730E-01
          1   -1    0    0  501    0  0.00000000000E+00  0.00000000000E+00  0.91121642582E+03  0.91121642582E+03  0.00000000000E+00 0. -1.
         -1   -1    0    0    0  501 -0.00000000000E+00 -0.00000000000E+00 -0.47815763171E+03  0.47815763171E+03  0.00000000000E+00 0.  1.
         23    2    1    2    0    0 -0.14084926482E+03  0.19994290431E+03 -0.14715841838E+03  0.29975164857E+03  0.91541085527E+02 0.  0.
        254    2    1    2    0    0  0.14084926482E+03 -0.19994290431E+03  0.58021721248E+03  0.10896224090E+04  0.88927459204E+03 0.  0.
         23    2    4    4    0    0  0.62211619837E+02 -0.54269371229E+03  0.40615611339E+03  0.68710472891E+03  0.93612867927E+02 0.  0.
         23    2    4    4    0    0  0.78637644981E+02  0.34275080798E+03  0.17406109909E+03  0.40251768004E+03  0.89784302364E+02 0.  0.
          3    1    3    3  502    0 -0.39229991483E+02  0.93280968462E+02 -0.10652981027E+03  0.14693172491E+03  0.00000000000E+00 0. -1.
         -3    1    3    3    0  502 -0.10161927334E+03  0.10666193585E+03 -0.40628608112E+02  0.15281992367E+03  0.00000000000E+00 0.  1.
         13    1    5    5    0    0  0.18428515063E+02 -0.65131425248E+02  0.90360019561E+02  0.11290104454E+03  0.00000000000E+00 0. -1.
        -13    1    5    5    0    0  0.43783104775E+02 -0.47756228704E+03  0.31579609383E+03  0.57420368437E+03  0.00000000000E+00 0.  1.
          2    1    6    6  503    0 -0.12919961377E+01  0.29744786938E+02 -0.91299053588E+01  0.31141239151E+02  0.00000000000E+00 0. -1.
         -2    1    6    6    0  503  0.79929641119E+02  0.31300602104E+03  0.18319100445E+03  0.37137644089E+03  0.00000000000E+00 0.  1.
<mgrwt>
<rscale>  0 0.13201592E+04</rscale>
<asrwt>0</asrwt>
<pdfrwt beam="1">  1        1 0.14018714E+00 0.13201592E+04</pdfrwt>
<pdfrwt beam="2">  1       -1 0.73562713E-01 0.13201592E+04</pdfrwt>
<totfact> 0.32547192E+01</totfact>
</mgrwt>
</event>
<event>
12    3  0.4773567E-008  0.1456098E+04  0.7818608E-02  0.8914183E-01
          2   -1    0    0  501    0  0.00000000000E+00  0.00000000000E+00  0.22450340465E+04  0.22450340465E+04  0.00000000000E+00 0.  1.
         -2   -1    0    0    0  501 -0.00000000000E+00 -0.00000000000E+00 -0.23610140690E+03  0.23610140690E+03  0.00000000000E+00 0. -1.
         23    2    1    2    0    0 -0.14215555132E+03  0.40731026693E+03  0.74632704347E+03  0.86752062505E+03  0.97355661107E+02 0.  0.
        254    2    1    2    0    0  0.14215555132E+03 -0.40731026693E+03  0.12626055961E+04  0.16136148283E+04  0.90745251588E+03 0.  0.
         23    2    4    4    0    0 -0.36177935077E+03 -0.24589962959E+03  0.73905650286E+03  0.86371892270E+03  0.91950728857E+02 0.  0.
         23    2    4    4    0    0  0.50393490209E+03 -0.16141063734E+03  0.52354909323E+03  0.74989590562E+03  0.90754817250E+02 0.  0.
          4    1    3    3  502    0 -0.88332759149E+02  0.28885485223E+03  0.43008879230E+03  0.52556271867E+03  0.00000000000E+00 0. -1.
         -4    1    3    3    0  502 -0.53822792169E+02  0.11845541470E+03  0.31623825118E+03  0.34195790638E+03  0.00000000000E+00 0.  1.
         13    1    5    5    0    0 -0.12625171758E+03 -0.61064989537E+02  0.31304585879E+03  0.34302498283E+03  0.00000000000E+00 0.  1.
        -13    1    5    5    0    0 -0.23552763319E+03 -0.18483464005E+03  0.42601064407E+03  0.52069393987E+03  0.00000000000E+00 0. -1.
          4    1    6    6  503    0  0.35739730371E+03 -0.84499386599E+02  0.40242873533E+03  0.54481360671E+03  0.00000000000E+00 0. -1.
         -4    1    6    6    0  503  0.14653759838E+03 -0.76911250740E+02  0.12112035790E+03  0.20508229891E+03  0.00000000000E+00 0.  1.
<mgrwt>
<rscale>  0 0.14560985E+04</rscale>
<asrwt>0</asrwt>
<pdfrwt beam="1">  1        2 0.34538984E+00 0.14560985E+04</pdfrwt>
<pdfrwt beam="2">  1       -2 0.36323295E-01 0.14560985E+04</pdfrwt>
<totfact> 0.33729344E+01</totfact>
</mgrwt>
</event>
<event>
12    3  0.4773567E-008  0.1041321E+04  0.7818608E-02  0.9264350E-01
         -2   -1    0    0    0  501 -0.00000000000E+00  0.00000000000E+00  0.38147890062E+03  0.38147890062E+03  0.00000000000E+00 0. -1.
          2   -1    0    0  501    0  0.00000000000E+00 -0.00000000000E+00 -0.71062278461E+03  0.71062278461E+03  0.00000000000E+00 0.  1.
         23    2    1    2    0    0 -0.85839752453E+02  0.47965860088E+02 -0.29937600640E+02  0.13643902023E+03  0.89722680930E+02 0.  0.
        254    2    1    2    0    0  0.85839752453E+02 -0.47965860088E+02 -0.29920628335E+03  0.95566266501E+03  0.90227354081E+03 0.  0.
         23    2    4    4    0    0 -0.22823523285E+03 -0.21208805114E+03 -0.45413099006E+03  0.55819588705E+03  0.90967187690E+02 0.  0.
         23    2    4    4    0    0  0.31407498531E+03  0.16412219105E+03  0.15492470671E+03  0.39746677796E+03  0.91645975587E+02 0.  0.
          4    1    3    3  502    0 -0.58298148346E+02  0.19239445830E+02  0.26923334345E+02  0.67035037918E+02  0.00000000000E+00 0. -1.
         -4    1    3    3    0  502 -0.27541604107E+02  0.28726414258E+02 -0.56860934985E+02  0.69403982309E+02  0.00000000000E+00 0.  1.
         13    1    5    5    0    0 -0.96777037633E+01 -0.46894434775E+02 -0.44330261361E+02  0.65252724352E+02  0.00000000000E+00 0. -1.
        -13    1    5    5    0    0 -0.21855752909E+03 -0.16519361636E+03 -0.40980072870E+03  0.49294316270E+03  0.00000000000E+00 0.  1.
          2    1    6    6  503    0  0.14863896487E+03  0.32645163805E+02  0.42011511115E+02  0.15787405000E+03  0.00000000000E+00 0. -1.
         -2    1    6    6    0  503  0.16543602044E+03  0.13147702724E+03  0.11291319559E+03  0.23959272795E+03  0.00000000000E+00 0.  1.
<mgrwt>
<rscale>  0 0.10413215E+04</rscale>
<asrwt>0</asrwt>
<pdfrwt beam="1">  1        2 0.10932658E+00 0.10413215E+04</pdfrwt>
<pdfrwt beam="2">  1       -2 0.58689063E-01 0.10413215E+04</pdfrwt>
<totfact> 0.10871020E+02</totfact>
</mgrwt>
</event>
<event>
12    3  0.4773567E-008  0.1627702E+04  0.7818608E-02  0.8803708E-01
         -2   -1    0    0    0  501 -0.00000000000E+00  0.00000000000E+00  0.12043933149E+04  0.12043933149E+04  0.00000000000E+00 0. -1.
          2   -1    0    0  501    0  0.00000000000E+00 -0.00000000000E+00 -0.54994748329E+03  0.54994748329E+03  0.00000000000E+00 0.  1.
         23    2    1    2    0    0 -0.49628252170E+03 -0.94164978401E+02  0.67809005740E+02  0.51779258938E+03  0.91365857116E+02 0.  0.
        254    2    1    2    0    0  0.49628252170E+03  0.94164978401E+02  0.58663682591E+03  0.12365482089E+04  0.96423302308E+03 0.  0.
         23    2    4    4    0    0 -0.16931876221E+03  0.24093745083E+03  0.43416838573E+03  0.53241715751E+03  0.90808281540E+02 0.  0.
         23    2    4    4    0    0  0.66560128392E+03 -0.14677247243E+03  0.15246844018E+03  0.70413105135E+03  0.89368251640E+02 0.  0.
          4    1    3    3  502    0 -0.96483511818E+02 -0.28255437642E+02  0.49808123764E+02  0.11219753563E+03  0.00000000000E+00 0.  1.
         -4    1    3    3    0  502 -0.39979900989E+03 -0.65909540759E+02  0.18000881976E+02  0.40559505374E+03  0.00000000000E+00 0. -1.
         13    1    5    5    0    0 -0.81222432120E+02  0.94605811538E+02  0.11123018185E+03  0.16709128167E+03  0.00000000000E+00 0. -1.
        -13    1    5    5    0    0 -0.88096330093E+02  0.14633163929E+03  0.32293820388E+03  0.36532587584E+03  0.00000000000E+00 0.  1.
          3    1    6    6  503    0  0.11752369341E+03  0.81673250312E+01  0.22598401250E+02  0.11995503929E+03  0.00000000000E+00 0. -1.
         -3    1    6    6    0  503  0.54807759050E+03 -0.15493979746E+03  0.12987003893E+03  0.58417601206E+03  0.00000000000E+00 0.  1.
<mgrwt>
<rscale>  0 0.16277015E+04</rscale>
<asrwt>0</asrwt>
<pdfrwt beam="1">  1        2 0.84607306E-01 0.16277015E+04</pdfrwt>
<pdfrwt beam="2">  1       -2 0.18529128E+00 0.16277015E+04</pdfrwt>
<totfact> 0.87784577E+00</totfact>
</mgrwt>
</event>
<event>
12    3  0.4773567E-008  0.1570542E+04  0.7818608E-02  0.8838852E-01
         -2   -1    0    0    0  501 -0.00000000000E+00  0.00000000000E+00  0.64574517306E+03  0.64574517306E+03  0.00000000000E+00 0.  1.
          2   -1    0    0  501    0  0.00000000000E+00 -0.00000000000E+00 -0.95494415918E+03  0.95494415918E+03  0.00000000000E+00 0. -1.
         23    2    1    2    0    0  0.45600377331E+03 -0.18089549153E+03 -0.28201750449E+03  0.57307877435E+03  0.90679593282E+02 0.  0.
        254    2    1    2    0    0 -0.45600377331E+03  0.18089549153E+03 -0.27181481630E+02  0.10276105579E+04  0.90254196889E+03 0.  0.
         23    2    4    4    0    0  0.29707510096E+02 -0.20790527436E+03  0.25074743741E+03  0.33980697264E+03  0.92126880044E+02 0.  0.
         23    2    4    4    0    0 -0.48571128341E+03  0.38880076589E+03 -0.27792891904E+03  0.68780358525E+03  0.93529682242E+02 0.  0.
          1    1    3    3  502    0  0.37665348910E+03 -0.17189597840E+03 -0.26456293324E+03  0.49133453358E+03  0.00000000000E+00 0. -1.
         -1    1    3    3    0  502  0.79350284217E+02 -0.89995131333E+01 -0.17454571243E+02  0.81744240771E+02  0.00000000000E+00 0.  1.
         13    1    5    5    0    0  0.44527796201E+02 -0.80999198718E+02  0.59917111383E+02  0.11015287134E+03  0.00000000000E+00 0.  1.
        -13    1    5    5    0    0 -0.14820286105E+02 -0.12690607564E+03  0.19083032602E+03  0.22965410130E+03  0.00000000000E+00 0. -1.
          2    1    6    6  503    0 -0.22533249204E+03  0.20218873378E+03 -0.18270678907E+03  0.35360541117E+03  0.00000000000E+00 0. -1.
         -2    1    6    6    0  503 -0.26037879137E+03  0.18661203211E+03 -0.95222129961E+02  0.33419817408E+03  0.00000000000E+00 0.  1.
<mgrwt>
<rscale>  0 0.15705420E+04</rscale>
<asrwt>0</asrwt>
<pdfrwt beam="1">  1        2 0.14691449E+00 0.15705420E+04</pdfrwt>
<pdfrwt beam="2">  1       -2 0.99345411E-01 0.15705420E+04</pdfrwt>
<totfact> 0.21731987E+01</totfact>
</mgrwt>
</event>
<event>
12    3  0.4773567E-008  0.1261944E+04  0.7818608E-02  0.9060300E-01
         -1   -1    0    0    0  501 -0.00000000000E+00  0.00000000000E+00  0.23753043596E+04  0.23753043596E+04  0.00000000000E+00 0.  1.
          1   -1    0    0  501    0  0.00000000000E+00 -0.00000000000E+00 -0.16761042261E+03  0.16761042261E+03  0.00000000000E+00 0. -1.
         23    2    1    2    0    0  0.29390761841E+03 -0.32537640172E+02  0.60316382774E+03  0.67770390924E+03  0.89641504431E+02 0.  0.
        254    2    1    2    0    0 -0.29390761841E+03  0.32537640172E+02  0.16045301093E+04  0.18652108730E+04  0.90391058352E+03 0.  0.
         23    2    4    4    0    0  0.29859033511E+03 -0.69766460447E+02  0.37086166430E+03  0.48973879391E+03  0.91006400778E+02 0.  0.
         23    2    4    4    0    0 -0.59249795353E+03  0.10230410062E+03  0.12336684450E+04  0.13754720791E+04  0.92008990379E+02 0.  0.
          3    1    3    3  502    0  0.12292438595E+03 -0.26089775990E+00  0.34614542385E+03  0.36732428069E+03  0.00000000000E+00 0. -1.
         -3    1    3    3    0  502  0.17098323246E+03 -0.32276742413E+02  0.25701840389E+03  0.31037962856E+03  0.00000000000E+00 0.  1.
         13    1    5    5    0    0  0.18929512950E+03 -0.88169285343E+02  0.25038986057E+03  0.32603918661E+03  0.00000000000E+00 0. -1.
        -13    1    5    5    0    0  0.10929520561E+03  0.18402824896E+02  0.12047180373E+03  0.16369960730E+03  0.00000000000E+00 0.  1.
          4    1    6    6  503    0 -0.55433633839E+02  0.33488205140E+02  0.10004833960E+03  0.11918061043E+03  0.00000000000E+00 0. -1.
         -4    1    6    6    0  503 -0.53706431969E+03  0.68815895479E+02  0.11336201054E+04  0.12562914687E+04  0.00000000000E+00 0.  1.
<mgrwt>
<rscale>  0 0.12619442E+04</rscale>
<asrwt>0</asrwt>
<pdfrwt beam="1">  1        1 0.25786221E-01 0.12619442E+04</pdfrwt>
<pdfrwt beam="2">  1       -1 0.36543141E+00 0.12619442E+04</pdfrwt>
<totfact> 0.22901248E+00</totfact>
</mgrwt>
</event>
<event>
12    3  0.4773567E-008  0.2114106E+04  0.7818608E-02  0.8555055E-01
          2   -1    0    0  501    0  0.00000000000E+00  0.00000000000E+00  0.12641805315E+04  0.12641805315E+04  0.00000000000E+00 0. -1.
         -2   -1    0    0    0  501 -0.00000000000E+00 -0.00000000000E+00 -0.88386220771E+03  0.88386220771E+03  0.00000000000E+00 0.  1.
         23    2    1    2    0    0  0.69424181943E+03 -0.28595268645E+03 -0.28270367575E+03  0.80697260468E+03  0.86849143361E+02 0.  0.
        254    2    1    2    0    0 -0.69424181943E+03  0.28595268645E+03  0.66302199952E+03  0.13410701345E+04  0.89170078562E+03 0.  0.
         23    2    4    4    0    0 -0.68080203655E+03  0.55159980112E+03  0.54408103799E+03  0.10354602591E+04  0.91651616013E+02 0.  0.
         23    2    4    4    0    0 -0.13439782880E+02 -0.26564711467E+03  0.11894096152E+03  0.30560987539E+03  0.92203179504E+02 0.  0.
          3    1    3    3  502    0  0.61436486019E+03 -0.24623664556E+03 -0.21828880776E+03  0.69694093770E+03  0.00000000000E+00 0. -1.
         -3    1    3    3    0  502  0.79876959235E+02 -0.39716040889E+02 -0.64414867990E+02  0.11003166698E+03  0.00000000000E+00 0.  1.
         13    1    5    5    0    0 -0.38041321864E+03  0.34876947973E+03  0.35731056000E+03  0.62771426875E+03  0.00000000000E+00 0.  1.
        -13    1    5    5    0    0 -0.30038881790E+03  0.20283032139E+03  0.18677047799E+03  0.40774599035E+03  0.00000000000E+00 0. -1.
          2    1    6    6  503    0  0.16112002935E+02 -0.19807794814E+03  0.50619214591E+02  0.20507748551E+03  0.00000000000E+00 0. -1.
         -2    1    6    6    0  503 -0.29551785815E+02 -0.67569166531E+02  0.68321746934E+02  0.10053238988E+03  0.00000000000E+00 0.  1.
<mgrwt>
<rscale>  0 0.21141063E+04</rscale>
<asrwt>0</asrwt>
<pdfrwt beam="1">  1        2 0.19448931E+00 0.21141063E+04</pdfrwt>
<pdfrwt beam="2">  1       -2 0.13597880E+00 0.21141063E+04</pdfrwt>
<totfact> 0.61861911E+00</totfact>
</mgrwt>
</event>
<event>
12    3  0.4773567E-008  0.1618992E+04  0.7818608E-02  0.8808965E-01
          1   -1    0    0  501    0  0.00000000000E+00  0.00000000000E+00  0.26609006923E+04  0.26609006923E+04  0.00000000000E+00 0. -1.
         -1   -1    0    0    0  501 -0.00000000000E+00 -0.00000000000E+00 -0.24626377254E+03  0.24626377254E+03  0.00000000000E+00 0.  1.
         23    2    1    2    0    0 -0.32314953344E+03  0.40681589153E+03  0.47802196812E+03  0.71169239817E+03  0.89868109094E+02 0.  0.
        254    2    1    2    0    0  0.32314953344E+03 -0.40681589153E+03  0.19366149517E+04  0.21954720667E+04  0.89425686135E+03 0.  0.
         23    2    4    4    0    0  0.32357562067E+03 -0.29886274488E+03  0.19934952316E+04  0.20435215590E+04  0.89089848017E+02 0.  0.
         23    2    4    4    0    0 -0.42608723400E+00 -0.10795314666E+03 -0.56880279898E+02  0.15195050776E+03  0.90551240429E+02 0.  0.
          4    1    3    3  502    0 -0.88227251915E+02  0.14461651791E+03  0.20653358454E+03  0.26712189498E+03  0.00000000000E+00 0. -1.
         -4    1    3    3    0  502 -0.23492228152E+03  0.26219937362E+03  0.27148838358E+03  0.44457050319E+03  0.00000000000E+00 0.  1.
         13    1    5    5    0    0  0.25827832345E+03 -0.26304930355E+03  0.17687219675E+04  0.18067318635E+04  0.00000000000E+00 0.  1.
        -13    1    5    5    0    0  0.65297297225E+02 -0.35813441324E+02  0.22477326411E+03  0.23678969543E+03  0.00000000000E+00 0. -1.
          4    1    6    6  503    0  0.15526713368E+02  0.10314086232E+02 -0.19307306040E+02  0.26837124834E+02  0.00000000000E+00 0. -1.
         -4    1    6    6    0  503 -0.15952800602E+02 -0.11826723289E+03 -0.37572973858E+02  0.12511338292E+03  0.00000000000E+00 0.  1.
<mgrwt>
<rscale>  0 0.16189916E+04</rscale>
<asrwt>0</asrwt>
<pdfrwt beam="1">  1        1 0.40936932E+00 0.16189916E+04</pdfrwt>
<pdfrwt beam="2">  1       -1 0.37886736E-01 0.16189916E+04</pdfrwt>
<totfact> 0.67554079E+00</totfact>
</mgrwt>
</event>
<event>
12    3  0.4773567E-008  0.2542493E+04  0.7818608E-02  0.8388002E-01
         -2   -1    0    0    0  501 -0.00000000000E+00  0.00000000000E+00  0.52379359618E+03  0.52379359618E+03  0.00000000000E+00 0. -1.
          2   -1    0    0  501    0  0.00000000000E+00 -0.00000000000E+00 -0.30853145759E+04  0.30853145759E+04  0.00000000000E+00 0.  1.
         23    2    1    2    0    0  0.10762116945E+04  0.20013507120E+03 -0.13843115200E+04  0.17670871671E+04  0.89403656584E+02 0.  0.
        254    2    1    2    0    0 -0.10762116945E+04 -0.20013507120E+03 -0.11772094598E+04  0.18420210050E+04  0.89940736742E+03 0.  0.
         23    2    4    4    0    0 -0.23913570587E+03  0.15855846187E+03  0.54958119024E+02  0.30712190879E+03  0.94745978056E+02 0.  0.
         23    2    4    4    0    0 -0.83707598860E+03 -0.35869353307E+03 -0.12321675788E+04  0.15348990962E+04  0.91219690260E+02 0.  0.
          4    1    3    3  502    0  0.28176597418E+03  0.56752420155E+02 -0.30263676851E+03  0.41737502926E+03  0.00000000000E+00 0. -1.
         -4    1    3    3    0  502  0.79444572030E+03  0.14338265105E+03 -0.10816747515E+04  0.13497121378E+04  0.00000000000E+00 0.  1.
         13    1    5    5    0    0 -0.14642041634E+03  0.14855812981E+03  0.31377262147E+02  0.21093361238E+03  0.00000000000E+00 0. -1.
        -13    1    5    5    0    0 -0.92715289535E+02  0.10000332065E+02  0.23580856877E+02  0.96188296408E+02  0.00000000000E+00 0.  1.
          4    1    6    6  503    0 -0.43461147585E+02 -0.10401719829E+02 -0.96167534721E+02  0.10604367902E+03  0.00000000000E+00 0.  1.
         -4    1    6    6    0  503 -0.79361484102E+03 -0.34829181325E+03 -0.11360000441E+04  0.14288554172E+04  0.00000000000E+00 0. -1.
<mgrwt>
<rscale>  0 0.25424933E+04</rscale>
<asrwt>0</asrwt>
<pdfrwt beam="1">  1        2 0.47466377E+00 0.25424933E+04</pdfrwt>
<pdfrwt beam="2">  1       -2 0.80583632E-01 0.25424933E+04</pdfrwt>
<totfact> 0.18587575E+00</totfact>
</mgrwt>
</event>
<event>
12    3  0.4773567E-008  0.1543231E+04  0.7818608E-02  0.8856203E-01
          2   -1    0    0  501    0  0.00000000000E+00  0.00000000000E+00  0.45537893258E+03  0.45537893258E+03  0.00000000000E+00 0.  1.
         -2   -1    0    0    0  501 -0.00000000000E+00 -0.00000000000E+00 -0.13074624440E+04  0.13074624440E+04  0.00000000000E+00 0. -1.
         23    2    1    2    0    0 -0.34792696087E+02 -0.38253589008E+02 -0.83642649902E+03  0.84305268308E+03  0.91949276311E+02 0.  0.
        254    2    1    2    0    0  0.34792696087E+02  0.38253589008E+02 -0.15657012373E+02  0.91978869348E+03  0.91820053901E+03 0.  0.
         23    2    4    4    0    0 -0.25594000496E+03  0.20291967684E+03 -0.31453957033E+03  0.46220249669E+03  0.89522763879E+02 0.  0.
         23    2    4    4    0    0  0.29073270105E+03 -0.16466608783E+03  0.29888255796E+03  0.45758619679E+03  0.91727422838E+02 0.  0.
          3    1    3    3  502    0 -0.19135997539E+02 -0.30024533205E+02 -0.81259472187E+03  0.81337435478E+03  0.00000000000E+00 0. -1.
         -3    1    3    3    0  502 -0.15656698548E+02 -0.82290558023E+01 -0.23831777147E+02  0.29678328302E+02  0.00000000000E+00 0.  1.
         13    1    5    5    0    0 -0.11020899996E+03  0.41082265353E+02 -0.80604471427E+02  0.14258631425E+03  0.00000000000E+00 0. -1.
        -13    1    5    5    0    0 -0.14573100501E+03  0.16183741148E+03 -0.23393509890E+03  0.31961618244E+03  0.00000000000E+00 0.  1.
          3    1    6    6  503    0  0.57838325763E+02 -0.44145383643E+01  0.22467100029E+02  0.62205551679E+02  0.00000000000E+00 0. -1.
         -3    1    6    6    0  503  0.23289437529E+03 -0.16025154946E+03  0.27641545793E+03  0.39538064511E+03  0.00000000000E+00 0.  1.
<mgrwt>
<rscale>  0 0.15432315E+04</rscale>
<asrwt>0</asrwt>
<pdfrwt beam="1">  1        2 0.70058298E-01 0.15432315E+04</pdfrwt>
<pdfrwt beam="2">  1       -2 0.20114807E+00 0.15432315E+04</pdfrwt>
<totfact> 0.86279334E+00</totfact>
</mgrwt>
</event>
<event>
12    3  0.4773567E-008  0.1851678E+04  0.7818608E-02  0.8679291E-01
         -1   -1    0    0    0  501 -0.00000000000E+00  0.00000000000E+00  0.10605230990E+04  0.10605230990E+04  0.00000000000E+00 0.  1.
          1   -1    0    0  501    0  0.00000000000E+00 -0.00000000000E+00 -0.80825921485E+03  0.80825921485E+03  0.00000000000E+00 0. -1.
         23    2    1    2    0    0 -0.38757923079E+03 -0.24643895714E+03  0.60515545691E+03  0.76484074801E+03  0.88421847234E+02 0.  0.
        254    2    1    2    0    0  0.38757923079E+03  0.24643895714E+03 -0.35289157274E+03  0.11039415658E+04  0.93978970997E+03 0.  0.
         23    2    4    4    0    0  0.17155875096E+02 -0.33083937048E+03 -0.19148636818E+03  0.39326352055E+03  0.90775295579E+02 0.  0.
         23    2    4    4    0    0  0.37042335569E+03  0.57727832762E+03 -0.16140520456E+03  0.71067804530E+03  0.92454929714E+02 0.  0.
          3    1    3    3  502    0 -0.15116090858E+03 -0.94778814483E+02  0.30800153459E+03  0.35594604825E+03  0.00000000000E+00 0. -1.
         -3    1    3    3    0  502 -0.23641832221E+03 -0.15166014265E+03  0.29715392232E+03  0.40889469977E+03  0.00000000000E+00 0.  1.
         13    1    5    5    0    0  0.38766725793E+02 -0.57977478624E+02 -0.41154106815E+02  0.80980908639E+02  0.00000000000E+00 0.  1.
        -13    1    5    5    0    0 -0.21610850697E+02 -0.27286189186E+03 -0.15033226137E+03  0.31228261191E+03  0.00000000000E+00 0. -1.
          1    1    6    6  503    0  0.27829349851E+03  0.38534863994E+03 -0.14588982867E+03  0.49721694232E+03  0.00000000000E+00 0. -1.
         -1    1    6    6    0  503  0.92129857181E+02  0.19192968768E+03 -0.15515375886E+02  0.21346110298E+03  0.00000000000E+00 0.  1.
<mgrwt>
<rscale>  0 0.18516777E+04</rscale>
<asrwt>0</asrwt>
<pdfrwt beam="1">  1        1 0.12434757E+00 0.18516777E+04</pdfrwt>
<pdfrwt beam="2">  1       -1 0.16315740E+00 0.18516777E+04</pdfrwt>
<totfact> 0.56517287E+00</totfact>
</mgrwt>
</event>
<event>
12    3  0.4773567E-008  0.1590917E+04  0.7818608E-02  0.8826148E-01
         -2   -1    0    0    0  501 -0.00000000000E+00  0.00000000000E+00  0.10437798890E+04  0.10437798890E+04  0.00000000000E+00 0.  1.
          2   -1    0    0  501    0  0.00000000000E+00 -0.00000000000E+00 -0.60621412200E+03  0.60621412200E+03  0.00000000000E+00 0. -1.
         23    2    1    2    0    0 -0.49066170388E+02 -0.52235461466E+03  0.13817684044E+03  0.55012191805E+03  0.90991499340E+02 0.  0.
        254    2    1    2    0    0  0.49066170388E+02  0.52235461466E+03  0.29938892654E+03  0.10998720929E+04  0.91914256725E+03 0.  0.
         23    2    4    4    0    0  0.25681406337E+03  0.29684137624E+03  0.55802501078E+03  0.68847837032E+03  0.92424498678E+02 0.  0.
         23    2    4    4    0    0 -0.20774789298E+03  0.22551323842E+03 -0.25863608424E+03  0.41139372261E+03  0.91305877087E+02 0.  0.
          3    1    3    3  502    0 -0.19842570604E+02 -0.32399043991E+03  0.40576739748E+02  0.32712383675E+03  0.00000000000E+00 0. -1.
         -3    1    3    3    0  502 -0.29223599784E+02 -0.19836417475E+03  0.97600100691E+02  0.22299808130E+03  0.00000000000E+00 0.  1.
         13    1    5    5    0    0  0.25954821232E+03  0.28927377607E+03  0.51763583003E+03  0.64729548475E+03  0.00000000000E+00 0. -1.
        -13    1    5    5    0    0 -0.27341489552E+01  0.75676001713E+01  0.40389180751E+02  0.41182885579E+02  0.00000000000E+00 0.  1.
          1    1    6    6  503    0 -0.13075069680E+03  0.79252358579E+02 -0.14574780838E+03  0.21123234767E+03  0.00000000000E+00 0. -1.
         -1    1    6    6    0  503 -0.76997196182E+02  0.14626087984E+03 -0.11288827586E+03  0.20016137494E+03  0.00000000000E+00 0.  1.
<mgrwt>
<rscale>  0 0.15909169E+04</rscale>
<asrwt>0</asrwt>
<pdfrwt beam="1">  1        2 0.93263711E-01 0.15909169E+04</pdfrwt>
<pdfrwt beam="2">  1       -2 0.16058152E+00 0.15909169E+04</pdfrwt>
<totfact> 0.11712921E+01</totfact>
</mgrwt>
</event>
<event>
12    3  0.4773567E-008  0.1513266E+04  0.7818608E-02  0.8875679E-01
         -2   -1    0    0    0  501 -0.00000000000E+00  0.00000000000E+00  0.50424891824E+03  0.50424891824E+03  0.00000000000E+00 0.  1.
          2   -1    0    0  501    0  0.00000000000E+00 -0.00000000000E+00 -0.11353383926E+04  0.11353383926E+04  0.00000000000E+00 0. -1.
         23    2    1    2    0    0 -0.37882430476E+03 -0.15514033335E+03  0.79224668294E+02  0.42653074941E+03  0.89864093067E+02 0.  0.
        254    2    1    2    0    0  0.37882430476E+03  0.15514033335E+03 -0.71031414267E+03  0.12130565614E+04  0.89408258179E+03 0.  0.
         23    2    4    4    0    0  0.13654672792E+03 -0.36608890177E+03 -0.30628135883E+03  0.50484976339E+03  0.91645621401E+02 0.  0.
         23    2    4    4    0    0  0.24227757683E+03  0.52122923512E+03 -0.40403278383E+03  0.70820679804E+03  0.89084446420E+02 0.  0.
          1    1    3    3  502    0 -0.82958272550E+02 -0.11891476020E+02 -0.13723323604E+02  0.84922386902E+02  0.00000000000E+00 0. -1.
         -1    1    3    3    0  502 -0.29586603221E+03 -0.14324885733E+03  0.92947991898E+02  0.34160836251E+03  0.00000000000E+00 0.  1.
         13    1    5    5    0    0  0.10813310985E+03 -0.29846964113E+03 -0.28943784928E+03  0.42959418609E+03  0.00000000000E+00 0.  1.
        -13    1    5    5    0    0  0.28413618079E+02 -0.67619260641E+02 -0.16843509553E+02  0.75255577308E+02  0.00000000000E+00 0. -1.
          2    1    6    6  503    0  0.59597795202E+02  0.16070805701E+03 -0.16882809635E+03  0.24058658088E+03  0.00000000000E+00 0. -1.
         -2    1    6    6    0  503  0.18267978163E+03  0.36052117811E+03 -0.23520468748E+03  0.46762021716E+03  0.00000000000E+00 0.  1.
<mgrwt>
<rscale>  0 0.15132656E+04</rscale>
<asrwt>0</asrwt>
<pdfrwt beam="1">  1        2 0.17466744E+00 0.15132656E+04</pdfrwt>
<pdfrwt beam="2">  1       -2 0.77576758E-01 0.15132656E+04</pdfrwt>
<totfact> 0.29631361E+01</totfact>
</mgrwt>
</event>
<event>
12    3  0.4773567E-008  0.3253278E+04  0.7818608E-02  0.8174887E-01
         -2   -1    0    0    0  501 -0.00000000000E+00  0.00000000000E+00  0.24489994846E+04  0.24489994846E+04  0.00000000000E+00 0.  1.
          2   -1    0    0  501    0  0.00000000000E+00 -0.00000000000E+00 -0.10804226104E+04  0.10804226104E+04  0.00000000000E+00 0. -1.
         23    2    1    2    0    0  0.10532849669E+04 -0.18905881767E+03  0.17681691808E+04  0.20687031196E+04  0.89206989714E+02 0.  0.
        254    2    1    2    0    0 -0.10532849669E+04  0.18905881767E+03 -0.39959230657E+03  0.14607189754E+04  0.91042487652E+03 0.  0.
         23    2    4    4    0    0 -0.44069055141E+03  0.30501207323E+02  0.27719812120E+03  0.52944801520E+03  0.91312193364E+02 0.  0.
         23    2    4    4    0    0 -0.61259441545E+03  0.15855761034E+03 -0.67679042777E+03  0.93127096023E+03  0.93850330913E+02 0.  0.
          1    1    3    3  502    0  0.13939753349E+03 -0.53830495392E+02  0.27001430068E+03  0.30860511524E+03  0.00000000000E+00 0. -1.
         -1    1    3    3    0  502  0.91388743338E+03 -0.13522832228E+03  0.14981548801E+04  0.17600980043E+04  0.00000000000E+00 0.  1.
         13    1    5    5    0    0 -0.88158968769E+02 -0.10422037681E+02  0.19585209313E+02  0.90907662315E+02  0.00000000000E+00 0. -1.
        -13    1    5    5    0    0 -0.35253158264E+03  0.40923245005E+02  0.25761291189E+03  0.43854035289E+03  0.00000000000E+00 0.  1.
          1    1    6    6  503    0 -0.26992342134E+02  0.29220396105E+02 -0.36539975569E+02  0.54014700749E+02  0.00000000000E+00 0. -1.
         -1    1    6    6    0  503 -0.58560207332E+03  0.12933721424E+03 -0.64025045220E+03  0.87725625948E+03  0.00000000000E+00 0.  1.
<mgrwt>
<rscale>  0 0.32532780E+04</rscale>
<asrwt>0</asrwt>
<pdfrwt beam="1">  1        2 0.16621886E+00 0.32532780E+04</pdfrwt>
<pdfrwt beam="2">  1       -2 0.37676915E+00 0.32532780E+04</pdfrwt>
<totfact> 0.19716995E-01</totfact>
</mgrwt>
</event>
<event>
12    3  0.4773567E-008  0.1310999E+04  0.7818608E-02  0.9020888E-01
          1   -1    0    0  501    0  0.00000000000E+00  0.00000000000E+00  0.23675419439E+04  0.23675419439E+04  0.00000000000E+00 0.  1.
         -1   -1    0    0    0  501 -0.00000000000E+00 -0.00000000000E+00 -0.18148766092E+03  0.18148766092E+03  0.00000000000E+00 0. -1.
         23    2    1    2    0    0  0.67303968731E+01  0.54249410377E+02 -0.64395807420E+02  0.12397904759E+03  0.90750688478E+02 0.  0.
        254    2    1    2    0    0 -0.67303968731E+01 -0.54249410377E+02  0.22504500904E+04  0.24250505573E+04  0.90186268300E+03 0.  0.
         23    2    4    4    0    0 -0.44011766347E+03  0.28654183313E+02  0.12059876013E+04  0.12875494468E+04  0.94089657531E+02 0.  0.
         23    2    4    4    0    0  0.43338726660E+03 -0.82903593690E+02  0.10444624892E+04  0.11375011105E+04  0.91155670718E+02 0.  0.
          4    1    3    3  502    0 -0.19878727026E+02  0.65175950943E+02 -0.19884789556E+02  0.70982203581E+02  0.00000000000E+00 0.  1.
         -4    1    3    3    0  502  0.26609123900E+02 -0.10926540566E+02 -0.44511017864E+02  0.52996844007E+02  0.00000000000E+00 0. -1.
         13    1    5    5    0    0 -0.72243762280E+02  0.33253432940E+02  0.28235031525E+03  0.29333709706E+03  0.00000000000E+00 0.  1.
        -13    1    5    5    0    0 -0.36787390119E+03 -0.45992496269E+01  0.92363728602E+03  0.99421234975E+03  0.00000000000E+00 0. -1.
          3    1    6    6  503    0 -0.74168629938E-01  0.76244858763E+01  0.14500994029E+02  0.16383440228E+02  0.00000000000E+00 0.  1.
         -3    1    6    6    0  503  0.43346143523E+03 -0.90528079566E+02  0.10299614952E+04  0.11211176702E+04  0.00000000000E+00 0. -1.
<mgrwt>
<rscale>  0 0.13109991E+04</rscale>
<asrwt>0</asrwt>
<pdfrwt beam="1">  1        1 0.36423720E+00 0.13109991E+04</pdfrwt>
<pdfrwt beam="2">  1       -1 0.27921180E-01 0.13109991E+04</pdfrwt>
<totfact> 0.19064525E+01</totfact>
</mgrwt>
</event>
<event>
12    3  0.4773567E-008  0.1854555E+04  0.7818608E-02  0.8677814E-01
          2   -1    0    0  501    0  0.00000000000E+00  0.00000000000E+00  0.79078841192E+03  0.79078841192E+03  0.00000000000E+00 0. -1.
         -2   -1    0    0    0  501 -0.00000000000E+00 -0.00000000000E+00 -0.10873238928E+04  0.10873238928E+04  0.00000000000E+00 0.  1.
         23    2    1    2    0    0 -0.43541313349E+03  0.21028822257E+03  0.40089728488E+03  0.63458736583E+03  0.90425430504E+02 0.  0.
        254    2    1    2    0    0  0.43541313349E+03 -0.21028822257E+03 -0.69743276578E+03  0.12435249389E+04  0.90892028120E+03 0.  0.
         23    2    4    4    0    0  0.17910420606E+03  0.18918401058E+02  0.19603038335E+03  0.28151438082E+03  0.91576268123E+02 0.  0.
         23    2    4    4    0    0  0.25630892742E+03 -0.22920662362E+03 -0.89346314914E+03  0.96201055810E+03  0.94646565928E+02 0.  0.
          4    1    3    3  502    0 -0.38736369685E+03  0.16410345525E+03  0.37336226253E+03  0.56247662773E+03  0.00000000000E+00 0. -1.
         -4    1    3    3    0  502 -0.48049436636E+02  0.46184767318E+02  0.27535022354E+02  0.72110738100E+02  0.00000000000E+00 0.  1.
         13    1    5    5    0    0  0.16651220240E+03 -0.13450703468E+02  0.16750823058E+03  0.23657185438E+03  0.00000000000E+00 0. -1.
        -13    1    5    5    0    0  0.12592003659E+02  0.32369104526E+02  0.28522152771E+02  0.44942526438E+02  0.00000000000E+00 0.  1.
          4    1    6    6  503    0  0.16451655075E+03 -0.12933997199E+03 -0.65558846349E+03  0.68817930606E+03  0.00000000000E+00 0. -1.
         -4    1    6    6    0  503  0.91792376670E+02 -0.99866651635E+02 -0.23787468565E+03  0.27383125204E+03  0.00000000000E+00 0.  1.
<mgrwt>
<rscale>  0 0.18545545E+04</rscale>
<asrwt>0</asrwt>
<pdfrwt beam="1">  1        2 0.12165976E+00 0.18545545E+04</pdfrwt>
<pdfrwt beam="2">  1       -2 0.16728060E+00 0.18545545E+04</pdfrwt>
<totfact> 0.73254680E+00</totfact>
</mgrwt>
</event>
<event>
12    3  0.4773567E-008  0.2187242E+04  0.7818608E-02  0.8523757E-01
          2   -1    0    0  501    0  0.00000000000E+00  0.00000000000E+00  0.12621415854E+04  0.12621415854E+04  0.00000000000E+00 0. -1.
         -2   -1    0    0    0  501 -0.00000000000E+00 -0.00000000000E+00 -0.94760098352E+03  0.94760098352E+03  0.00000000000E+00 0.  1.
         23    2    1    2    0    0 -0.51106281399E+03  0.23372224101E+03 -0.58340444147E+03  0.81554452314E+03  0.94556021023E+02 0.  0.
        254    2    1    2    0    0  0.51106281399E+03 -0.23372224101E+03  0.89794504339E+03  0.13941980458E+04  0.90646103292E+03 0.  0.
         23    2    4    4    0    0  0.33938834442E+03  0.32245611064E+03  0.40405246584E+03  0.62520413185E+03  0.91975103738E+02 0.  0.
         23    2    4    4    0    0  0.17167446957E+03 -0.55617835165E+03  0.49389257755E+03  0.76899391397E+03  0.92818528381E+02 0.  0.
          3    1    3    3  502    0 -0.19315704828E+03  0.80267585671E+02 -0.28369148046E+03  0.35246756829E+03  0.00000000000E+00 0. -1.
         -3    1    3    3    0  502 -0.31790576572E+03  0.15345465533E+03 -0.29971296101E+03  0.46307695485E+03  0.00000000000E+00 0.  1.
         13    1    5    5    0    0  0.48068326284E+02  0.29305494295E+02  0.89904728652E+02  0.10607655830E+03  0.00000000000E+00 0.  1.
        -13    1    5    5    0    0  0.29132001814E+03  0.29315061635E+03  0.31414773719E+03  0.51912757354E+03  0.00000000000E+00 0. -1.
          3    1    6    6  503    0  0.94086770727E+02 -0.43714056504E+03  0.36652284063E+03  0.57817228118E+03  0.00000000000E+00 0. -1.
         -3    1    6    6    0  503  0.77587698848E+02 -0.11903778661E+03  0.12736973693E+03  0.19082163278E+03  0.00000000000E+00 0.  1.
<mgrwt>
<rscale>  0 0.21872417E+04</rscale>
<asrwt>0</asrwt>
<pdfrwt beam="1">  1        2 0.19417563E+00 0.21872417E+04</pdfrwt>
<pdfrwt beam="2">  1       -2 0.14578477E+00 0.21872417E+04</pdfrwt>
<totfact> 0.51436122E+00</totfact>
</mgrwt>
</event>
<event>
12    3  0.4773567E-008  0.1849677E+04  0.7818608E-02  0.8680319E-01
         -2   -1    0    0    0  501 -0.00000000000E+00  0.00000000000E+00  0.10087540602E+04  0.10087540602E+04  0.00000000000E+00 0.  1.
          2   -1    0    0  501    0  0.00000000000E+00 -0.00000000000E+00 -0.84790347304E+03  0.84790347304E+03  0.00000000000E+00 0. -1.
         23    2    1    2    0    0  0.16251247992E+03 -0.18541583640E+03  0.71879271539E+03  0.76586549354E+03  0.95381591366E+02 0.  0.
        254    2    1    2    0    0 -0.16251247992E+03  0.18541583640E+03 -0.55794212827E+03  0.10907920397E+04  0.90428895646E+03 0.  0.
         23    2    4    4    0    0  0.49528246571E+02  0.43764333571E+03 -0.15821424263E+02  0.44988827557E+03  0.90357105597E+02 0.  0.
         23    2    4    4    0    0 -0.21204072649E+03 -0.25222749930E+03 -0.54212070401E+03  0.64090376409E+03  0.91009867695E+02 0.  0.
          4    1    3    3  502    0  0.89450088446E+02 -0.14331163899E+03  0.36557685354E+03  0.40272320524E+03  0.00000000000E+00 0.  1.
         -4    1    3    3    0  502  0.73062391477E+02 -0.42104197415E+02  0.35321586185E+03  0.36314228830E+03  0.00000000000E+00 0. -1.
         13    1    5    5    0    0 -0.16552944213E+02  0.14386061999E+03 -0.32102730109E+02  0.14832553127E+03  0.00000000000E+00 0.  1.
        -13    1    5    5    0    0  0.66081190783E+02  0.29378271572E+03  0.16281305846E+02  0.30156274430E+03  0.00000000000E+00 0. -1.
          1    1    6    6  503    0 -0.13484658048E+03 -0.89826635693E+02 -0.25966618763E+03  0.30607017781E+03  0.00000000000E+00 0. -1.
         -1    1    6    6    0  503 -0.77194146014E+02 -0.16240086361E+03 -0.28245451638E+03  0.33483358628E+03  0.00000000000E+00 0.  1.
<mgrwt>
<rscale>  0 0.18496768E+04</rscale>
<asrwt>0</asrwt>
<pdfrwt beam="1">  1        2 0.13044669E+00 0.18496768E+04</pdfrwt>
<pdfrwt beam="2">  1       -2 0.15519293E+00 0.18496768E+04</pdfrwt>
<totfact> 0.81905772E+00</totfact>
</mgrwt>
</event>
<event>
12    3  0.4773567E-008  0.1237892E+04  0.7818608E-02  0.9080322E-01
         -2   -1    0    0    0  501 -0.00000000000E+00  0.00000000000E+00  0.29815472730E+03  0.29815472730E+03  0.00000000000E+00 0.  1.
          2   -1    0    0  501    0  0.00000000000E+00 -0.00000000000E+00 -0.12848827481E+04  0.12848827481E+04  0.00000000000E+00 0. -1.
         23    2    1    2    0    0 -0.17736828999E+03  0.15095696828E+03 -0.44157998520E+03  0.50739647854E+03  0.90613390497E+02 0.  0.
        254    2    1    2    0    0  0.17736828999E+03 -0.15095696828E+03 -0.54514803559E+03  0.10756409968E+04  0.89753532345E+03 0.  0.
         23    2    4    4    0    0 -0.30251851879E+03  0.50916205943E+02 -0.42799359935E+03  0.53435184588E+03  0.90793501267E+02 0.  0.
         23    2    4    4    0    0  0.47988680878E+03 -0.20187317423E+03 -0.11715443624E+03  0.54128915097E+03  0.90689885418E+02 0.  0.
          3    1    3    3  502    0 -0.10083274563E+03  0.73556855628E+02 -0.32379011122E+03  0.34701280917E+03  0.00000000000E+00 0. -1.
         -3    1    3    3    0  502 -0.76535544355E+02  0.77400112655E+02 -0.11778987398E+03  0.16038366937E+03  0.00000000000E+00 0.  1.
         13    1    5    5    0    0 -0.11219066158E+02 -0.40776852258E+01  0.19700661228E+01  0.12098600035E+02  0.00000000000E+00 0.  1.
        -13    1    5    5    0    0 -0.29129945263E+03  0.54993891169E+02 -0.42996366547E+03  0.52225324584E+03  0.00000000000E+00 0. -1.
          1    1    6    6  503    0  0.38484161012E+03 -0.13170688530E+03 -0.64065564888E+02  0.41176955342E+03  0.00000000000E+00 0. -1.
         -1    1    6    6    0  503  0.95045198654E+02 -0.70166288926E+02 -0.53088871349E+02  0.12951959755E+03  0.00000000000E+00 0.  1.
<mgrwt>
<rscale>  0 0.12378915E+04</rscale>
<asrwt>0</asrwt>
<pdfrwt beam="1">  1        2 0.19767427E+00 0.12378915E+04</pdfrwt>
<pdfrwt beam="2">  1       -2 0.45869958E-01 0.12378915E+04</pdfrwt>
<totfact> 0.74808549E+01</totfact>
</mgrwt>
</event>
<event>
12    3  0.4773567E-008  0.2198774E+04  0.7818608E-02  0.8518938E-01
         -2   -1    0    0    0  501 -0.00000000000E+00  0.00000000000E+00  0.27561386844E+04  0.27561386844E+04  0.00000000000E+00 0.  1.
          2   -1    0    0  501    0  0.00000000000E+00 -0.00000000000E+00 -0.43853091504E+03  0.43853091504E+03  0.00000000000E+00 0. -1.
         23    2    1    2    0    0 -0.85494160314E+03 -0.23202924187E+03  0.12868230395E+04  0.15650507393E+04  0.93314348923E+02 0.  0.
        254    2    1    2    0    0  0.85494160314E+03  0.23202924187E+03  0.10307847299E+04  0.16296188602E+04  0.89909830177E+03 0.  0.
         23    2    4    4    0    0  0.85650877409E+02 -0.12146896689E+03  0.69107400114E+03  0.71269176410E+03  0.90859742779E+02 0.  0.
         23    2    4    4    0    0  0.76929072573E+03  0.35349820876E+03  0.33971072879E+03  0.91692709611E+03  0.92642949135E+02 0.  0.
          2    1    3    3  502    0 -0.48152638596E+02 -0.32741236332E+02  0.10873577407E+03  0.12334558656E+03  0.00000000000E+00 0. -1.
         -2    1    3    3    0  502 -0.80678896455E+03 -0.19928800554E+03  0.11780872654E+04  0.14417051527E+04  0.00000000000E+00 0.  1.
         13    1    5    5    0    0  0.10522263089E+03 -0.10390027788E+03  0.58222208950E+03  0.60070760882E+03  0.00000000000E+00 0. -1.
        -13    1    5    5    0    0 -0.19571753477E+02 -0.17568689015E+02  0.10885191163E+03  0.11198415528E+03  0.00000000000E+00 0.  1.
          3    1    6    6  503    0  0.64572264675E+03  0.30982950076E+03  0.25208768628E+03  0.75927614057E+03  0.00000000000E+00 0. -1.
         -3    1    6    6    0  503  0.12356807899E+03  0.43668707993E+02  0.87623042515E+02  0.15765095554E+03  0.00000000000E+00 0.  1.
<mgrwt>
<rscale>  0 0.21987742E+04</rscale>
<asrwt>0</asrwt>
<pdfrwt beam="1">  1        2 0.67466296E-01 0.21987742E+04</pdfrwt>
<pdfrwt beam="2">  1       -2 0.42402133E+00 0.21987742E+04</pdfrwt>
<totfact> 0.33812911E-01</totfact>
</mgrwt>
</event>
<event>
12    3  0.4773567E-008  0.1071561E+04  0.7818608E-02  0.9233362E-01
         -1   -1    0    0    0  501 -0.00000000000E+00  0.00000000000E+00  0.20403428838E+03  0.20403428838E+03  0.00000000000E+00 0.  1.
          1   -1    0    0  501    0  0.00000000000E+00 -0.00000000000E+00 -0.14069241764E+04  0.14069241764E+04  0.00000000000E+00 0. -1.
         23    2    1    2    0    0  0.26121586073E+02  0.41506997531E+02  0.49713983623E+01  0.10821698897E+03  0.96338122247E+02 0.  0.
        254    2    1    2    0    0 -0.26121586073E+02 -0.41506997531E+02 -0.12078612864E+04  0.15027414758E+04  0.89269137326E+03 0.  0.
         23    2    4    4    0    0  0.42044124356E+02 -0.19394876063E+03  0.52606992108E+02  0.22796328257E+03  0.99075387652E+02 0.  0.
         23    2    4    4    0    0 -0.68165710429E+02  0.15244176310E+03 -0.12604682785E+04  0.12747781933E+04  0.91619351983E+02 0.  0.
          1    1    3    3  502    0  0.44004667079E+02  0.96778297438E+01 -0.32765262956E+02  0.55710264493E+02  0.00000000000E+00 0. -1.
         -1    1    3    3    0  502 -0.17883081006E+02  0.31829167787E+02  0.37736661319E+02  0.52506724481E+02  0.00000000000E+00 0.  1.
         13    1    5    5    0    0 -0.27871229020E+02 -0.69754243379E+02 -0.25022404854E+01  0.75157974187E+02  0.00000000000E+00 0. -1.
        -13    1    5    5    0    0  0.69915353375E+02 -0.12419451725E+03  0.55109232593E+02  0.15280530838E+03  0.00000000000E+00 0.  1.
          3    1    6    6  503    0  0.78338635246E+01 -0.49615382624E+01 -0.18210752387E+03  0.18234345760E+03  0.00000000000E+00 0. -1.
         -3    1    6    6    0  503 -0.75999573953E+02  0.15740330136E+03 -0.10783607547E+04  0.10924347357E+04  0.00000000000E+00 0.  1.
<mgrwt>
<rscale>  0 0.10715611E+04</rscale>
<asrwt>0</asrwt>
<pdfrwt beam="1">  1        1 0.21644987E+00 0.10715611E+04</pdfrwt>
<pdfrwt beam="2">  1       -1 0.31389891E-01 0.10715611E+04</pdfrwt>
<totfact> 0.71411496E+01</totfact>
</mgrwt>
</event>
<event>
12    3  0.4773567E-008  0.2229520E+04  0.7818608E-02  0.8506241E-01
         -1   -1    0    0    0  501 -0.00000000000E+00  0.00000000000E+00  0.91167353924E+03  0.91167353924E+03  0.00000000000E+00 0.  1.
          1   -1    0    0  501    0  0.00000000000E+00 -0.00000000000E+00 -0.13630859438E+04  0.13630859438E+04  0.00000000000E+00 0. -1.
         23    2    1    2    0    0 -0.13504712913E+03  0.70813543191E+03 -0.79072604496E+03  0.10739270769E+04  0.91532351359E+02 0.  0.
        254    2    1    2    0    0  0.13504712913E+03 -0.70813543191E+03  0.33931364044E+03  0.12008324061E+04  0.89842707210E+03 0.  0.
         23    2    4    4    0    0 -0.16439263338E+03 -0.66952032218E+03  0.49029647146E+03  0.85082945320E+03  0.90761934630E+02 0.  0.
         23    2    4    4    0    0  0.29943976251E+03 -0.38615109732E+02 -0.15098283102E+03  0.35000295288E+03  0.92471366878E+02 0.  0.
          2    1    3    3  502    0 -0.12667260209E+03  0.61040996882E+03 -0.72338503299E+03  0.95495140406E+03  0.00000000000E+00 0. -1.
         -2    1    3    3    0  502 -0.83745270399E+01  0.97725463095E+02 -0.67341011969E+02  0.11897567286E+03  0.00000000000E+00 0.  1.
         13    1    5    5    0    0 -0.39389818484E+02 -0.73607939740E+02  0.34902732332E+02  0.90486945562E+02  0.00000000000E+00 0.  1.
        -13    1    5    5    0    0 -0.12500281490E+03 -0.59591238244E+03  0.45539373913E+03  0.76034250763E+03  0.00000000000E+00 0. -1.
          3    1    6    6  503    0  0.16041751251E+03  0.25110837444E+02 -0.68305842283E+02  0.17615340067E+03  0.00000000000E+00 0.  1.
         -3    1    6    6    0  503  0.13902225000E+03 -0.63725947176E+02 -0.82676988737E+02  0.17384955221E+03  0.00000000000E+00 0. -1.
<mgrwt>
<rscale>  0 0.22295196E+04</rscale>
<asrwt>0</asrwt>
<pdfrwt beam="1">  1        1 0.20970553E+00 0.22295196E+04</pdfrwt>
<pdfrwt beam="2">  1       -1 0.14025747E+00 0.22295196E+04</pdfrwt>
<totfact> 0.30947192E+00</totfact>
</mgrwt>
</event>
<event>
12    3  0.4773567E-008  0.2452549E+04  0.7818608E-02  0.8420088E-01
          1   -1    0    0  501    0  0.00000000000E+00  0.00000000000E+00  0.28881994867E+04  0.28881994867E+04  0.00000000000E+00 0. -1.
         -1   -1    0    0    0  501 -0.00000000000E+00 -0.00000000000E+00 -0.52065262874E+03  0.52065262874E+03  0.00000000000E+00 0.  1.
         23    2    1    2    0    0 -0.40133731874E+03  0.41237524636E+03  0.22913060027E+04  0.23641713048E+04  0.89987628384E+02 0.  0.
        254    2    1    2    0    0  0.40133731874E+03 -0.41237524636E+03  0.76240855259E+02  0.10446808106E+04  0.86857373945E+03 0.  0.
         23    2    4    4    0    0  0.63246606008E+03 -0.35013143584E+03 -0.93317885122E+02  0.73474055852E+03  0.92358654866E+02 0.  0.
         23    2    4    4    0    0 -0.23112874134E+03 -0.62243810522E+02  0.16955874038E+03  0.30994025212E+03  0.10008999160E+03 0.  0.
          1    1    3    3  502    0 -0.25166637021E+03  0.19866361118E+03  0.13278830228E+04  0.13660441115E+04  0.00000000000E+00 0. -1.
         -1    1    3    3    0  502 -0.14967094853E+03  0.21371163518E+03  0.96342297990E+03  0.99812719332E+03  0.00000000000E+00 0.  1.
         13    1    5    5    0    0  0.23851731986E+03 -0.96067459359E+02 -0.19167806985E+01  0.25714420598E+03  0.00000000000E+00 0. -1.
        -13    1    5    5    0    0  0.39394874022E+03 -0.25406397648E+03 -0.91401104423E+02  0.47759635254E+03  0.00000000000E+00 0.  1.
          4    1    6    6  503    0 -0.83301626278E+02 -0.51084932833E+02  0.20765284838E+02  0.99900091880E+02  0.00000000000E+00 0. -1.
         -4    1    6    6    0  503 -0.14782711506E+03 -0.11158877689E+02  0.14879345554E+03  0.21004016024E+03  0.00000000000E+00 0.  1.
<mgrwt>
<rscale>  0 0.24525486E+04</rscale>
<asrwt>0</asrwt>
<pdfrwt beam="1">  1        1 0.44433837E+00 0.24525486E+04</pdfrwt>
<pdfrwt beam="2">  1       -1 0.80100406E-01 0.24525486E+04</pdfrwt>
<totfact> 0.99982707E-01</totfact>
</mgrwt>
</event>
<event>
12    3  0.4773567E-008  0.1279968E+04  0.7818608E-02  0.9045603E-01
          2   -1    0    0  501    0  0.00000000000E+00  0.00000000000E+00  0.71450748952E+03  0.71450748952E+03  0.00000000000E+00 0. -1.
         -2   -1    0    0    0  501 -0.00000000000E+00 -0.00000000000E+00 -0.57323367973E+03  0.57323367973E+03  0.00000000000E+00 0.  1.
         23    2    1    2    0    0  0.15308512236E+03 -0.14126772189E+03  0.27193652843E+03  0.35499384348E+03  0.93163992394E+02 0.  0.
        254    2    1    2    0    0 -0.15308512236E+03  0.14126772189E+03 -0.13066271864E+03  0.93274732578E+03  0.89975174563E+03 0.  0.
         23    2    4    4    0    0  0.50769318584E+01  0.98344072220E+01  0.37133718657E+03  0.38251669377E+03  0.91133002160E+02 0.  0.
         23    2    4    4    0    0 -0.15816205422E+03  0.13143331467E+03 -0.50199990521E+03  0.55023063200E+03  0.91977670997E+02 0.  0.
          3    1    3    3  502    0  0.14481419164E+03 -0.14459565985E+03  0.27726433457E+03  0.34460784404E+03  0.00000000000E+00 0. -1.
         -3    1    3    3    0  502  0.82709307225E+01  0.33279379631E+01 -0.53278061422E+01  0.10385999441E+02  0.00000000000E+00 0.  1.
         13    1    5    5    0    0  0.41834704131E+02 -0.93860085374E+01  0.26371707837E+03  0.26717959699E+03  0.00000000000E+00 0. -1.
        -13    1    5    5    0    0 -0.36757772272E+02  0.19220415759E+02  0.10762010820E+03  0.11533709678E+03  0.00000000000E+00 0.  1.
          1    1    6    6  503    0 -0.91471251983E+02  0.98465488831E+02 -0.21338400410E+03  0.25218083915E+03  0.00000000000E+00 0. -1.
         -1    1    6    6    0  503 -0.66690802236E+02  0.32967825835E+02 -0.28861590111E+03  0.29804979285E+03  0.00000000000E+00 0.  1.
<mgrwt>
<rscale>  0 0.12799684E+04</rscale>
<asrwt>0</asrwt>
<pdfrwt beam="1">  1        2 0.10992423E+00 0.12799684E+04</pdfrwt>
<pdfrwt beam="2">  1       -2 0.88189797E-01 0.12799684E+04</pdfrwt>
<totfact> 0.43407253E+01</totfact>
</mgrwt>
</event>
<event>
12    3  0.4773567E-008  0.9454219E+03  0.7818608E-02  0.9370518E-01
         -1   -1    0    0    0  501 -0.00000000000E+00  0.00000000000E+00  0.93413517864E+03  0.93413517864E+03  0.00000000000E+00 0.  1.
          1   -1    0    0  501    0  0.00000000000E+00 -0.00000000000E+00 -0.23921125444E+03  0.23921125444E+03  0.00000000000E+00 0. -1.
         23    2    1    2    0    0 -0.48034175789E+02 -0.78030356425E+02  0.21386472452E+03  0.24930361450E+03  0.89544141283E+02 0.  0.
        254    2    1    2    0    0  0.48034175789E+02  0.78030356425E+02  0.48105919967E+03  0.92404281858E+03  0.78360778354E+03 0.  0.
         23    2    4    4    0    0  0.38881368363E+02  0.98906559360E+02  0.68609396126E+03  0.70004521493E+03  0.89688967983E+02 0.  0.
         23    2    4    4    0    0  0.91528074264E+01 -0.20876202936E+02 -0.20503476159E+03  0.22399760366E+03  0.87270173900E+02 0.  0.
          4    1    3    3  502    0  0.17536378777E+02 -0.36979264820E+02  0.32948363618E+02  0.52541272085E+02  0.00000000000E+00 0. -1.
         -4    1    3    3    0  502 -0.65570554566E+02 -0.41051091605E+02  0.18091636090E+03  0.19676234241E+03  0.00000000000E+00 0.  1.
         13    1    5    5    0    0  0.54936839849E+01  0.20932611699E+02  0.23124614843E+02  0.31671795148E+02  0.00000000000E+00 0. -1.
        -13    1    5    5    0    0  0.33387684378E+02  0.77973947662E+02  0.66296934641E+03  0.66837341978E+03  0.00000000000E+00 0.  1.
          3    1    6    6  503    0  0.39075686358E+02  0.14131436982E+02 -0.12417278712E+03  0.13094077989E+03  0.00000000000E+00 0. -1.
         -3    1    6    6    0  503 -0.29922878931E+02 -0.35007639917E+02 -0.80861974465E+02  0.93056823771E+02  0.00000000000E+00 0.  1.
<mgrwt>
<rscale>  0 0.94542191E+03</rscale>
<asrwt>0</asrwt>
<pdfrwt beam="1">  1        1 0.36801732E-01 0.94542191E+03</pdfrwt>
<pdfrwt beam="2">  1       -1 0.14371310E+00 0.94542191E+03</pdfrwt>
<totfact> 0.46366499E+01</totfact>
</mgrwt>
</event>
<event>
12    3  0.4773567E-008  0.3321227E+04  0.7818608E-02  0.8157515E-01
          2   -1    0    0  501    0  0.00000000000E+00  0.00000000000E+00  0.18369622666E+04  0.18369622666E+04  0.00000000000E+00 0. -1.
         -2   -1    0    0    0  501 -0.00000000000E+00 -0.00000000000E+00 -0.15011940084E+04  0.15011940084E+04  0.00000000000E+00 0.  1.
         23    2    1    2    0    0  0.11329652278E+04  0.10412354800E+04  0.22557183270E+03  0.15575257658E+04  0.84984276265E+02 0.  0.
        254    2    1    2    0    0 -0.11329652278E+04 -0.10412354800E+04  0.11019642554E+03  0.17806305093E+04  0.88922450841E+03 0.  0.
         23    2    4    4    0    0 -0.71524990998E+03 -0.58856831213E+03  0.48943122401E+03  0.10515288608E+04  0.90415320903E+02 0.  0.
         23    2    4    4    0    0 -0.41771531780E+03 -0.45266716783E+03 -0.37923479847E+03  0.72910164852E+03  0.91523384699E+02 0.  0.
          2    1    3    3  502    0  0.57198891374E+02  0.42262653030E+02 -0.57313703149E+01  0.71349096850E+02  0.00000000000E+00 0. -1.
         -2    1    3    3    0  502  0.10757663364E+04  0.99897282693E+03  0.23130320301E+03  0.14861766689E+04  0.00000000000E+00 0.  1.
         13    1    5    5    0    0 -0.87425114569E+01 -0.24479981711E+02  0.76498847415E+01  0.27096526488E+02  0.00000000000E+00 0.  1.
        -13    1    5    5    0    0 -0.70650739852E+03 -0.56408833042E+03  0.48178133926E+03  0.10244323343E+04  0.00000000000E+00 0. -1.
          1    1    6    6  503    0 -0.39371135408E+03 -0.38399084360E+03 -0.33482937925E+03  0.64386979391E+03  0.00000000000E+00 0. -1.
         -1    1    6    6    0  503 -0.24003963719E+02 -0.68676324229E+02 -0.44405419225E+02  0.85231854611E+02  0.00000000000E+00 0.  1.
<mgrwt>
<rscale>  0 0.33212267E+04</rscale>
<asrwt>0</asrwt>
<pdfrwt beam="1">  1        2 0.28260958E+00 0.33212267E+04</pdfrwt>
<pdfrwt beam="2">  1       -2 0.23095293E+00 0.33212267E+04</pdfrwt>
<totfact> 0.57876465E-01</totfact>
</mgrwt>
</event>
<event>
12    3  0.4773567E-008  0.1315351E+04  0.7818608E-02  0.9017480E-01
         -1   -1    0    0    0  501 -0.00000000000E+00  0.00000000000E+00  0.26983706288E+03  0.26983706288E+03  0.00000000000E+00 0.  1.
          1   -1    0    0  501    0  0.00000000000E+00 -0.00000000000E+00 -0.16029558072E+04  0.16029558072E+04  0.00000000000E+00 0. -1.
         23    2    1    2    0    0  0.66465795143E+02  0.32487210702E+03 -0.45222707985E+03  0.56792278085E+03  0.89818513765E+02 0.  0.
        254    2    1    2    0    0 -0.66465795143E+02 -0.32487210702E+03 -0.88089166443E+03  0.13048700892E+04  0.90374567073E+03 0.  0.
         23    2    4    4    0    0  0.16388104698E+03  0.25514563327E+03 -0.19466240226E+03  0.37184088550E+03  0.91738222894E+02 0.  0.
         23    2    4    4    0    0 -0.23034684212E+03 -0.58001774028E+03 -0.68622926217E+03  0.93302920370E+03  0.10076034921E+03 0.  0.
          4    1    3    3  502    0  0.18146304671E+02  0.35580860283E+02 -0.17733999242E+02  0.43701037984E+02  0.00000000000E+00 0.  1.
         -4    1    3    3    0  502  0.48319490471E+02  0.28929124674E+03 -0.43449308060E+03  0.52422174286E+03  0.00000000000E+00 0. -1.
         13    1    5    5    0    0  0.56143712637E+02  0.13181841157E+03 -0.45489836944E+02  0.15032476629E+03  0.00000000000E+00 0. -1.
        -13    1    5    5    0    0  0.10773733434E+03  0.12332722170E+03 -0.14917256531E+03  0.22151611920E+03  0.00000000000E+00 0.  1.
          3    1    6    6  503    0 -0.23302176130E+03 -0.51171445612E+03 -0.63083180645E+03  0.84504413723E+03  0.00000000000E+00 0. -1.
         -3    1    6    6    0  503  0.26749191823E+01 -0.68303284168E+02 -0.55397455723E+02  0.87985066468E+02  0.00000000000E+00 0.  1.
<mgrwt>
<rscale>  0 0.13153507E+04</rscale>
<asrwt>0</asrwt>
<pdfrwt beam="1">  1        1 0.24660858E+00 0.13153507E+04</pdfrwt>
<pdfrwt beam="2">  1       -1 0.41513395E-01 0.13153507E+04</pdfrwt>
<totfact> 0.31008231E+01</totfact>
</mgrwt>
</event>
<event>
12    3  0.4773567E-008  0.1749188E+04  0.7818608E-02  0.8733797E-01
          1   -1    0    0  501    0  0.00000000000E+00  0.00000000000E+00  0.19642442392E+04  0.19642442392E+04  0.00000000000E+00 0. -1.
         -1   -1    0    0    0  501 -0.00000000000E+00 -0.00000000000E+00 -0.38941946999E+03  0.38941946999E+03  0.00000000000E+00 0.  1.
         23    2    1    2    0    0  0.79914845233E+01 -0.56392688821E+03  0.16829945281E+03  0.59561491484E+03  0.91405808877E+02 0.  0.
        254    2    1    2    0    0 -0.79914845233E+01  0.56392688821E+03  0.14065253164E+04  0.17580487943E+04  0.89126017445E+03 0.  0.
         23    2    4    4    0    0 -0.27001669356E+03  0.34438991310E+03  0.13196131550E+04  0.13932721157E+04  0.91185977217E+02 0.  0.
         23    2    4    4    0    0  0.26202520903E+03  0.21953697511E+03  0.86912161330E+02  0.36477667860E+03  0.93030144886E+02 0.  0.
          4    1    3    3  502    0  0.38773876682E+02 -0.17747938937E+03  0.30660500368E+02  0.18423466950E+03  0.00000000000E+00 0. -1.
         -4    1    3    3    0  502 -0.30782392159E+02 -0.38644749885E+03  0.13763895244E+03  0.41138024535E+03  0.00000000000E+00 0.  1.
         13    1    5    5    0    0 -0.41709072646E+02  0.81935259141E+02  0.18592108055E+03  0.20741186471E+03  0.00000000000E+00 0. -1.
        -13    1    5    5    0    0 -0.22830762091E+03  0.26245465396E+03  0.11336920745E+04  0.11858602510E+04  0.00000000000E+00 0.  1.
          3    1    6    6  503    0  0.36112912942E+02  0.27439385771E+00 -0.58248867897E+01  0.36580692711E+02  0.00000000000E+00 0. -1.
         -3    1    6    6    0  503  0.22591229609E+03  0.21926258125E+03  0.92737048120E+02  0.32819598589E+03  0.00000000000E+00 0.  1.
<mgrwt>
<rscale>  0 0.17491883E+04</rscale>
<asrwt>0</asrwt>
<pdfrwt beam="1">  1        1 0.30219142E+00 0.17491883E+04</pdfrwt>
<pdfrwt beam="2">  1       -1 0.59910689E-01 0.17491883E+04</pdfrwt>
<totfact> 0.84374119E+00</totfact>
</mgrwt>
</event>
<event>
12    3  0.4773567E-008  0.1478253E+04  0.7818608E-02  0.8899044E-01
         -1   -1    0    0    0  501 -0.00000000000E+00  0.00000000000E+00  0.71515148693E+03  0.71515148693E+03  0.00000000000E+00 0.  1.
          1   -1    0    0  501    0  0.00000000000E+00 -0.00000000000E+00 -0.76390538775E+03  0.76390538775E+03  0.00000000000E+00 0. -1.
         23    2    1    2    0    0 -0.31613945921E+03  0.28247918687E+03  0.18095287014E+03  0.47242931199E+03  0.10347398191E+03 0.  0.
        254    2    1    2    0    0  0.31613945921E+03 -0.28247918687E+03 -0.22970677097E+03  0.10066275627E+04  0.88362616567E+03 0.  0.
         23    2    4    4    0    0  0.14158971772E+03 -0.37079110156E+03  0.25244257784E+03  0.47869828766E+03  0.88831899314E+02 0.  0.
         23    2    4    4    0    0  0.17454974149E+03  0.88311914697E+02 -0.48214934881E+03  0.52792927503E+03  0.89301278506E+02 0.  0.
          2    1    3    3  502    0 -0.32205490488E+02  0.40537556267E+02  0.62246239555E+02  0.80963457340E+02  0.00000000000E+00 0.  1.
         -2    1    3    3    0  502 -0.28393396872E+03  0.24194163060E+03  0.11870663059E+03  0.39146585465E+03  0.00000000000E+00 0. -1.
         13    1    5    5    0    0  0.14286468881E+03 -0.35784144376E+03  0.21987643965E+03  0.44362874895E+03  0.00000000000E+00 0.  1.
        -13    1    5    5    0    0 -0.12749710920E+01 -0.12949657804E+02  0.32566138189E+02  0.35069538706E+02  0.00000000000E+00 0. -1.
          3    1    6    6  503    0  0.24085314172E+02  0.49359021914E+02 -0.82382623164E+02  0.99011676091E+02  0.00000000000E+00 0. -1.
         -3    1    6    6    0  503  0.15046442732E+03  0.38952892783E+02 -0.39976672565E+03  0.42891759894E+03  0.00000000000E+00 0.  1.
<mgrwt>
<rscale>  0 0.14782531E+04</rscale>
<asrwt>0</asrwt>
<pdfrwt beam="1">  1        1 0.11752391E+00 0.14782531E+04</pdfrwt>
<pdfrwt beam="2">  1       -1 0.11002331E+00 0.14782531E+04</pdfrwt>
<totfact> 0.17596422E+01</totfact>
</mgrwt>
</event>
<event>
12    3  0.4773567E-008  0.2297973E+04  0.7818608E-02  0.8478721E-01
         -2   -1    0    0    0  501 -0.00000000000E+00  0.00000000000E+00  0.10043556169E+04  0.10043556169E+04  0.00000000000E+00 0.  1.
          2   -1    0    0  501    0  0.00000000000E+00 -0.00000000000E+00 -0.13144447956E+04  0.13144447956E+04  0.00000000000E+00 0. -1.
         23    2    1    2    0    0  0.35292840104E+03 -0.89938313497E+03 -0.19983923924E+03  0.99107097624E+03  0.94007865004E+02 0.  0.
        254    2    1    2    0    0 -0.35292840104E+03  0.89938313497E+03 -0.11024993942E+03  0.13277294363E+04  0.90402540176E+03 0.  0.
         23    2    4    4    0    0 -0.56019804783E+03  0.46528923541E+03 -0.31229567139E+03  0.79758738838E+03  0.91110539200E+02 0.  0.
         23    2    4    4    0    0  0.20726964680E+03  0.43409389956E+03  0.20204573197E+03  0.53014204787E+03  0.93967510319E+02 0.  0.
          4    1    3    3  502    0  0.15109001112E+03 -0.36938019686E+03 -0.12960498358E+03  0.41960382870E+03  0.00000000000E+00 0. -1.
         -4    1    3    3    0  502  0.20183838992E+03 -0.53000293811E+03 -0.70234255658E+02  0.57146714754E+03  0.00000000000E+00 0.  1.
         13    1    5    5    0    0 -0.43364684156E+02  0.35797084928E+02 -0.53085332346E+02  0.77330328019E+02  0.00000000000E+00 0.  1.
        -13    1    5    5    0    0 -0.51683336368E+03  0.42949215048E+03 -0.25921033904E+03  0.72025706036E+03  0.00000000000E+00 0. -1.
          4    1    6    6  503    0  0.19735740130E+03  0.37161481142E+03  0.14527458538E+03  0.44514291758E+03  0.00000000000E+00 0. -1.
         -4    1    6    6    0  503  0.99122454994E+01  0.62479088134E+02  0.56771146582E+02  0.84999130285E+02  0.00000000000E+00 0.  1.
<mgrwt>
<rscale>  0 0.22979730E+04</rscale>
<asrwt>0</asrwt>
<pdfrwt beam="1">  1        2 0.20222228E+00 0.22979730E+04</pdfrwt>
<pdfrwt beam="2">  1       -2 0.15451625E+00 0.22979730E+04</pdfrwt>
<totfact> 0.40705900E+00</totfact>
</mgrwt>
</event>
<event>
12    3  0.4773567E-008  0.2476589E+04  0.7818608E-02  0.8411373E-01
          1   -1    0    0  501    0  0.00000000000E+00  0.00000000000E+00  0.10045230149E+04  0.10045230149E+04  0.00000000000E+00 0. -1.
         -1   -1    0    0    0  501 -0.00000000000E+00 -0.00000000000E+00 -0.15264693327E+04  0.15264693327E+04  0.00000000000E+00 0.  1.
         23    2    1    2    0    0  0.14208509006E+02 -0.24228627610E+02  0.87851818181E+03  0.88285122708E+03  0.82723547195E+02 0.  0.
        254    2    1    2    0    0 -0.14208509006E+02  0.24228627610E+02 -0.14004644996E+04  0.16481411206E+04  0.86849261979E+03 0.  0.
         23    2    4    4    0    0  0.39020584228E+03 -0.13972816442E+03 -0.66155841617E+03  0.78590023310E+03  0.90526676189E+02 0.  0.
         23    2    4    4    0    0 -0.40441435129E+03  0.16395679203E+03 -0.73890608341E+03  0.86224088748E+03  0.83930630645E+02 0.  0.
          3    1    3    3  502    0  0.29044885422E+02 -0.18471205326E+02  0.84547503257E+03  0.84617540823E+03  0.00000000000E+00 0. -1.
         -3    1    3    3    0  502 -0.14836376416E+02 -0.57574222840E+01  0.33043149241E+02  0.36675818850E+02  0.00000000000E+00 0.  1.
         13    1    5    5    0    0  0.19030058081E+03 -0.20493694084E+02 -0.30590763817E+03  0.36085147311E+03  0.00000000000E+00 0.  1.
        -13    1    5    5    0    0  0.19990526147E+03 -0.11923447033E+03 -0.35565077800E+03  0.42504875999E+03  0.00000000000E+00 0. -1.
          2    1    6    6  503    0 -0.29077949210E+02  0.26374211415E+01 -0.97505141952E+02  0.10178278748E+03  0.00000000000E+00 0. -1.
         -2    1    6    6    0  503 -0.37533640208E+03  0.16131937088E+03 -0.64140094146E+03  0.76045810000E+03  0.00000000000E+00 0.  1.
<mgrwt>
<rscale>  0 0.24765892E+04</rscale>
<asrwt>0</asrwt>
<pdfrwt beam="1">  1        1 0.15454200E+00 0.24765892E+04</pdfrwt>
<pdfrwt beam="2">  1       -1 0.23484143E+00 0.24765892E+04</pdfrwt>
<totfact> 0.11713284E+00</totfact>
</mgrwt>
</event>
<event>
12    3  0.4773567E-008  0.1441490E+04  0.7818608E-02  0.8924321E-01
          1   -1    0    0  501    0  0.00000000000E+00  0.00000000000E+00  0.18451327657E+04  0.18451327657E+04  0.00000000000E+00 0. -1.
         -1   -1    0    0    0  501 -0.00000000000E+00 -0.00000000000E+00 -0.28153726646E+03  0.28153726646E+03  0.00000000000E+00 0.  1.
         23    2    1    2    0    0  0.39921396993E+03  0.17813639636E+03  0.47838680755E+03  0.65397354709E+03  0.87881130885E+02 0.  0.
        254    2    1    2    0    0 -0.39921396993E+03 -0.17813639636E+03  0.10852086917E+04  0.14726964851E+04  0.89445663011E+03 0.  0.
         23    2    4    4    0    0 -0.16178819213E+01  0.10961427746E+03 -0.10914759458E+03  0.17843610680E+03  0.88928844827E+02 0.  0.
         23    2    4    4    0    0 -0.39759608801E+03 -0.28775067381E+03  0.11943562863E+04  0.12942603783E+04  0.87976637483E+02 0.  0.
          3    1    3    3  502    0  0.14928744113E+03  0.53409441733E+02  0.23502985498E+03  0.28351074279E+03  0.00000000000E+00 0. -1.
         -3    1    3    3    0  502  0.24992652880E+03  0.12472695462E+03  0.24335695257E+03  0.37046280430E+03  0.00000000000E+00 0.  1.
         13    1    5    5    0    0  0.24997592473E+02  0.88963959897E+01 -0.54916223787E+02  0.60990303541E+02  0.00000000000E+00 0. -1.
        -13    1    5    5    0    0 -0.26615474394E+02  0.10071788147E+03 -0.54231370793E+02  0.11744580326E+03  0.00000000000E+00 0.  1.
          2    1    6    6  503    0 -0.33218104597E+03 -0.20674638322E+03  0.87866471017E+03  0.96184197620E+03  0.00000000000E+00 0. -1.
         -2    1    6    6    0  503 -0.65415042035E+02 -0.81004290595E+02  0.31569157613E+03  0.33241840211E+03  0.00000000000E+00 0.  1.
<mgrwt>
<rscale>  0 0.14414904E+04</rscale>
<asrwt>0</asrwt>
<pdfrwt beam="1">  1        1 0.28386657E+00 0.14414904E+04</pdfrwt>
<pdfrwt beam="2">  1       -1 0.43313427E-01 0.14414904E+04</pdfrwt>
<totfact> 0.19409768E+01</totfact>
</mgrwt>
</event>
<event>
12    3  0.4773567E-008  0.1520255E+04  0.7818608E-02  0.8871094E-01
          2   -1    0    0  501    0  0.00000000000E+00  0.00000000000E+00  0.45510796886E+04  0.45510796886E+04  0.00000000000E+00 0. -1.
         -2   -1    0    0    0  501 -0.00000000000E+00 -0.00000000000E+00 -0.12695756248E+03  0.12695756248E+03  0.00000000000E+00 0.  1.
         23    2    1    2    0    0  0.88134278567E+02 -0.24603879855E+03  0.17750173316E+03  0.32897535457E+03  0.91734274874E+02 0.  0.
        254    2    1    2    0    0 -0.88134278567E+02  0.24603879855E+03  0.42466203930E+04  0.43490618965E+04  0.90125017414E+03 0.  0.
         23    2    4    4    0    0 -0.41604920165E+03  0.23139967956E+03  0.34356977062E+04  0.34697216770E+04  0.91142950996E+02 0.  0.
         23    2    4    4    0    0  0.32791492309E+03  0.14639118987E+02  0.81092268675E+03  0.87934021952E+03  0.88888228583E+02 0.  0.
          2    1    3    3  502    0  0.92116904787E+02 -0.20716869710E+03  0.18047975881E+03  0.28978843411E+03  0.00000000000E+00 0. -1.
         -2    1    3    3    0  502 -0.39826262194E+01 -0.38870101446E+02 -0.29780256421E+01  0.39186920455E+02  0.00000000000E+00 0.  1.
         13    1    5    5    0    0 -0.18031575295E+03  0.10334619936E+03  0.18305685792E+04  0.18423288336E+04  0.00000000000E+00 0.  1.
        -13    1    5    5    0    0 -0.23573344870E+03  0.12805348021E+03  0.16051291270E+04  0.16273928435E+04  0.00000000000E+00 0. -1.
          1    1    6    6  503    0  0.27687568048E+02 -0.22133363800E+02  0.58556499169E+02  0.68449622442E+02  0.00000000000E+00 0. -1.
         -1    1    6    6    0  503  0.30022735504E+03  0.36772482787E+02  0.75236618759E+03  0.81089059708E+03  0.00000000000E+00 0.  1.
<mgrwt>
<rscale>  0 0.15202552E+04</rscale>
<asrwt>0</asrwt>
<pdfrwt beam="1">  1        2 0.70016598E+00 0.15202552E+04</pdfrwt>
<pdfrwt beam="2">  1       -2 0.19531936E-01 0.15202552E+04</pdfrwt>
<totfact> 0.24408994E+00</totfact>
</mgrwt>
</event>
<event>
12    3  0.4773567E-008  0.1595004E+04  0.7818608E-02  0.8823623E-01
         -1   -1    0    0    0  501 -0.00000000000E+00  0.00000000000E+00  0.57469547126E+03  0.57469547126E+03  0.00000000000E+00 0.  1.
          1   -1    0    0  501    0  0.00000000000E+00 -0.00000000000E+00 -0.11066899023E+04  0.11066899023E+04  0.00000000000E+00 0. -1.
         23    2    1    2    0    0 -0.12001593712E+03  0.53646003899E+03 -0.99405418376E+02  0.56616297625E+03  0.92010216181E+02 0.  0.
        254    2    1    2    0    0  0.12001593712E+03 -0.53646003899E+03 -0.43258901263E+03  0.11152223973E+04  0.86855888858E+03 0.  0.
         23    2    4    4    0    0  0.10210227786E+02 -0.32283388168E+03  0.22832767127E+03  0.40620114879E+03  0.92411492233E+02 0.  0.
         23    2    4    4    0    0  0.10980570933E+03 -0.21362615731E+03 -0.66091668390E+03  0.70902124848E+03  0.90591604689E+02 0.  0.
          2    1    3    3  502    0  0.12764946214E+02  0.54098858435E+02  0.22788343070E+01  0.55631137159E+02  0.00000000000E+00 0.  1.
         -2    1    3    3    0  502 -0.13278088333E+03  0.48236118056E+03 -0.10168425268E+03  0.51053183909E+03  0.00000000000E+00 0. -1.
         13    1    5    5    0    0  0.23500768866E+02 -0.10035238043E+03  0.28690614129E+02  0.10698615674E+03  0.00000000000E+00 0.  1.
        -13    1    5    5    0    0 -0.13290541080E+02 -0.22248150125E+03  0.19963705715E+03  0.29921499205E+03  0.00000000000E+00 0. -1.
          3    1    6    6  503    0  0.91840400551E+02 -0.10061071485E+03 -0.28160393142E+03  0.31282255243E+03  0.00000000000E+00 0. -1.
         -3    1    6    6    0  503  0.17965308778E+02 -0.11301544245E+03 -0.37931275248E+03  0.39619869605E+03  0.00000000000E+00 0.  1.
<mgrwt>
<rscale>  0 0.15950043E+04</rscale>
<asrwt>0</asrwt>
<pdfrwt beam="1">  1        1 0.17025998E+00 0.15950043E+04</pdfrwt>
<pdfrwt beam="2">  1       -1 0.88414689E-01 0.15950043E+04</pdfrwt>
<totfact> 0.15114847E+01</totfact>
</mgrwt>
</event>
<event>
12    3  0.4773567E-008  0.1725931E+04  0.7818608E-02  0.8746711E-01
         -2   -1    0    0    0  501 -0.00000000000E+00  0.00000000000E+00  0.58563513929E+03  0.58563513929E+03  0.00000000000E+00 0.  1.
          2   -1    0    0  501    0  0.00000000000E+00 -0.00000000000E+00 -0.12716276057E+04  0.12716276057E+04  0.00000000000E+00 0. -1.
         23    2    1    2    0    0  0.14012552064E+01 -0.46338980615E+03 -0.69454509491E+03  0.83971334426E+03  0.89406575269E+02 0.  0.
        254    2    1    2    0    0 -0.14012552064E+01  0.46338980615E+03  0.85526285141E+01  0.10175494007E+04  0.90587060859E+03 0.  0.
         23    2    4    4    0    0  0.62318155238E+02  0.47402419004E+03  0.38770535161E+03  0.62234934832E+03  0.91764843344E+02 0.  0.
         23    2    4    4    0    0 -0.63719410445E+02 -0.10634383896E+02 -0.37915272310E+03  0.39520005240E+03  0.90846247008E+02 0.  0.
          3    1    3    3  502    0  0.70393077651E+01 -0.29663575976E+03 -0.51682335036E+03  0.59594353869E+03  0.00000000000E+00 0. -1.
         -3    1    3    3    0  502 -0.56380525587E+01 -0.16675404638E+03 -0.17772174455E+03  0.24376980557E+03  0.00000000000E+00 0.  1.
         13    1    5    5    0    0  0.54046337870E+02  0.47380846493E+03  0.37281839807E+03  0.60531729367E+03  0.00000000000E+00 0.  1.
        -13    1    5    5    0    0  0.82718173682E+01  0.21572511032E+00  0.14886953548E+02  0.17032054657E+02  0.00000000000E+00 0. -1.
          1    1    6    6  503    0  0.96674996271E+01  0.21781088868E+02 -0.38916052000E+02  0.45632614264E+02  0.00000000000E+00 0. -1.
         -1    1    6    6    0  503 -0.73386910072E+02 -0.32415472764E+02 -0.34023667110E+03  0.34956743814E+03  0.00000000000E+00 0.  1.
<mgrwt>
<rscale>  0 0.17259314E+04</rscale>
<asrwt>0</asrwt>
<pdfrwt beam="1">  1        2 0.19563502E+00 0.17259314E+04</pdfrwt>
<pdfrwt beam="2">  1       -2 0.90097714E-01 0.17259314E+04</pdfrwt>
<totfact> 0.17196688E+01</totfact>
</mgrwt>
</event>
<event>
12    3  0.4773567E-008  0.2150790E+04  0.7818608E-02  0.8539194E-01
          2   -1    0    0  501    0  0.00000000000E+00  0.00000000000E+00  0.32924469525E+04  0.32924469525E+04  0.00000000000E+00 0. -1.
         -2   -1    0    0    0  501 -0.00000000000E+00 -0.00000000000E+00 -0.35125064241E+03  0.35125064241E+03  0.00000000000E+00 0.  1.
         23    2    1    2    0    0  0.47371283686E+03 -0.42798392481E+03  0.22489565246E+04  0.23397950967E+04  0.96236964985E+02 0.  0.
        254    2    1    2    0    0 -0.47371283686E+03  0.42798392481E+03  0.69223978547E+03  0.13039024982E+04  0.90188231629E+03 0.  0.
         23    2    4    4    0    0 -0.32271279120E+03 -0.15267661134E+03 -0.18503017886E+02  0.36922816265E+03  0.92376301981E+02 0.  0.
         23    2    4    4    0    0 -0.15100004566E+03  0.58066053615E+03  0.71074280336E+03  0.93467433552E+03  0.92158064859E+02 0.  0.
          1    1    3    3  502    0  0.47434116104E+03 -0.42511447457E+03  0.22482971983E+04  0.23367845740E+04  0.00000000000E+00 0. -1.
         -1    1    3    3    0  502 -0.62832417996E+00 -0.28694502388E+01  0.65932634705E+00  0.30105227420E+01  0.00000000000E+00 0.  1.
         13    1    5    5    0    0  0.51045377046E+01 -0.24011373122E+01 -0.62225728370E+01  0.83989391164E+01  0.00000000000E+00 0.  1.
        -13    1    5    5    0    0 -0.32781732890E+03 -0.15027547403E+03 -0.12280445049E+02  0.36082922353E+03  0.00000000000E+00 0. -1.
          4    1    6    6  503    0 -0.85611596067E+02  0.42322797310E+03  0.45457225359E+03  0.62696666285E+03  0.00000000000E+00 0. -1.
         -4    1    6    6    0  503 -0.65388449596E+02  0.15743256305E+03  0.25617054976E+03  0.30770767266E+03  0.00000000000E+00 0.  1.
<mgrwt>
<rscale>  0 0.21507897E+04</rscale>
<asrwt>0</asrwt>
<pdfrwt beam="1">  1        2 0.50653028E+00 0.21507897E+04</pdfrwt>
<pdfrwt beam="2">  1       -2 0.54038562E-01 0.21507897E+04</pdfrwt>
<totfact> 0.33445423E+00</totfact>
</mgrwt>
</event>
<event>
12    3  0.4773567E-008  0.2194535E+04  0.7818608E-02  0.8520706E-01
         -2   -1    0    0    0  501 -0.00000000000E+00  0.00000000000E+00  0.31388411550E+04  0.31388411550E+04  0.00000000000E+00 0.  1.
          2   -1    0    0  501    0  0.00000000000E+00 -0.00000000000E+00 -0.38357967157E+03  0.38357967157E+03  0.00000000000E+00 0. -1.
         23    2    1    2    0    0  0.12134984971E+03 -0.80789179025E+03  0.17586874789E+04  0.19413957373E+04  0.92848422571E+02 0.  0.
        254    2    1    2    0    0 -0.12134984971E+03  0.80789179025E+03  0.99657400456E+03  0.15810250893E+04  0.91600527052E+03 0.  0.
         23    2    4    4    0    0 -0.18906722694E+03  0.92874939193E+02 -0.11366080858E+03  0.25536453832E+03  0.88994929029E+02 0.  0.
         23    2    4    4    0    0  0.67717377228E+02  0.71501685106E+03  0.11102348131E+04  0.13256605510E+04  0.94444775375E+02 0.  0.
          4    1    3    3  502    0 -0.15142939405E+02 -0.11612132527E+03  0.25192860318E+03  0.27781557173E+03  0.00000000000E+00 0. -1.
         -4    1    3    3    0  502  0.13649278912E+03 -0.69177046499E+03  0.15067588757E+04  0.16635801655E+04  0.00000000000E+00 0.  1.
         13    1    5    5    0    0  0.70293026205E+01  0.16609078078E+02 -0.59457037863E+01  0.18990101723E+02  0.00000000000E+00 0. -1.
        -13    1    5    5    0    0 -0.19609652956E+03  0.76265861115E+02 -0.10771510480E+03  0.23637443660E+03  0.00000000000E+00 0.  1.
          1    1    6    6  503    0  0.19062474967E+02  0.17192991965E+03  0.19830023254E+03  0.26314683628E+03  0.00000000000E+00 0. -1.
         -1    1    6    6    0  503  0.48654902260E+02  0.54308693142E+03  0.91193458060E+03  0.10625137147E+04  0.00000000000E+00 0.  1.
<mgrwt>
<rscale>  0 0.21945347E+04</rscale>
<asrwt>0</asrwt>
<pdfrwt beam="1">  1        2 0.59012259E-01 0.21945347E+04</pdfrwt>
<pdfrwt beam="2">  1       -2 0.48289862E+00 0.21945347E+04</pdfrwt>
<totfact> 0.16094643E-01</totfact>
</mgrwt>
</event>
<event>
12    3  0.4773567E-008  0.1857883E+04  0.7818608E-02  0.8676109E-01
         -2   -1    0    0    0  501 -0.00000000000E+00  0.00000000000E+00  0.69701218270E+03  0.69701218270E+03  0.00000000000E+00 0.  1.
          2   -1    0    0  501    0  0.00000000000E+00 -0.00000000000E+00 -0.12380454159E+04  0.12380454159E+04  0.00000000000E+00 0. -1.
         23    2    1    2    0    0 -0.37766228871E+03  0.40450633672E+03 -0.66750580149E+03  0.87184237383E+03  0.91054648521E+02 0.  0.
        254    2    1    2    0    0  0.37766228871E+03 -0.40450633672E+03  0.12647256825E+03  0.10632152248E+04  0.89898672015E+03 0.  0.
         23    2    4    4    0    0  0.54221557666E+03 -0.44723440668E+03 -0.15099175362E+03  0.72473408574E+03  0.91785833717E+02 0.  0.
         23    2    4    4    0    0 -0.16455328795E+03  0.42728069959E+02  0.27746432187E+03  0.33848113908E+03  0.93164151202E+02 0.  0.
          2    1    3    3  502    0 -0.28996909580E+03  0.27399971634E+03 -0.42577044500E+03  0.58347098720E+03  0.00000000000E+00 0. -1.
         -2    1    3    3    0  502 -0.87693192913E+02  0.13050662039E+03 -0.24173535649E+03  0.28837138663E+03  0.00000000000E+00 0.  1.
         13    1    5    5    0    0  0.45785957328E+02 -0.40568397260E+02 -0.41006073858E+02  0.73645412878E+02  0.00000000000E+00 0. -1.
        -13    1    5    5    0    0  0.49642961933E+03 -0.40666600942E+03 -0.10998567976E+03  0.65108867286E+03  0.00000000000E+00 0.  1.
          1    1    6    6  503    0 -0.12570561562E+02  0.23212670849E+02  0.64918914605E+01  0.27184402893E+02  0.00000000000E+00 0. -1.
         -1    1    6    6    0  503 -0.15198272639E+03  0.19515399110E+02  0.27097243041E+03  0.31129673619E+03  0.00000000000E+00 0.  1.
<mgrwt>
<rscale>  0 0.18578835E+04</rscale>
<asrwt>0</asrwt>
<pdfrwt beam="1">  1        2 0.19046853E+00 0.18578835E+04</pdfrwt>
<pdfrwt beam="2">  1       -2 0.10723264E+00 0.18578835E+04</pdfrwt>
<totfact> 0.11807409E+01</totfact>
</mgrwt>
</event>
<event>
12    3  0.4773567E-008  0.1414804E+04  0.7818608E-02  0.8943172E-01
          1   -1    0    0  501    0  0.00000000000E+00  0.00000000000E+00  0.66639901732E+03  0.66639901732E+03  0.00000000000E+00 0. -1.
         -1   -1    0    0    0  501 -0.00000000000E+00 -0.00000000000E+00 -0.75092815604E+03  0.75092815604E+03  0.00000000000E+00 0.  1.
         23    2    1    2    0    0 -0.12107034198E+03  0.38989635214E+03 -0.65889027753E+02  0.42402933112E+03  0.93714014701E+02 0.  0.
        254    2    1    2    0    0  0.12107034198E+03 -0.38989635214E+03 -0.18640110970E+02  0.99329784223E+03  0.90532643644E+03 0.  0.
         23    2    4    4    0    0 -0.32202392933E+03  0.32201696632E+02  0.12338892709E+03  0.35824035316E+03  0.91514823812E+02 0.  0.
         23    2    4    4    0    0  0.44309427131E+03 -0.42209804877E+03 -0.14202903806E+03  0.63505748907E+03  0.92878795903E+02 0.  0.
          4    1    3    3  502    0 -0.11982822243E+03  0.38615994053E+03 -0.77573857637E+02  0.41169892634E+03  0.00000000000E+00 0. -1.
         -4    1    3    3    0  502 -0.12421195513E+01  0.37364116167E+01  0.11684829884E+02  0.12330404785E+02  0.00000000000E+00 0.  1.
         13    1    5    5    0    0 -0.28775850576E+03  0.52528695614E+02  0.89397879073E+02  0.30586958378E+03  0.00000000000E+00 0.  1.
        -13    1    5    5    0    0 -0.34265423566E+02 -0.20326998982E+02  0.33991048015E+02  0.52370769374E+02  0.00000000000E+00 0. -1.
          2    1    6    6  503    0  0.29362975637E+02 -0.49642752111E+02  0.86998423920E+01  0.58329018791E+02  0.00000000000E+00 0. -1.
         -2    1    6    6    0  503  0.41373129567E+03 -0.37245529666E+03 -0.15072888045E+03  0.57672847028E+03  0.00000000000E+00 0.  1.
<mgrwt>
<rscale>  0 0.14148043E+04</rscale>
<asrwt>0</asrwt>
<pdfrwt beam="1">  1        1 0.10252293E+00 0.14148043E+04</pdfrwt>
<pdfrwt beam="2">  1       -1 0.11552741E+00 0.14148043E+04</pdfrwt>
<totfact> 0.19410495E+01</totfact>
</mgrwt>
</event>
<event>
12    3  0.4773567E-008  0.1782046E+04  0.7818608E-02  0.8715906E-01
         -2   -1    0    0    0  501 -0.00000000000E+00  0.00000000000E+00  0.32045515562E+03  0.32045515562E+03  0.00000000000E+00 0.  1.
          2   -1    0    0  501    0  0.00000000000E+00 -0.00000000000E+00 -0.24774816671E+04  0.24774816671E+04  0.00000000000E+00 0. -1.
         23    2    1    2    0    0 -0.63283293429E+03 -0.14429995324E+03 -0.72132907634E+03  0.97472089336E+03  0.92006436418E+02 0.  0.
        254    2    1    2    0    0  0.63283293429E+03  0.14429995324E+03 -0.14356974352E+04  0.18232159294E+04  0.91738170931E+03 0.  0.
         23    2    4    4    0    0  0.56130211045E+03  0.48538310497E+03 -0.80547422869E+03  0.10981628288E+04  0.80722040177E+02 0.  0.
         23    2    4    4    0    0  0.71530823844E+02 -0.34108315174E+03 -0.63022320647E+03  0.72505310054E+03  0.84061486247E+02 0.  0.
          3    1    3    3  502    0 -0.52306232990E+03 -0.88721623291E+02 -0.61391287727E+03  0.81139062620E+03  0.00000000000E+00 0. -1.
         -3    1    3    3    0  502 -0.10977060439E+03 -0.55578329946E+02 -0.10741619907E+03  0.16333026716E+03  0.00000000000E+00 0.  1.
         13    1    5    5    0    0  0.24116678168E+03  0.23502258866E+03 -0.41657160424E+03  0.53565747939E+03  0.00000000000E+00 0.  1.
        -13    1    5    5    0    0  0.32013532877E+03  0.25036051631E+03 -0.38890262445E+03  0.56250534945E+03  0.00000000000E+00 0. -1.
          3    1    6    6  503    0  0.87824481948E+02 -0.28295435576E+03 -0.49363283401E+03  0.57571666807E+03  0.00000000000E+00 0. -1.
         -3    1    6    6    0  503 -0.16293658104E+02 -0.58128795980E+02 -0.13659037246E+03  0.14933643248E+03  0.00000000000E+00 0.  1.
<mgrwt>
<rscale>  0 0.17820458E+04</rscale>
<asrwt>0</asrwt>
<pdfrwt beam="1">  1        2 0.38115103E+00 0.17820458E+04</pdfrwt>
<pdfrwt beam="2">  1       -2 0.49300792E-01 0.17820458E+04</pdfrwt>
<totfact> 0.13223781E+01</totfact>
</mgrwt>
</event>
<event>
12    3  0.4773567E-008  0.1917704E+04  0.7818608E-02  0.8646094E-01
         -1   -1    0    0    0  501 -0.00000000000E+00  0.00000000000E+00  0.38456838240E+03  0.38456838240E+03  0.00000000000E+00 0.  1.
          1   -1    0    0  501    0  0.00000000000E+00 -0.00000000000E+00 -0.23907244052E+04  0.23907244052E+04  0.00000000000E+00 0. -1.
         23    2    1    2    0    0 -0.58020624367E+03 -0.92515470614E+02 -0.14741578966E+04  0.15894430487E+04  0.89382903477E+02 0.  0.
        254    2    1    2    0    0  0.58020624367E+03  0.92515470614E+02 -0.53199812612E+03  0.11858497388E+04  0.88205396626E+03 0.  0.
         23    2    4    4    0    0  0.18747997894E+03 -0.16655780920E+03 -0.64110761110E+03  0.69390581354E+03  0.87155394213E+02 0.  0.
         23    2    4    4    0    0  0.39272626473E+03  0.25907327981E+03  0.10910948498E+03  0.49194392530E+03  0.93547114332E+02 0.  0.
          1    1    3    3  502    0 -0.21062925902E+03 -0.76993187002E+02 -0.54018771717E+03  0.58488922488E+03  0.00000000000E+00 0. -1.
         -1    1    3    3    0  502 -0.36957698466E+03 -0.15522283612E+02 -0.93397017947E+03  0.10045538238E+04  0.00000000000E+00 0.  1.
         13    1    5    5    0    0  0.17209493089E+03 -0.10591384283E+03 -0.46482345896E+03  0.50684835537E+03  0.00000000000E+00 0. -1.
        -13    1    5    5    0    0  0.15385048056E+02 -0.60643966371E+02 -0.17628415214E+03  0.18705745817E+03  0.00000000000E+00 0.  1.
          3    1    6    6  503    0  0.34461349248E+03  0.21281316800E+03  0.12394888412E+03  0.42356962775E+03  0.00000000000E+00 0. -1.
         -3    1    6    6    0  503  0.48112772253E+02  0.46260111812E+02 -0.14839399142E+02  0.68374297551E+02  0.00000000000E+00 0.  1.
<mgrwt>
<rscale>  0 0.19177039E+04</rscale>
<asrwt>0</asrwt>
<pdfrwt beam="1">  1        1 0.36780375E+00 0.19177039E+04</pdfrwt>
<pdfrwt beam="2">  1       -1 0.59164367E-01 0.19177039E+04</pdfrwt>
<totfact> 0.43637146E+00</totfact>
</mgrwt>
</event>
<event>
12    3  0.4773567E-008  0.2928454E+04  0.7818608E-02  0.8264462E-01
         -2   -1    0    0    0  501 -0.00000000000E+00  0.00000000000E+00  0.18514461689E+04  0.18514461689E+04  0.00000000000E+00 0. -1.
          2   -1    0    0  501    0  0.00000000000E+00 -0.00000000000E+00 -0.11579921118E+04  0.11579921118E+04  0.00000000000E+00 0.  1.
         23    2    1    2    0    0 -0.55078384954E+03  0.50155248378E+03 -0.81064716504E+03  0.11047034528E+04  0.91121619998E+02 0.  0.
        254    2    1    2    0    0  0.55078384954E+03 -0.50155248378E+03  0.15041012221E+04  0.19047348279E+04  0.90043130519E+03 0.  0.
         23    2    4    4    0    0  0.40265129576E+03 -0.43443427459E+03  0.15902130854E+04  0.16994245091E+04  0.91677697897E+02 0.  0.
         23    2    4    4    0    0  0.14813255378E+03 -0.67118209198E+02 -0.86111863306E+02  0.20531031878E+03  0.91043761445E+02 0.  0.
          2    1    3    3  502    0 -0.31744309752E+03  0.33421332370E+03 -0.45599227046E+03  0.64838076515E+03  0.00000000000E+00 0. -1.
         -2    1    3    3    0  502 -0.23334075202E+03  0.16733916009E+03 -0.35465489458E+03  0.45632268769E+03  0.00000000000E+00 0.  1.
         13    1    5    5    0    0  0.58860799103E+01 -0.17617525621E+02  0.21078018025E+02  0.28094590041E+02  0.00000000000E+00 0. -1.
        -13    1    5    5    0    0  0.39676521584E+03 -0.41681674896E+03  0.15691350674E+04  0.16713299191E+04  0.00000000000E+00 0.  1.
          1    1    6    6  503    0  0.23740453336E+02 -0.43869617740E+02  0.38746628209E+01  0.50031644958E+02  0.00000000000E+00 0. -1.
         -1    1    6    6    0  503  0.12439210045E+03 -0.23248591458E+02 -0.89986526127E+02  0.15527867382E+03  0.00000000000E+00 0.  1.
<mgrwt>
<rscale>  0 0.29284536E+04</rscale>
<asrwt>0</asrwt>
<pdfrwt beam="1">  1        2 0.17815263E+00 0.29284536E+04</pdfrwt>
<pdfrwt beam="2">  1       -2 0.28483787E+00 0.29284536E+04</pdfrwt>
<totfact> 0.68014876E-01</totfact>
</mgrwt>
</event>
<event>
12    3  0.4773567E-008  0.1804075E+04  0.7818608E-02  0.8704135E-01
          2   -1    0    0  501    0  0.00000000000E+00  0.00000000000E+00  0.17375189278E+04  0.17375189278E+04  0.00000000000E+00 0. -1.
         -2   -1    0    0    0  501 -0.00000000000E+00 -0.00000000000E+00 -0.46829535484E+03  0.46829535484E+03  0.00000000000E+00 0.  1.
         23    2    1    2    0    0 -0.17801698240E+03  0.52850320196E+03  0.93915369887E+03  0.10961068872E+04  0.91842024586E+02 0.  0.
        254    2    1    2    0    0  0.17801698240E+03 -0.52850320196E+03  0.33006987413E+03  0.11097073955E+04  0.90083222710E+03 0.  0.
         23    2    4    4    0    0  0.27359417932E+03 -0.56588069908E+03 -0.11357062281E+03  0.64520605996E+03  0.91202153956E+02 0.  0.
         23    2    4    4    0    0 -0.95577196920E+02  0.37377497127E+02  0.44364049695E+03  0.46450133557E+03  0.91719803511E+02 0.  0.
          1    1    3    3  502    0 -0.18911093033E+03  0.50179601411E+03  0.89323470838E+03  0.10418399244E+04  0.00000000000E+00 0. -1.
         -1    1    3    3    0  502  0.11093947933E+02  0.26707187846E+02  0.45918990497E+02  0.54266962800E+02  0.00000000000E+00 0.  1.
         13    1    5    5    0    0  0.22650626624E+03 -0.42172665681E+03 -0.51952171733E+02  0.48151582514E+03  0.00000000000E+00 0.  1.
        -13    1    5    5    0    0  0.47087913082E+02 -0.14415404227E+03 -0.61618451078E+02  0.16369023482E+03  0.00000000000E+00 0. -1.
          4    1    6    6  503    0 -0.28620347216E+02 -0.25907882495E+02  0.20679200062E+03  0.21036462196E+03  0.00000000000E+00 0. -1.
         -4    1    6    6    0  503 -0.66956849704E+02  0.63285379622E+02  0.23684849632E+03  0.25413671361E+03  0.00000000000E+00 0.  1.
<mgrwt>
<rscale>  0 0.18040754E+04</rscale>
<asrwt>0</asrwt>
<pdfrwt beam="1">  1        2 0.26731060E+00 0.18040754E+04</pdfrwt>
<pdfrwt beam="2">  1       -2 0.72045440E-01 0.18040754E+04</pdfrwt>
<totfact> 0.15392248E+01</totfact>
</mgrwt>
</event>
<event>
12    3  0.4773567E-008  0.1356580E+04  0.7818608E-02  0.8985862E-01
         -1   -1    0    0    0  501 -0.00000000000E+00  0.00000000000E+00  0.79495136695E+03  0.79495136695E+03  0.00000000000E+00 0.  1.
          1   -1    0    0  501    0  0.00000000000E+00 -0.00000000000E+00 -0.57874897039E+03  0.57874897039E+03  0.00000000000E+00 0. -1.
         23    2    1    2    0    0 -0.33233671766E+03 -0.59747695443E+02 -0.91861036311E+02  0.36164040540E+03  0.91257064441E+02 0.  0.
        254    2    1    2    0    0  0.33233671766E+03  0.59747695443E+02  0.30806343288E+03  0.10120599319E+04  0.90296442131E+03 0.  0.
         23    2    4    4    0    0  0.58356874988E+03 -0.16081471701E+03  0.14487847681E+03  0.62895882423E+03  0.90474142660E+02 0.  0.
         23    2    4    4    0    0 -0.25123203223E+03  0.22056241245E+03  0.16318495607E+03  0.38310110771E+03  0.91497634054E+02 0.  0.
          1    1    3    3  502    0 -0.29344779391E+03 -0.76529125844E+02 -0.98304469205E+02  0.31879787251E+03  0.00000000000E+00 0. -1.
         -1    1    3    3    0  502 -0.38888923747E+02  0.16781430402E+02  0.64434328936E+01  0.42842532885E+02  0.00000000000E+00 0.  1.
         13    1    5    5    0    0 -0.24869444317E+01 -0.18378819765E+00  0.47134713151E+01  0.53324930892E+01  0.00000000000E+00 0. -1.
        -13    1    5    5    0    0  0.58605569431E+03 -0.16063092881E+03  0.14016500549E+03  0.62362633114E+03  0.00000000000E+00 0.  1.
          3    1    6    6  503    0 -0.30378324673E+02 -0.43480059621E+01  0.21719636577E+02  0.37596414441E+02  0.00000000000E+00 0. -1.
         -3    1    6    6    0  503 -0.22085370755E+03  0.22491041841E+03  0.14146531949E+03  0.34550469327E+03  0.00000000000E+00 0.  1.
<mgrwt>
<rscale>  0 0.13565799E+04</rscale>
<asrwt>0</asrwt>
<pdfrwt beam="1">  1        1 0.89038303E-01 0.13565799E+04</pdfrwt>
<pdfrwt beam="2">  1       -1 0.12230021E+00 0.13565799E+04</pdfrwt>
<totfact> 0.20858788E+01</totfact>
</mgrwt>
</event>
<event>
12    3  0.4773567E-008  0.1827615E+04  0.7818608E-02  0.8691751E-01
         -2   -1    0    0    0  501 -0.00000000000E+00  0.00000000000E+00  0.26133380201E+03  0.26133380201E+03  0.00000000000E+00 0.  1.
          2   -1    0    0  501    0  0.00000000000E+00 -0.00000000000E+00 -0.31953145894E+04  0.31953145894E+04  0.00000000000E+00 0. -1.
         23    2    1    2    0    0  0.39177414290E+03  0.12792937195E+03 -0.21572183957E+04  0.21981164086E+04  0.90948534972E+02 0.  0.
        254    2    1    2    0    0 -0.39177414290E+03 -0.12792937195E+03 -0.77676239173E+03  0.12585319828E+04  0.90038327131E+03 0.  0.
         23    2    4    4    0    0 -0.26513212735E+03 -0.17776514977E+03  0.11517903500E+03  0.35170377152E+03  0.92378782037E+02 0.  0.
         23    2    4    4    0    0 -0.12664201555E+03  0.49835777821E+02 -0.89194142674E+03  0.90682821128E+03  0.90863035301E+02 0.  0.
          3    1    3    3  502    0  0.18368335421E+03  0.10374262226E+03 -0.98669317358E+03  0.10089923315E+04  0.00000000000E+00 0. -1.
         -3    1    3    3    0  502  0.20809078869E+03  0.24186749687E+02 -0.11705252221E+04  0.11891240771E+04  0.00000000000E+00 0.  1.
         13    1    5    5    0    0 -0.27210632091E+03 -0.17822664288E+03  0.11195470256E+03  0.34400645566E+03  0.00000000000E+00 0. -1.
        -13    1    5    5    0    0  0.69741935593E+01  0.46149311315E+00  0.32243324405E+01  0.76973158558E+01  0.00000000000E+00 0.  1.
          4    1    6    6  503    0 -0.48003560607E+02  0.30899341442E+02 -0.63247561908E+03  0.63504686430E+03  0.00000000000E+00 0. -1.
         -4    1    6    6    0  503 -0.78638454947E+02  0.18936436379E+02 -0.25946580766E+03  0.27178134697E+03  0.00000000000E+00 0.  1.
<mgrwt>
<rscale>  0 0.18276145E+04</rscale>
<asrwt>0</asrwt>
<pdfrwt beam="1">  1        2 0.49158689E+00 0.18276145E+04</pdfrwt>
<pdfrwt beam="2">  1       -2 0.40205198E-01 0.18276145E+04</pdfrwt>
<totfact> 0.72393065E+00</totfact>
</mgrwt>
</event>
<event>
12    3  0.4773567E-008  0.1566450E+04  0.7818608E-02  0.8841428E-01
         -2   -1    0    0    0  501 -0.00000000000E+00  0.00000000000E+00  0.49695103993E+03  0.49695103993E+03  0.00000000000E+00 0.  1.
          2   -1    0    0  501    0  0.00000000000E+00 -0.00000000000E+00 -0.12344103771E+04  0.12344103771E+04  0.00000000000E+00 0. -1.
         23    2    1    2    0    0  0.21992427320E+03 -0.45422548667E+03 -0.37027512226E+03  0.63255712557E+03  0.91309212351E+02 0.  0.
        254    2    1    2    0    0 -0.21992427320E+03  0.45422548667E+03 -0.36718421488E+03  0.10988042914E+04  0.90435565158E+03 0.  0.
         23    2    4    4    0    0 -0.50617592366E+03  0.15645646759E+03  0.11446275584E+01  0.53751860050E+03  0.90731713132E+02 0.  0.
         23    2    4    4    0    0  0.28625165046E+03  0.29776901908E+03 -0.36832884244E+03  0.56128569094E+03  0.93643443822E+02 0.  0.
          2    1    3    3  502    0 -0.38379512973E+01  0.88206787569E+00  0.96871953927E+00  0.40554076791E+01  0.00000000000E+00 0. -1.
         -2    1    3    3    0  502  0.22376222450E+03 -0.45510755454E+03 -0.37124384180E+03  0.62850171789E+03  0.00000000000E+00 0.  1.
         13    1    5    5    0    0 -0.15129211897E+02 -0.98307070404E+01 -0.60512728484E+01  0.19030337796E+02  0.00000000000E+00 0. -1.
        -13    1    5    5    0    0 -0.49104671176E+03  0.16628717463E+03  0.71959004068E+01  0.51848826270E+03  0.00000000000E+00 0.  1.
          2    1    6    6  503    0  0.14782805542E+03  0.15774708364E+03 -0.25422656288E+03  0.33371907593E+03  0.00000000000E+00 0. -1.
         -2    1    6    6    0  503  0.13842359504E+03  0.14002193544E+03 -0.11410227956E+03  0.22756661501E+03  0.00000000000E+00 0.  1.
<mgrwt>
<rscale>  0 0.15664502E+04</rscale>
<asrwt>0</asrwt>
<pdfrwt beam="1">  1        2 0.18990929E+00 0.15664502E+04</pdfrwt>
<pdfrwt beam="2">  1       -2 0.76454008E-01 0.15664502E+04</pdfrwt>
<totfact> 0.26579198E+01</totfact>
</mgrwt>
</event>
<event>
12    3  0.4773567E-008  0.1838134E+04  0.7818608E-02  0.8686279E-01
          2   -1    0    0  501    0  0.00000000000E+00  0.00000000000E+00  0.10327915161E+04  0.10327915161E+04  0.00000000000E+00 0. -1.
         -2   -1    0    0    0  501 -0.00000000000E+00 -0.00000000000E+00 -0.81786519209E+03  0.81786519209E+03  0.00000000000E+00 0.  1.
         23    2    1    2    0    0 -0.29719042825E+03  0.20540141162E+03  0.67523556293E+03  0.77258596521E+03  0.10214752889E+03 0.  0.
        254    2    1    2    0    0  0.29719042825E+03 -0.20540141162E+03 -0.46030923894E+03  0.10780707430E+04  0.90545018683E+03 0.  0.
         23    2    4    4    0    0 -0.37418228865E+02 -0.16848598773E+03  0.23202583724E+03  0.30304956587E+03  0.90638834501E+02 0.  0.
         23    2    4    4    0    0  0.33460865711E+03 -0.36915423894E+02 -0.69233507617E+03  0.77502117708E+03  0.89466559638E+02 0.  0.
          2    1    3    3  502    0 -0.21637956890E+03  0.15294110696E+03  0.38983871318E+03  0.47136538092E+03  0.00000000000E+00 0. -1.
         -2    1    3    3    0  502 -0.80810859344E+02  0.52460304664E+02  0.28539684975E+03  0.30122058429E+03  0.00000000000E+00 0.  1.
         13    1    5    5    0    0 -0.31777233874E+02 -0.29499249855E+02  0.10915834991E+03  0.11745443239E+03  0.00000000000E+00 0.  1.
        -13    1    5    5    0    0 -0.56409949913E+01 -0.13898673787E+03  0.12286748733E+03  0.18559513348E+03  0.00000000000E+00 0. -1.
          4    1    6    6  503    0  0.27102312970E+03 -0.65159038021E+02 -0.55282579518E+03  0.61912486372E+03  0.00000000000E+00 0.  1.
         -4    1    6    6    0  503  0.63585527416E+02  0.28243614127E+02 -0.13950928099E+03  0.15589631336E+03  0.00000000000E+00 0. -1.
<mgrwt>
<rscale>  0 0.18381341E+04</rscale>
<asrwt>0</asrwt>
<pdfrwt beam="1">  1        2 0.15889100E+00 0.18381341E+04</pdfrwt>
<pdfrwt beam="2">  1       -2 0.12582541E+00 0.18381341E+04</pdfrwt>
<totfact> 0.10654683E+01</totfact>
</mgrwt>
</event>
<event>
12    3  0.4773567E-008  0.1723367E+04  0.7818608E-02  0.8748148E-01
         -1   -1    0    0    0  501 -0.00000000000E+00  0.00000000000E+00  0.10066864827E+04  0.10066864827E+04  0.00000000000E+00 0.  1.
          1   -1    0    0  501    0  0.00000000000E+00 -0.00000000000E+00 -0.73756708892E+03  0.73756708892E+03  0.00000000000E+00 0. -1.
         23    2    1    2    0    0 -0.37100036045E+03 -0.44155583376E+03 -0.16485600568E+03  0.60668654211E+03  0.90984811867E+02 0.  0.
        254    2    1    2    0    0  0.37100036045E+03  0.44155583376E+03  0.43397539951E+03  0.11375670295E+04  0.87926746645E+03 0.  0.
         23    2    4    4    0    0  0.54988727328E+03  0.53411384330E+03  0.48309237673E+03  0.91076520606E+03  0.91985896698E+02 0.  0.
         23    2    4    4    0    0 -0.17888691283E+03 -0.92558009543E+02 -0.49116977219E+02  0.22680182349E+03  0.91973240551E+02 0.  0.
          4    1    3    3  502    0  0.23565324346E+01 -0.54859763242E+01 -0.10747531620E+02  0.12294658079E+02  0.00000000000E+00 0.  1.
         -4    1    3    3    0  502 -0.37335689289E+03 -0.43606985743E+03 -0.15410847406E+03  0.59439188403E+03  0.00000000000E+00 0. -1.
         13    1    5    5    0    0  0.50497194992E+03  0.45600708748E+03  0.40702207888E+03  0.79284683687E+03  0.00000000000E+00 0.  1.
        -13    1    5    5    0    0  0.44915323361E+02  0.78106755816E+02  0.76070297851E+02  0.11791836919E+03  0.00000000000E+00 0. -1.
          3    1    6    6  503    0 -0.26288145491E+02  0.15654792651E+02 -0.22200449891E+02  0.37802104461E+02  0.00000000000E+00 0. -1.
         -3    1    6    6    0  503 -0.15259876733E+03 -0.10821280219E+03 -0.26916527328E+02  0.18899971903E+03  0.00000000000E+00 0.  1.
<mgrwt>
<rscale>  0 0.17233674E+04</rscale>
<asrwt>0</asrwt>
<pdfrwt beam="1">  1        1 0.11347186E+00 0.17233674E+04</pdfrwt>
<pdfrwt beam="2">  1       -1 0.15487484E+00 0.17233674E+04</pdfrwt>
<totfact> 0.76366164E+00</totfact>
</mgrwt>
</event>
<event>
12    3  0.4773567E-008  0.1675682E+04  0.7818608E-02  0.8775357E-01
          1   -1    0    0  501    0  0.00000000000E+00  0.00000000000E+00  0.72394381222E+03  0.72394381222E+03  0.00000000000E+00 0. -1.
         -1   -1    0    0    0  501 -0.00000000000E+00 -0.00000000000E+00 -0.96965725143E+03  0.96965725143E+03  0.00000000000E+00 0.  1.
         23    2    1    2    0    0 -0.15558192959E+03  0.12856242019E+03  0.47292489650E+03  0.52200918236E+03  0.90008866395E+02 0.  0.
        254    2    1    2    0    0  0.15558192959E+03 -0.12856242019E+03 -0.71863833571E+03  0.11715918813E+04  0.90302405618E+03 0.  0.
         23    2    4    4    0    0  0.11189608336E+03 -0.20279989647E+03 -0.90977956996E+03  0.94350473154E+03  0.94094532453E+02 0.  0.
         23    2    4    4    0    0  0.43685846229E+02  0.74237476277E+02  0.19114123425E+03  0.22808714974E+03  0.89828282863E+02 0.  0.
          2    1    3    3  502    0 -0.16640490922E+03  0.12049163679E+03  0.42242586630E+03  0.46973656539E+03  0.00000000000E+00 0. -1.
         -2    1    3    3    0  502  0.10822979624E+02  0.80707834044E+01  0.50499030205E+02  0.52272616965E+02  0.00000000000E+00 0.  1.
         13    1    5    5    0    0  0.96790163333E+02 -0.16828070120E+03 -0.58103575156E+03  0.61260858197E+03  0.00000000000E+00 0.  1.
        -13    1    5    5    0    0  0.15105920032E+02 -0.34519195276E+02 -0.32874381841E+03  0.33089614958E+03  0.00000000000E+00 0. -1.
          1    1    6    6  503    0  0.70158153086E+02  0.65582581176E+02  0.15677499067E+03  0.18385222081E+03  0.00000000000E+00 0. -1.
         -1    1    6    6    0  503 -0.26472306858E+02  0.86548951010E+01  0.34366243581E+02  0.44234928930E+02  0.00000000000E+00 0.  1.
<mgrwt>
<rscale>  0 0.16756818E+04</rscale>
<asrwt>0</asrwt>
<pdfrwt beam="1">  1        1 0.11137597E+00 0.16756818E+04</pdfrwt>
<pdfrwt beam="2">  1       -1 0.14917804E+00 0.16756818E+04</pdfrwt>
<totfact> 0.87377056E+00</totfact>
</mgrwt>
</event>
<event>
12    3  0.4773567E-008  0.1001703E+04  0.7818608E-02  0.9306679E-01
          2   -1    0    0  501    0  0.00000000000E+00  0.00000000000E+00  0.14793888751E+04  0.14793888751E+04  0.00000000000E+00 0. -1.
         -2   -1    0    0    0  501 -0.00000000000E+00 -0.00000000000E+00 -0.16956484160E+03  0.16956484160E+03  0.00000000000E+00 0.  1.
         23    2    1    2    0    0  0.20634449646E+02 -0.13883739178E+02  0.25038402622E+03  0.26883686175E+03  0.94670792353E+02 0.  0.
        254    2    1    2    0    0 -0.20634449646E+02  0.13883739178E+02  0.10594400073E+04  0.13801168549E+04  0.88413283254E+03 0.  0.
         23    2    4    4    0    0 -0.37147681349E+03 -0.22330982462E+03  0.43330233929E+03  0.61935170664E+03  0.89349418335E+02 0.  0.
         23    2    4    4    0    0  0.35084236384E+03  0.23719356380E+03  0.62613766798E+03  0.76076514830E+03  0.85814221590E+02 0.  0.
          3    1    3    3  502    0 -0.26132857427E+02  0.79175943768E+01  0.17719950009E+03  0.17929104096E+03  0.00000000000E+00 0. -1.
         -3    1    3    3    0  502  0.46767307073E+02 -0.21801333555E+02  0.73184526130E+02  0.89545820788E+02  0.00000000000E+00 0.  1.
         13    1    5    5    0    0 -0.29885432446E+03 -0.15514155959E+03  0.37477775990E+03  0.50382653769E+03  0.00000000000E+00 0.  1.
        -13    1    5    5    0    0 -0.72622489027E+02 -0.68168265030E+02  0.58524579387E+02  0.11552516895E+03  0.00000000000E+00 0. -1.
          1    1    6    6  503    0  0.10904011129E+03  0.10251723702E+03  0.16351498480E+03  0.22166794990E+03  0.00000000000E+00 0. -1.
         -1    1    6    6    0  503  0.24180225256E+03  0.13467632678E+03  0.46262268317E+03  0.53909719840E+03  0.00000000000E+00 0.  1.
<mgrwt>
<rscale>  0 0.10017032E+04</rscale>
<asrwt>0</asrwt>
<pdfrwt beam="1">  1        2 0.22759828E+00 0.10017032E+04</pdfrwt>
<pdfrwt beam="2">  1       -2 0.26086900E-01 0.10017032E+04</pdfrwt>
<totfact> 0.17265556E+02</totfact>
</mgrwt>
</event>
<event>
12    3  0.4773567E-008  0.1180664E+04  0.7818608E-02  0.9129952E-01
          1   -1    0    0  501    0  0.00000000000E+00  0.00000000000E+00  0.19532805391E+04  0.19532805391E+04  0.00000000000E+00 0. -1.
         -1   -1    0    0    0  501 -0.00000000000E+00 -0.00000000000E+00 -0.17841356138E+03  0.17841356138E+03  0.00000000000E+00 0.  1.
         23    2    1    2    0    0  0.63048950483E+02 -0.14866052656E+03  0.64925943018E+03  0.67526278523E+03  0.91470755520E+02 0.  0.
        254    2    1    2    0    0 -0.63048950483E+02  0.14866052656E+03  0.11256075476E+04  0.14564313153E+04  0.91001357280E+03 0.  0.
         23    2    4    4    0    0 -0.45022223134E+03 -0.56958114101E+02  0.69767895638E+03  0.83701628001E+03  0.88859678579E+02 0.  0.
         23    2    4    4    0    0  0.38717328085E+03  0.20561864066E+03  0.42792859120E+03  0.61941503528E+03  0.91487332301E+02 0.  0.
          3    1    3    3  502    0  0.19148564743E+02 -0.80225572132E+02  0.48521226094E+03  0.49217247802E+03  0.00000000000E+00 0. -1.
         -3    1    3    3    0  502  0.43900385740E+02 -0.68434954426E+02  0.16404716925E+03  0.18309030721E+03  0.00000000000E+00 0.  1.
         13    1    5    5    0    0 -0.27813251264E+03 -0.14024104032E+02  0.49267418722E+03  0.56593482384E+03  0.00000000000E+00 0. -1.
        -13    1    5    5    0    0 -0.17208971870E+03 -0.42934010069E+02  0.20500476916E+03  0.27108145618E+03  0.00000000000E+00 0.  1.
          4    1    6    6  503    0  0.65660602812E+01  0.12430119241E+02 -0.12627729574E+01  0.14114375916E+02  0.00000000000E+00 0.  1.
         -4    1    6    6    0  503  0.38060722057E+03  0.19318852142E+03  0.42919136416E+03  0.60530065937E+03  0.00000000000E+00 0. -1.
<mgrwt>
<rscale>  0 0.11806638E+04</rscale>
<asrwt>0</asrwt>
<pdfrwt beam="1">  1        1 0.30050468E+00 0.11806638E+04</pdfrwt>
<pdfrwt beam="2">  1       -1 0.27448242E-01 0.11806638E+04</pdfrwt>
<totfact> 0.37934819E+01</totfact>
</mgrwt>
</event>
<event>
12    3  0.4773567E-008  0.1173575E+04  0.7818608E-02  0.9136306E-01
         -1   -1    0    0    0  501 -0.00000000000E+00  0.00000000000E+00  0.27705829012E+03  0.27705829012E+03  0.00000000000E+00 0.  1.
          1   -1    0    0  501    0  0.00000000000E+00 -0.00000000000E+00 -0.12427703429E+04  0.12427703429E+04  0.00000000000E+00 0. -1.
         23    2    1    2    0    0  0.13137056148E+03  0.16782858733E+03 -0.10592967460E+03  0.25491704200E+03  0.91306862783E+02 0.  0.
        254    2    1    2    0    0 -0.13137056148E+03 -0.16782858733E+03 -0.85978237813E+03  0.12649115910E+04  0.90296784887E+03 0.  0.
         23    2    4    4    0    0  0.16261158787E+03 -0.66208570391E+02 -0.91489468470E+03  0.93578343243E+03  0.88499971787E+02 0.  0.
         23    2    4    4    0    0 -0.29398214935E+03 -0.10162001694E+03  0.55112306569E+02  0.32912815855E+03  0.92389644661E+02 0.  0.
          2    1    3    3  502    0 -0.65644628970E+01 -0.54282384789E+01 -0.11143286339E+02  0.14026074880E+02  0.00000000000E+00 0. -1.
         -2    1    3    3    0  502  0.13793502438E+03  0.17325682581E+03 -0.94786388266E+02  0.24089096712E+03  0.00000000000E+00 0.  1.
         13    1    5    5    0    0 -0.93478686694E+01  0.48206908939E+01 -0.53806512708E+02  0.54824834876E+02  0.00000000000E+00 0.  1.
        -13    1    5    5    0    0  0.17195945654E+03 -0.71029261285E+02 -0.86108817200E+03  0.88095859755E+03  0.00000000000E+00 0. -1.
          1    1    6    6  503    0 -0.28307953869E+03 -0.86237061373E+02  0.29593990710E+02  0.29739983232E+03  0.00000000000E+00 0. -1.
         -1    1    6    6    0  503 -0.10902610654E+02 -0.15382955568E+02  0.25518315859E+02  0.31728326230E+02  0.00000000000E+00 0.  1.
<mgrwt>
<rscale>  0 0.11735754E+04</rscale>
<asrwt>0</asrwt>
<pdfrwt beam="1">  1        1 0.19119543E+00 0.11735754E+04</pdfrwt>
<pdfrwt beam="2">  1       -1 0.42624353E-01 0.11735754E+04</pdfrwt>
<totfact> 0.53403897E+01</totfact>
</mgrwt>
</event>
<event>
12    3  0.4773567E-008  0.3499506E+04  0.7818608E-02  0.8113907E-01
          1   -1    0    0  501    0  0.00000000000E+00  0.00000000000E+00  0.21655517139E+04  0.21655517139E+04  0.00000000000E+00 0. -1.
         -1   -1    0    0    0  501 -0.00000000000E+00 -0.00000000000E+00 -0.14137897444E+04  0.14137897444E+04  0.00000000000E+00 0.  1.
         23    2    1    2    0    0 -0.63278370916E+03  0.89216422769E+03 -0.88912613868E+03  0.14125753387E+04  0.91932395542E+02 0.  0.
        254    2    1    2    0    0  0.63278370916E+03 -0.89216422769E+03  0.16408881082E+04  0.21667661196E+04  0.89776912488E+03 0.  0.
         23    2    4    4    0    0  0.70118747184E+03 -0.33717898199E+03  0.12609078811E+04  0.14845222925E+04  0.92543047339E+02 0.  0.
         23    2    4    4    0    0 -0.68403762676E+02 -0.55498524570E+03  0.37998022707E+03  0.68224382710E+03  0.91564015617E+02 0.  0.
          3    1    3    3  502    0 -0.20981365277E+02  0.23678480897E+02 -0.86717033783E+01  0.32803758717E+02  0.00000000000E+00 0. -1.
         -3    1    3    3    0  502 -0.61180234388E+03  0.86848574679E+03 -0.88045443531E+03  0.13797715800E+04  0.00000000000E+00 0.  1.
         13    1    5    5    0    0  0.52623468200E+02 -0.32240000072E+02  0.60319937065E+02  0.86296823913E+02  0.00000000000E+00 0.  1.
        -13    1    5    5    0    0  0.64856400364E+03 -0.30493898191E+03  0.12005879441E+04  0.13982254686E+04  0.00000000000E+00 0. -1.
          4    1    6    6  503    0 -0.60663837440E+02 -0.55265319657E+03  0.38114736753E+03  0.67407638486E+03  0.00000000000E+00 0. -1.
         -4    1    6    6    0  503 -0.77399252354E+01 -0.23320491331E+01 -0.11671404663E+01  0.81674422359E+01  0.00000000000E+00 0.  1.
<mgrwt>
<rscale>  0 0.34995056E+04</rscale>
<asrwt>0</asrwt>
<pdfrwt beam="1">  1        1 0.33316180E+00 0.34995056E+04</pdfrwt>
<pdfrwt beam="2">  1       -1 0.21750611E+00 0.34995056E+04</pdfrwt>
<totfact> 0.21460597E-01</totfact>
</mgrwt>
</event>
<event>
12    3  0.4773567E-008  0.1804544E+04  0.7818608E-02  0.8703887E-01
          2   -1    0    0  501    0  0.00000000000E+00  0.00000000000E+00  0.86775498840E+03  0.86775498840E+03  0.00000000000E+00 0. -1.
         -2   -1    0    0    0  501 -0.00000000000E+00 -0.00000000000E+00 -0.93816248074E+03  0.93816248074E+03  0.00000000000E+00 0.  1.
         23    2    1    2    0    0 -0.45553217942E+02  0.32916652302E+03 -0.61284262691E+03  0.70305565190E+03  0.91024550374E+02 0.  0.
        254    2    1    2    0    0  0.45553217942E+02 -0.32916652302E+03  0.54243513457E+03  0.11028618172E+04  0.90091210290E+03 0.  0.
         23    2    4    4    0    0 -0.22607080023E+03 -0.78925792152E+02 -0.16109276695E+03  0.30326043552E+03  0.93159673701E+02 0.  0.
         23    2    4    4    0    0  0.27162401817E+03 -0.25024073087E+03  0.70352790152E+03  0.79960138172E+03  0.89503244562E+02 0.  0.
          3    1    3    3  502    0  0.97428872172E+01  0.13377102697E+03 -0.17565135604E+03  0.22100454834E+03  0.00000000000E+00 0. -1.
         -3    1    3    3    0  502 -0.55296105159E+02  0.19539549606E+03 -0.43719127086E+03  0.48205110356E+03  0.00000000000E+00 0.  1.
         13    1    5    5    0    0 -0.14889001453E+02 -0.34253309334E+02 -0.68801528393E+01  0.37977731208E+02  0.00000000000E+00 0. -1.
        -13    1    5    5    0    0 -0.21118179878E+03 -0.44672482818E+02 -0.15421261411E+03  0.26528270431E+03  0.00000000000E+00 0.  1.
          3    1    6    6  503    0  0.23392712430E+02  0.48883022045E+01  0.38986410419E+02  0.45728051463E+02  0.00000000000E+00 0. -1.
         -3    1    6    6    0  503  0.24823130574E+03 -0.25512903308E+03  0.66454149110E+03  0.75387333025E+03  0.00000000000E+00 0.  1.
<mgrwt>
<rscale>  0 0.18045445E+04</rscale>
<asrwt>0</asrwt>
<pdfrwt beam="1">  1        2 0.13350077E+00 0.18045445E+04</pdfrwt>
<pdfrwt beam="2">  1       -2 0.14433269E+00 0.18045445E+04</pdfrwt>
<totfact> 0.96538090E+00</totfact>
</mgrwt>
</event>
<event>
12    3  0.4773567E-008  0.2582720E+04  0.7818608E-02  0.8374095E-01
          1   -1    0    0  501    0  0.00000000000E+00  0.00000000000E+00  0.14727467368E+04  0.14727467368E+04  0.00000000000E+00 0. -1.
         -1   -1    0    0    0  501 -0.00000000000E+00 -0.00000000000E+00 -0.11323133530E+04  0.11323133530E+04  0.00000000000E+00 0.  1.
         23    2    1    2    0    0 -0.76779392143E+03  0.63445132365E+03 -0.38753861460E+03  0.10724371204E+04  0.88877509130E+02 0.  0.
        254    2    1    2    0    0  0.76779392143E+03 -0.63445132365E+03  0.72797199843E+03  0.15326229693E+04  0.90937008293E+03 0.  0.
         23    2    4    4    0    0  0.33649250271E+03 -0.55034941618E+03  0.84690780963E+03  0.10686746632E+04  0.93279223079E+02 0.  0.
         23    2    4    4    0    0  0.43130141872E+03 -0.84101907471E+02 -0.11893581120E+03  0.46394830613E+03  0.89488876117E+02 0.  0.
          1    1    3    3  502    0 -0.28786189136E+02  0.17564200400E+02 -0.31250856379E+02  0.45975665793E+02  0.00000000000E+00 0. -1.
         -1    1    3    3    0  502 -0.73900773229E+03  0.61688712325E+03 -0.35628775822E+03  0.10264614546E+04  0.00000000000E+00 0.  1.
         13    1    5    5    0    0  0.15216955384E+03 -0.28992170209E+03  0.49678150909E+03  0.59498070073E+03  0.00000000000E+00 0.  1.
        -13    1    5    5    0    0  0.18432294887E+03 -0.26042771409E+03  0.35012630053E+03  0.47369396246E+03  0.00000000000E+00 0. -1.
          1    1    6    6  503    0  0.19154774130E+03 -0.29107160170E+02 -0.97883234876E+02  0.21706886382E+03  0.00000000000E+00 0. -1.
         -1    1    6    6    0  503  0.23975367742E+03 -0.54994747302E+02 -0.21052576321E+02  0.24687944231E+03  0.00000000000E+00 0.  1.
<mgrwt>
<rscale>  0 0.25827201E+04</rscale>
<asrwt>0</asrwt>
<pdfrwt beam="1">  1        1 0.22657642E+00 0.25827201E+04</pdfrwt>
<pdfrwt beam="2">  1       -1 0.17420206E+00 0.25827201E+04</pdfrwt>
<totfact> 0.13817840E+00</totfact>
</mgrwt>
</event>
<event>
12    3  0.4773567E-008  0.1808533E+04  0.7818608E-02  0.8701775E-01
         -2   -1    0    0    0  501 -0.00000000000E+00  0.00000000000E+00  0.16542176742E+04  0.16542176742E+04  0.00000000000E+00 0.  1.
          2   -1    0    0  501    0  0.00000000000E+00 -0.00000000000E+00 -0.49431097341E+03  0.49431097341E+03  0.00000000000E+00 0. -1.
         23    2    1    2    0    0  0.33164875871E+03  0.34987803802E+03  0.99826916506E+03  0.11118571157E+04  0.85319278244E+02 0.  0.
        254    2    1    2    0    0 -0.33164875871E+03 -0.34987803802E+03  0.16163753570E+03  0.10366715319E+04  0.90341332255E+03 0.  0.
         23    2    4    4    0    0  0.18318255618E+03 -0.14943638409E+02  0.33370388368E+03  0.39213707008E+03  0.92919527173E+02 0.  0.
         23    2    4    4    0    0 -0.51483131489E+03 -0.33493439961E+03 -0.17206634798E+03  0.64453446177E+03  0.92658024303E+02 0.  0.
          3    1    3    3  502    0  0.19295595877E+03  0.14167398850E+03  0.48245914855E+03  0.53858179608E+03  0.00000000000E+00 0. -1.
         -3    1    3    3    0  502  0.13869279994E+03  0.20820404952E+03  0.51581001651E+03  0.57327531965E+03  0.00000000000E+00 0.  1.
         13    1    5    5    0    0  0.13815236287E+03  0.20487214186E+02  0.17817472656E+03  0.22638912186E+03  0.00000000000E+00 0.  1.
        -13    1    5    5    0    0  0.45030193314E+02 -0.35430852595E+02  0.15552915712E+03  0.16574794822E+03  0.00000000000E+00 0. -1.
          2    1    6    6  503    0 -0.34590586148E+03 -0.25081409394E+03 -0.15708239257E+03  0.45522901135E+03  0.00000000000E+00 0. -1.
         -2    1    6    6    0  503 -0.16892545342E+03 -0.84120305673E+02 -0.14983955408E+02  0.18930545042E+03  0.00000000000E+00 0.  1.
<mgrwt>
<rscale>  0 0.18085331E+04</rscale>
<asrwt>0</asrwt>
<pdfrwt beam="1">  1        2 0.76047843E-01 0.18085331E+04</pdfrwt>
<pdfrwt beam="2">  1       -2 0.25449502E+00 0.18085331E+04</pdfrwt>
<totfact> 0.35503471E+00</totfact>
</mgrwt>
</event>
<event>
12    3  0.4773567E-008  0.1834331E+04  0.7818608E-02  0.8688253E-01
         -1   -1    0    0    0  501 -0.00000000000E+00  0.00000000000E+00  0.64894217258E+03  0.64894217258E+03  0.00000000000E+00 0.  1.
          1   -1    0    0  501    0  0.00000000000E+00 -0.00000000000E+00 -0.12962521352E+04  0.12962521352E+04  0.00000000000E+00 0. -1.
         23    2    1    2    0    0  0.58573125139E+03  0.66457916062E+02  0.13612898283E+03  0.61171199402E+03  0.90347718256E+02 0.  0.
        254    2    1    2    0    0 -0.58573125139E+03 -0.66457916062E+02 -0.78343894540E+03  0.13334823137E+04  0.90382561723E+03 0.  0.
         23    2    4    4    0    0 -0.24485085350E+03 -0.47292791383E+03 -0.38413210080E+03  0.66288261623E+03  0.90791739145E+02 0.  0.
         23    2    4    4    0    0 -0.34088039790E+03  0.40646999777E+03 -0.39930684460E+03  0.67059969749E+03  0.94024961401E+02 0.  0.
          1    1    3    3  502    0  0.48940829143E+03  0.33564298691E+02  0.85217097718E+02  0.49790460092E+03  0.00000000000E+00 0. -1.
         -1    1    3    3    0  502  0.96322959962E+02  0.32893617371E+02  0.50911885111E+02  0.11380739310E+03  0.00000000000E+00 0.  1.
         13    1    5    5    0    0 -0.40001006466E+01 -0.39691319887E+02 -0.54739708749E+02  0.67733576559E+02  0.00000000000E+00 0. -1.
        -13    1    5    5    0    0 -0.24085075285E+03 -0.43323659395E+03 -0.32939239205E+03  0.59514903968E+03  0.00000000000E+00 0.  1.
          4    1    6    6  503    0 -0.34375099103E+03  0.38567492784E+03 -0.37443394464E+03  0.63805224918E+03  0.00000000000E+00 0.  1.
         -4    1    6    6    0  503  0.28705931273E+01  0.20795069935E+02 -0.24872899962E+02  0.32547448302E+02  0.00000000000E+00 0. -1.
<mgrwt>
<rscale>  0 0.18343311E+04</rscale>
<asrwt>0</asrwt>
<pdfrwt beam="1">  1        1 0.19942341E+00 0.18343311E+04</pdfrwt>
<pdfrwt beam="2">  1       -1 0.99837257E-01 0.18343311E+04</pdfrwt>
<totfact> 0.81928710E+00</totfact>
</mgrwt>
</event>
<event>
12    3  0.4773567E-008  0.1478103E+04  0.7818608E-02  0.8899146E-01
          2   -1    0    0  501    0  0.00000000000E+00  0.00000000000E+00  0.67293032802E+03  0.67293032802E+03  0.00000000000E+00 0. -1.
         -2   -1    0    0    0  501 -0.00000000000E+00 -0.00000000000E+00 -0.81166925297E+03  0.81166925297E+03  0.00000000000E+00 0.  1.
         23    2    1    2    0    0  0.14194222862E+03  0.81811605155E+02  0.33446132395E+03  0.38384101925E+03  0.92891419613E+02 0.  0.
        254    2    1    2    0    0 -0.14194222862E+03 -0.81811605155E+02 -0.47320024890E+03  0.11007585617E+04  0.98026027190E+03 0.  0.
         23    2    4    4    0    0 -0.37561720175E+03 -0.41907780284E+03 -0.23263951179E+03  0.61612457229E+03  0.93668879802E+02 0.  0.
         23    2    4    4    0    0  0.23367497313E+03  0.33726619769E+03 -0.24056073710E+03  0.48463398944E+03  0.92995453207E+02 0.  0.
          3    1    3    3  502    0  0.82929219829E+02  0.17935882156E+02  0.86910003890E+02  0.12145904720E+03  0.00000000000E+00 0. -1.
         -3    1    3    3    0  502  0.59013008794E+02  0.63875722999E+02  0.24755132006E+03  0.26238197205E+03  0.00000000000E+00 0.  1.
         13    1    5    5    0    0 -0.35195944971E+03 -0.34884492450E+03 -0.19073807767E+03  0.53098893572E+03  0.00000000000E+00 0. -1.
        -13    1    5    5    0    0 -0.23657752049E+02 -0.70232878341E+02 -0.41901434123E+02  0.85135636566E+02  0.00000000000E+00 0.  1.
          1    1    6    6  503    0  0.10132543500E+03  0.22236950043E+03 -0.15712753939E+03  0.29052384090E+03  0.00000000000E+00 0.  1.
         -1    1    6    6    0  503  0.13234953814E+03  0.11489669726E+03 -0.83433197711E+02  0.19411014854E+03  0.00000000000E+00 0. -1.
<mgrwt>
<rscale>  0 0.14781026E+04</rscale>
<asrwt>0</asrwt>
<pdfrwt beam="1">  1        2 0.10352774E+00 0.14781026E+04</pdfrwt>
<pdfrwt beam="2">  1       -2 0.12487219E+00 0.14781026E+04</pdfrwt>
<totfact> 0.20028380E+01</totfact>
</mgrwt>
</event>
<event>
12    3  0.4773567E-008  0.1759517E+04  0.7818608E-02  0.8728129E-01
          1   -1    0    0  501    0  0.00000000000E+00  0.00000000000E+00  0.50308970504E+03  0.50308970504E+03  0.00000000000E+00 0. -1.
         -1   -1    0    0    0  501 -0.00000000000E+00 -0.00000000000E+00 -0.15384434097E+04  0.15384434097E+04  0.00000000000E+00 0.  1.
         23    2    1    2    0    0 -0.27321409370E+02  0.61611736658E+03 -0.14957034257E+03  0.64168782852E+03  0.95104747959E+02 0.  0.
        254    2    1    2    0    0  0.27321409370E+02 -0.61611736658E+03 -0.88578336211E+03  0.13998452862E+04  0.89140764637E+03 0.  0.
         23    2    4    4    0    0  0.28057831030E+03 -0.16995365988E+03 -0.80295700738E+03  0.87208192128E+03  0.90434987791E+02 0.  0.
         23    2    4    4    0    0 -0.25325690093E+03 -0.44616370671E+03 -0.82826354732E+02  0.52776336496E+03  0.92048103184E+02 0.  0.
          3    1    3    3  502    0 -0.12812695390E+02  0.59867759674E+03 -0.13250464653E+03  0.61329969130E+03  0.00000000000E+00 0. -1.
         -3    1    3    3    0  502 -0.14508713980E+02  0.17439769847E+02 -0.17065696043E+02  0.28388137224E+02  0.00000000000E+00 0.  1.
         13    1    5    5    0    0  0.13814471448E+03 -0.71141772662E+02 -0.26858571105E+03  0.31029566246E+03  0.00000000000E+00 0.  1.
        -13    1    5    5    0    0  0.14243359582E+03 -0.98811887214E+02 -0.53437129632E+03  0.56178625883E+03  0.00000000000E+00 0. -1.
          1    1    6    6  503    0 -0.17064623964E+03 -0.33221877512E+03 -0.98223099526E+02  0.38618289829E+03  0.00000000000E+00 0. -1.
         -1    1    6    6    0  503 -0.82610661289E+02 -0.11394493158E+03  0.15396744793E+02  0.14158046667E+03  0.00000000000E+00 0.  1.
<mgrwt>
<rscale>  0 0.17595170E+04</rscale>
<asrwt>0</asrwt>
<pdfrwt beam="1">  1        1 0.77398418E-01 0.17595170E+04</pdfrwt>
<pdfrwt beam="2">  1       -1 0.23668360E+00 0.17595170E+04</pdfrwt>
<totfact> 0.35474498E+00</totfact>
</mgrwt>
</event>
<event>
12    3  0.4773567E-008  0.1860403E+04  0.7818608E-02  0.8674821E-01
          2   -1    0    0  501    0  0.00000000000E+00  0.00000000000E+00  0.17897835946E+04  0.17897835946E+04  0.00000000000E+00 0. -1.
         -2   -1    0    0    0  501 -0.00000000000E+00 -0.00000000000E+00 -0.48345237374E+03  0.48345237374E+03  0.00000000000E+00 0.  1.
         23    2    1    2    0    0 -0.25249398922E+03  0.66288360082E+03  0.44890494282E+03  0.84447105231E+03  0.91912064887E+02 0.  0.
        254    2    1    2    0    0  0.25249398922E+03 -0.66288360082E+03  0.85742627806E+03  0.14287649161E+04  0.89611465797E+03 0.  0.
         23    2    4    4    0    0 -0.12281385277E+03 -0.41143694115E+03  0.86324318186E+03  0.96863906434E+03  0.93323346292E+02 0.  0.
         23    2    4    4    0    0  0.37530784200E+03 -0.25144665966E+03 -0.58169038047E+01  0.46012585171E+03  0.87181214279E+02 0.  0.
          4    1    3    3  502    0 -0.13645011404E+03  0.29213394782E+03  0.25018683099E+03  0.40811068044E+03  0.00000000000E+00 0. -1.
         -4    1    3    3    0  502 -0.11604387518E+03  0.37074965300E+03  0.19871811183E+03  0.43636037186E+03  0.00000000000E+00 0.  1.
         13    1    5    5    0    0 -0.69090643364E+02 -0.92345333550E+02  0.20720374999E+03  0.23713829644E+03  0.00000000000E+00 0. -1.
        -13    1    5    5    0    0 -0.53723209411E+02 -0.31909160760E+03  0.65603943187E+03  0.73150076790E+03  0.00000000000E+00 0.  1.
          2    1    6    6  503    0  0.13532818614E+03 -0.50696049168E+02 -0.25017554507E+02  0.14666180620E+03  0.00000000000E+00 0. -1.
         -2    1    6    6    0  503  0.23997965586E+03 -0.20075061050E+03  0.19200650702E+02  0.31346404551E+03  0.00000000000E+00 0.  1.
<mgrwt>
<rscale>  0 0.18604033E+04</rscale>
<asrwt>0</asrwt>
<pdfrwt beam="1">  1        2 0.27535132E+00 0.18604033E+04</pdfrwt>
<pdfrwt beam="2">  1       -2 0.74377289E-01 0.18604033E+04</pdfrwt>
<totfact> 0.13358900E+01</totfact>
</mgrwt>
</event>
<event>
12    3  0.4773567E-008  0.1367140E+04  0.7818608E-02  0.8977954E-01
          2   -1    0    0  501    0  0.00000000000E+00  0.00000000000E+00  0.35578945263E+04  0.35578945263E+04  0.00000000000E+00 0.  1.
         -2   -1    0    0    0  501 -0.00000000000E+00 -0.00000000000E+00 -0.13133264939E+03  0.13133264939E+03  0.00000000000E+00 0. -1.
         23    2    1    2    0    0  0.20869374744E+03  0.31152026141E+03  0.10874100113E+04  0.11538697568E+04  0.91416242578E+02 0.  0.
        254    2    1    2    0    0 -0.20869374744E+03 -0.31152026141E+03  0.23391518656E+04  0.25353574189E+04  0.90322081347E+03 0.  0.
         23    2    4    4    0    0  0.32131344011E+03 -0.26068146714E+03  0.12426747888E+04  0.13129105728E+04  0.91084505779E+02 0.  0.
         23    2    4    4    0    0 -0.53000718754E+03 -0.50838794268E+02  0.10964770768E+04  0.12224468462E+04  0.92855317280E+02 0.  0.
          3    1    3    3  502    0 -0.49542859319E+01  0.40486335081E+02  0.12030486277E+03  0.12703128860E+03  0.00000000000E+00 0. -1.
         -3    1    3    3    0  502  0.21364803337E+03  0.27103392632E+03  0.96710514852E+03  0.10268384682E+04  0.00000000000E+00 0.  1.
         13    1    5    5    0    0  0.21290369751E+03 -0.11752861138E+03  0.75689753781E+03  0.79500618969E+03  0.00000000000E+00 0. -1.
        -13    1    5    5    0    0  0.10840974260E+03 -0.14315285576E+03  0.48577725103E+03  0.51790438309E+03  0.00000000000E+00 0.  1.
          1    1    6    6  503    0 -0.35540178239E+03 -0.77244461236E+02  0.72292713083E+03  0.80925939612E+03  0.00000000000E+00 0. -1.
         -1    1    6    6    0  503 -0.17460540515E+03  0.26405666967E+02  0.37354994595E+03  0.41318745005E+03  0.00000000000E+00 0.  1.
<mgrwt>
<rscale>  0 0.13671397E+04</rscale>
<asrwt>0</asrwt>
<pdfrwt beam="1">  1        2 0.54736831E+00 0.13671397E+04</pdfrwt>
<pdfrwt beam="2">  1       -2 0.20205026E-01 0.13671397E+04</pdfrwt>
<totfact> 0.15455053E+01</totfact>
</mgrwt>
</event>
<event>
12    3  0.4773567E-008  0.1995308E+04  0.7818608E-02  0.8608817E-01
         -2   -1    0    0    0  501 -0.00000000000E+00  0.00000000000E+00  0.13445899442E+04  0.13445899442E+04  0.00000000000E+00 0.  1.
          2   -1    0    0  501    0  0.00000000000E+00 -0.00000000000E+00 -0.74023594504E+03  0.74023594504E+03  0.00000000000E+00 0. -1.
         23    2    1    2    0    0 -0.54882277917E+03 -0.16820119920E+03  0.71394654958E+03  0.92060971069E+03  0.91128905415E+02 0.  0.
        254    2    1    2    0    0  0.54882277917E+03  0.16820119920E+03 -0.10959255044E+03  0.11642161785E+04  0.10069213956E+04 0.  0.
         23    2    4    4    0    0  0.23119307100E+03  0.41356585854E+03 -0.42692127991E+03  0.64455124085E+03  0.93260749588E+02 0.  0.
         23    2    4    4    0    0  0.31762970817E+03 -0.24536465934E+03  0.31732872948E+03  0.51966493768E+03  0.90893769505E+02 0.  0.
          4    1    3    3  502    0 -0.67064362334E+02 -0.53900935883E+02  0.10211459151E+03  0.13353025643E+03  0.00000000000E+00 0. -1.
         -4    1    3    3    0  502 -0.48175841684E+03 -0.11430026332E+03  0.61183195807E+03  0.78707945425E+03  0.00000000000E+00 0.  1.
         13    1    5    5    0    0  0.65445947336E+02  0.15465438945E+03 -0.20707153547E+03  0.26660790124E+03  0.00000000000E+00 0. -1.
        -13    1    5    5    0    0  0.16574712366E+03  0.25891146909E+03 -0.21984974444E+03  0.37794333961E+03  0.00000000000E+00 0.  1.
          3    1    6    6  503    0  0.27211549996E+03 -0.23051928250E+03  0.24407875541E+03  0.43215786902E+03  0.00000000000E+00 0. -1.
         -3    1    6    6    0  503  0.45514208215E+02 -0.14845376842E+02  0.73249974068E+02  0.87507068651E+02  0.00000000000E+00 0.  1.
<mgrwt>
<rscale>  0 0.19953083E+04</rscale>
<asrwt>0</asrwt>
<pdfrwt beam="1">  1        2 0.11388245E+00 0.19953083E+04</pdfrwt>
<pdfrwt beam="2">  1       -2 0.20685999E+00 0.19953083E+04</pdfrwt>
<totfact> 0.42508610E+00</totfact>
</mgrwt>
</event>
<event>
12    3  0.4773567E-008  0.1893649E+04  0.7818608E-02  0.8658024E-01
         -1   -1    0    0    0  501 -0.00000000000E+00  0.00000000000E+00  0.36110214849E+03  0.36110214849E+03  0.00000000000E+00 0.  1.
          1   -1    0    0  501    0  0.00000000000E+00 -0.00000000000E+00 -0.24826109876E+04  0.24826109876E+04  0.00000000000E+00 0. -1.
         23    2    1    2    0    0  0.23950200417E+02  0.14217093265E+03  0.24797134795E+03  0.30092498106E+03  0.90993783479E+02 0.  0.
        254    2    1    2    0    0 -0.23950200417E+02 -0.14217093265E+03 -0.23694801871E+04  0.25427881551E+04  0.91134464303E+03 0.  0.
         23    2    4    4    0    0  0.37175524853E+03 -0.23391614193E+03 -0.16683801260E+04  0.17277086485E+04  0.92553785012E+02 0.  0.
         23    2    4    4    0    0 -0.39570544894E+03  0.91745209275E+02 -0.70110006110E+03  0.81507950655E+03  0.88392989419E+02 0.  0.
          2    1    3    3  502    0 -0.67952058902E+01  0.11686078509E+02 -0.51736706483E+01  0.14474326305E+02  0.00000000000E+00 0. -1.
         -2    1    3    3    0  502  0.30745406307E+02  0.13048485414E+03  0.25314501859E+03  0.28645065475E+03  0.00000000000E+00 0.  1.
         13    1    5    5    0    0  0.20074539578E+03 -0.76180840761E+02 -0.73025609230E+03  0.76116765221E+03  0.00000000000E+00 0.  1.
        -13    1    5    5    0    0  0.17100985274E+03 -0.15773530117E+03 -0.93812403369E+03  0.96654099631E+03  0.00000000000E+00 0. -1.
          4    1    6    6  503    0 -0.37466557779E+02 -0.14145800795E+02 -0.95147790563E+02  0.10323249818E+03  0.00000000000E+00 0. -1.
         -4    1    6    6    0  503 -0.35823889116E+03  0.10589101007E+03 -0.60595227054E+03  0.71184700837E+03  0.00000000000E+00 0.  1.
<mgrwt>
<rscale>  0 0.18936485E+04</rscale>
<asrwt>0</asrwt>
<pdfrwt beam="1">  1        1 0.38194015E+00 0.18936485E+04</pdfrwt>
<pdfrwt beam="2">  1       -1 0.55554177E-01 0.18936485E+04</pdfrwt>
<totfact> 0.42755167E+00</totfact>
</mgrwt>
</event>
<event>
12    3  0.4773567E-008  0.1725767E+04  0.7818608E-02  0.8746803E-01
          2   -1    0    0  501    0  0.00000000000E+00  0.00000000000E+00  0.34263289858E+04  0.34263289858E+04  0.00000000000E+00 0. -1.
         -2   -1    0    0    0  501 -0.00000000000E+00 -0.00000000000E+00 -0.21730789544E+03  0.21730789544E+03  0.00000000000E+00 0.  1.
         23    2    1    2    0    0 -0.10987073474E+03 -0.29048958515E+03  0.23070410584E+04  0.23296389562E+04  0.91232908260E+02 0.  0.
        254    2    1    2    0    0  0.10987073474E+03  0.29048958515E+03  0.90198003191E+03  0.13139979250E+04  0.90364085319E+03 0.  0.
         23    2    4    4    0    0 -0.11807939233E+03  0.72832624057E+02  0.96552277336E+03  0.97964101561E+03  0.90636414130E+02 0.  0.
         23    2    4    4    0    0  0.22795012707E+03  0.21765696110E+03 -0.63542741448E+02  0.33435690941E+03  0.91766277771E+02 0.  0.
          2    1    3    3  502    0 -0.39129212716E+02 -0.40234597266E+02  0.24990618851E+03  0.25613086725E+03  0.00000000000E+00 0.  1.
         -2    1    3    3    0  502 -0.70741522020E+02 -0.25025498789E+03  0.20571348699E+04  0.20735080890E+04  0.00000000000E+00 0. -1.
         13    1    5    5    0    0  0.95042014100E+01 -0.67731502292E+01  0.14366520212E+03  0.14413846020E+03  0.00000000000E+00 0. -1.
        -13    1    5    5    0    0 -0.12758359374E+03  0.79605774286E+02  0.82185757124E+03  0.83550255541E+03  0.00000000000E+00 0.  1.
          3    1    6    6  503    0  0.27616055546E+02  0.81462665275E+02 -0.16126846996E+02  0.87515070426E+02  0.00000000000E+00 0. -1.
         -3    1    6    6    0  503  0.20033407152E+03  0.13619429582E+03 -0.47415894452E+02  0.24684183898E+03  0.00000000000E+00 0.  1.
<mgrwt>
<rscale>  0 0.17257675E+04</rscale>
<asrwt>0</asrwt>
<pdfrwt beam="1">  1        2 0.52712750E+00 0.17257675E+04</pdfrwt>
<pdfrwt beam="2">  1       -2 0.33431986E-01 0.17257675E+04</pdfrwt>
<totfact> 0.73247813E+00</totfact>
</mgrwt>
</event>
<event>
12    3  0.4773567E-008  0.2355747E+04  0.7818608E-02  0.8456260E-01
          2   -1    0    0  501    0  0.00000000000E+00  0.00000000000E+00  0.23360466508E+04  0.23360466508E+04  0.00000000000E+00 0. -1.
         -2   -1    0    0    0  501 -0.00000000000E+00 -0.00000000000E+00 -0.59390325748E+03  0.59390325748E+03  0.00000000000E+00 0.  1.
         23    2    1    2    0    0 -0.63133898585E+03 -0.77488812550E+03  0.57572635135E+03  0.11570591537E+04  0.91019401162E+02 0.  0.
        254    2    1    2    0    0  0.63133898585E+03  0.77488812550E+03  0.11664170420E+04  0.17728907546E+04  0.88519624370E+03 0.  0.
         23    2    4    4    0    0  0.53140774376E+02  0.11517867772E+03  0.80439782770E+03  0.81930520588E+03  0.90083769156E+02 0.  0.
         23    2    4    4    0    0  0.57819821147E+03  0.65970944778E+03  0.36201921426E+03  0.95358554872E+03  0.93475986192E+02 0.  0.
          3    1    3    3  502    0 -0.22092049368E+03 -0.29876427758E+03  0.16784258937E+03  0.40772183274E+03  0.00000000000E+00 0. -1.
         -3    1    3    3    0  502 -0.41041849217E+03 -0.47612384792E+03  0.40788376197E+03  0.74933732094E+03  0.00000000000E+00 0.  1.
         13    1    5    5    0    0  0.61868941998E+02  0.78461215689E+02  0.36946209358E+03  0.38273511329E+03  0.00000000000E+00 0.  1.
        -13    1    5    5    0    0 -0.87281676219E+01  0.36717462030E+02  0.43493573412E+03  0.43657009259E+03  0.00000000000E+00 0. -1.
          2    1    6    6  503    0  0.27532374737E+03  0.27054450898E+03  0.19847265235E+03  0.43403789113E+03  0.00000000000E+00 0. -1.
         -2    1    6    6    0  503  0.30287446411E+03  0.38916493879E+03  0.16354656191E+03  0.51954765759E+03  0.00000000000E+00 0.  1.
<mgrwt>
<rscale>  0 0.23557468E+04</rscale>
<asrwt>0</asrwt>
<pdfrwt beam="1">  1        2 0.35939179E+00 0.23557468E+04</pdfrwt>
<pdfrwt beam="2">  1       -2 0.91369733E-01 0.23557468E+04</pdfrwt>
<totfact> 0.39824320E+00</totfact>
</mgrwt>
</event>
<event>
12    3  0.4773567E-008  0.1487518E+04  0.7818608E-02  0.8892796E-01
          1   -1    0    0  501    0  0.00000000000E+00  0.00000000000E+00  0.14873198976E+04  0.14873198976E+04  0.00000000000E+00 0. -1.
         -1   -1    0    0    0  501 -0.00000000000E+00 -0.00000000000E+00 -0.37192890498E+03  0.37192890498E+03  0.00000000000E+00 0.  1.
         23    2    1    2    0    0 -0.41550602420E+02 -0.13597087217E+03 -0.19959195644E+03  0.25974514023E+03  0.86116538242E+02 0.  0.
        254    2    1    2    0    0  0.41550602420E+02  0.13597087217E+03  0.13149829490E+04  0.15995036623E+04  0.89945387812E+03 0.  0.
         23    2    4    4    0    0 -0.32098219094E+03 -0.97400587117E+02  0.19896601900E+03  0.40001361599E+03  0.88921172911E+02 0.  0.
         23    2    4    4    0    0  0.36253279336E+03  0.23337145929E+03  0.11160169300E+04  0.11994900463E+04  0.85966963651E+02 0.  0.
          2    1    3    3  502    0 -0.54709040888E+02 -0.40811321607E+02 -0.10262140226E+03  0.12324688770E+03  0.00000000000E+00 0. -1.
         -2    1    3    3    0  502  0.13158438468E+02 -0.95159550562E+02 -0.96970554181E+02  0.13649825253E+03  0.00000000000E+00 0.  1.
         13    1    5    5    0    0 -0.29169805689E+03 -0.11419848702E+03  0.18026313654E+03  0.36141921535E+03  0.00000000000E+00 0.  1.
        -13    1    5    5    0    0 -0.29284134051E+02  0.16797899908E+02  0.18702882458E+02  0.38594400639E+02  0.00000000000E+00 0. -1.
          3    1    6    6  503    0  0.55816487561E+02  0.83003134214E+01  0.19481289892E+03  0.20282120469E+03  0.00000000000E+00 0. -1.
         -3    1    6    6    0  503  0.30671630580E+03  0.22507114586E+03  0.92120403111E+03  0.99666884163E+03  0.00000000000E+00 0.  1.
<mgrwt>
<rscale>  0 0.14875177E+04</rscale>
<asrwt>0</asrwt>
<pdfrwt beam="1">  1        1 0.22881844E+00 0.14875177E+04</pdfrwt>
<pdfrwt beam="2">  1       -1 0.57219832E-01 0.14875177E+04</pdfrwt>
<totfact> 0.19991113E+01</totfact>
</mgrwt>
</event>
<event>
12    3  0.4773567E-008  0.1111765E+04  0.7818608E-02  0.9193800E-01
          2   -1    0    0  501    0  0.00000000000E+00  0.00000000000E+00  0.16497429022E+04  0.16497429022E+04  0.00000000000E+00 0. -1.
         -2   -1    0    0    0  501 -0.00000000000E+00 -0.00000000000E+00 -0.18730513819E+03  0.18730513819E+03  0.00000000000E+00 0.  1.
         23    2    1    2    0    0 -0.78148568797E+02 -0.11279962195E+03  0.45296435341E+03  0.48112773841E+03  0.86465262945E+02 0.  0.
        254    2    1    2    0    0  0.78148568797E+02  0.11279962195E+03  0.10094734106E+04  0.13559203020E+04  0.89479178866E+03 0.  0.
         23    2    4    4    0    0  0.19694474788E+03  0.35861804760E+03  0.14314378044E+03  0.44310067700E+03  0.91945257094E+02 0.  0.
         23    2    4    4    0    0 -0.11879617908E+03 -0.24581842565E+03  0.86632963016E+03  0.91281962496E+03  0.90406908288E+02 0.  0.
          3    1    3    3  502    0 -0.89691881153E+02 -0.11685346127E+03  0.38801531997E+03  0.41503644838E+03  0.00000000000E+00 0. -1.
         -3    1    3    3    0  502  0.11543312357E+02  0.40538393180E+01  0.64949033439E+02  0.66091290032E+02  0.00000000000E+00 0.  1.
         13    1    5    5    0    0  0.52439194271E+02  0.12143466756E+03  0.37035653577E+01  0.13232522049E+03  0.00000000000E+00 0. -1.
        -13    1    5    5    0    0  0.14450555361E+03  0.23718338004E+03  0.13944021508E+03  0.31077545652E+03  0.00000000000E+00 0.  1.
          3    1    6    6  503    0 -0.86940672042E+02 -0.21842404656E+03  0.80389343769E+03  0.83756337296E+03  0.00000000000E+00 0. -1.
         -3    1    6    6    0  503 -0.31855507039E+02 -0.27394379083E+02  0.62436192473E+02  0.75256251997E+02  0.00000000000E+00 0.  1.
<mgrwt>
<rscale>  0 0.11117649E+04</rscale>
<asrwt>0</asrwt>
<pdfrwt beam="1">  1        2 0.25380659E+00 0.11117649E+04</pdfrwt>
<pdfrwt beam="2">  1       -2 0.28816176E-01 0.11117649E+04</pdfrwt>
<totfact> 0.11467934E+02</totfact>
</mgrwt>
</event>
<event>
12    3  0.4773567E-008  0.1417979E+04  0.7818608E-02  0.8940907E-01
          2   -1    0    0  501    0  0.00000000000E+00  0.00000000000E+00  0.35629644297E+03  0.35629644297E+03  0.00000000000E+00 0. -1.
         -2   -1    0    0    0  501 -0.00000000000E+00 -0.00000000000E+00 -0.14108079886E+04  0.14108079886E+04  0.00000000000E+00 0.  1.
         23    2    1    2    0    0 -0.39295456809E+03 -0.16222594175E+03 -0.19810115006E+03  0.47766818257E+03  0.90511204967E+02 0.  0.
        254    2    1    2    0    0  0.39295456809E+03  0.16222594175E+03 -0.85641039562E+03  0.12894362490E+04  0.86514537846E+03 0.  0.
         23    2    4    4    0    0  0.54634442854E+03  0.38579085834E+03 -0.64611527715E+03  0.93429587790E+03  0.90094478851E+02 0.  0.
         23    2    4    4    0    0 -0.15338986045E+03 -0.22356491659E+03 -0.21029511847E+03  0.35514037115E+03  0.91601993113E+02 0.  0.
          4    1    3    3  502    0 -0.13091791007E+03 -0.94490985695E+01 -0.63852381389E+02  0.14596544539E+03  0.00000000000E+00 0.  1.
         -4    1    3    3    0  502 -0.26203665802E+03 -0.15277684318E+03 -0.13424876867E+03  0.33170273717E+03  0.00000000000E+00 0. -1.
         13    1    5    5    0    0  0.33491317600E+02  0.74182712371E+00 -0.34696160038E+02  0.48229059533E+02  0.00000000000E+00 0.  1.
        -13    1    5    5    0    0  0.51285311094E+03  0.38504903122E+03 -0.61141911711E+03  0.88606681837E+03  0.00000000000E+00 0. -1.
          1    1    6    6  503    0 -0.15121802777E+03 -0.15299469265E+03 -0.14942574188E+03  0.26192044639E+03  0.00000000000E+00 0. -1.
         -1    1    6    6    0  503 -0.21718326888E+01 -0.70570223944E+02 -0.60869376600E+02  0.93219924760E+02  0.00000000000E+00 0.  1.
<mgrwt>
<rscale>  0 0.14179787E+04</rscale>
<asrwt>0</asrwt>
<pdfrwt beam="1">  1        2 0.54814837E-01 0.14179787E+04</pdfrwt>
<pdfrwt beam="2">  1       -2 0.21704738E+00 0.14179787E+04</pdfrwt>
<totfact> 0.90815637E+00</totfact>
</mgrwt>
</event>
<event>
12    3  0.4773567E-008  0.1418523E+04  0.7818608E-02  0.8940519E-01
         -2   -1    0    0    0  501 -0.00000000000E+00  0.00000000000E+00  0.21358800380E+03  0.21358800380E+03  0.00000000000E+00 0. -1.
          2   -1    0    0  501    0  0.00000000000E+00 -0.00000000000E+00 -0.23552441097E+04  0.23552441097E+04  0.00000000000E+00 0.  1.
         23    2    1    2    0    0  0.72194922597E+02 -0.20043427545E+03 -0.13076715644E+04  0.13282391272E+04  0.93958782966E+02 0.  0.
        254    2    1    2    0    0 -0.72194922597E+02  0.20043427545E+03 -0.83398454151E+03  0.12405929864E+04  0.89339506195E+03 0.  0.
         23    2    4    4    0    0  0.39353897474E+03  0.96705871993E+02 -0.26235733959E+03  0.49048601184E+03  0.86719108917E+02 0.  0.
         23    2    4    4    0    0 -0.46573389733E+03  0.10372840345E+03 -0.57162720192E+03  0.75010697453E+03  0.90747839969E+02 0.  0.
          1    1    3    3  502    0  0.23726986367E+01 -0.30481060105E+02 -0.62418902467E+02  0.69504274035E+02  0.00000000000E+00 0. -1.
         -1    1    3    3    0  502  0.69822223960E+02 -0.16995321534E+03 -0.12452526620E+04  0.12587348531E+04  0.00000000000E+00 0.  1.
         13    1    5    5    0    0  0.28663162286E+03  0.55829664564E+02 -0.14311585377E+03  0.32520268490E+03  0.00000000000E+00 0. -1.
        -13    1    5    5    0    0  0.10690735188E+03  0.40876207429E+02 -0.11924148583E+03  0.16528332693E+03  0.00000000000E+00 0.  1.
          3    1    6    6  503    0 -0.30407040491E+03  0.23010232416E+02 -0.36480119920E+03  0.47546629415E+03  0.00000000000E+00 0. -1.
         -3    1    6    6    0  503 -0.16166349243E+03  0.80718171037E+02 -0.20682600272E+03  0.27464068038E+03  0.00000000000E+00 0.  1.
<mgrwt>
<rscale>  0 0.14185230E+04</rscale>
<asrwt>0</asrwt>
<pdfrwt beam="1">  1        2 0.36234521E+00 0.14185230E+04</pdfrwt>
<pdfrwt beam="2">  1       -2 0.32859696E-01 0.14185230E+04</pdfrwt>
<totfact> 0.35498452E+01</totfact>
</mgrwt>
</event>
<event>
12    3  0.4773567E-008  0.1653620E+04  0.7818608E-02  0.8788268E-01
          1   -1    0    0  501    0  0.00000000000E+00  0.00000000000E+00  0.80767643967E+03  0.80767643967E+03  0.00000000000E+00 0. -1.
         -1   -1    0    0    0  501 -0.00000000000E+00 -0.00000000000E+00 -0.84639702264E+03  0.84639702264E+03  0.00000000000E+00 0.  1.
         23    2    1    2    0    0  0.33855566585E+03 -0.28238108549E+03  0.35725589292E+03  0.57486878377E+03  0.92104990111E+02 0.  0.
        254    2    1    2    0    0 -0.33855566585E+03  0.28238108549E+03 -0.39597647590E+03  0.10792046785E+04  0.90195695707E+03 0.  0.
         23    2    4    4    0    0 -0.20443589108E+03  0.49221344228E+03 -0.55098204799E+03  0.77195284564E+03  0.90894842327E+02 0.  0.
         23    2    4    4    0    0 -0.13411977477E+03 -0.20983235679E+03  0.15500557209E+03  0.30725183290E+03  0.91428822042E+02 0.  0.
          3    1    3    3  502    0 -0.33664753829E+01 -0.33742174474E+01  0.16890205357E+02  0.17549858600E+02  0.00000000000E+00 0. -1.
         -3    1    3    3    0  502  0.34192214123E+03 -0.27900686804E+03  0.34036568757E+03  0.55731892517E+03  0.00000000000E+00 0.  1.
         13    1    5    5    0    0 -0.18646071097E+03  0.34618617141E+03 -0.41295022753E+03  0.57021079649E+03  0.00000000000E+00 0.  1.
        -13    1    5    5    0    0 -0.17975180108E+02  0.14602727087E+03 -0.13803182046E+03  0.20174204915E+03  0.00000000000E+00 0. -1.
          4    1    6    6  503    0 -0.89309379539E+02 -0.61821549272E+02  0.45512914351E+02  0.11776881846E+03  0.00000000000E+00 0. -1.
         -4    1    6    6    0  503 -0.44810395232E+02 -0.14801080752E+03  0.10949265774E+03  0.18948301444E+03  0.00000000000E+00 0.  1.
<mgrwt>
<rscale>  0 0.16536202E+04</rscale>
<asrwt>0</asrwt>
<pdfrwt beam="1">  1        1 0.12425791E+00 0.16536202E+04</pdfrwt>
<pdfrwt beam="2">  1       -1 0.13021493E+00 0.16536202E+04</pdfrwt>
<totfact> 0.10505919E+01</totfact>
</mgrwt>
</event>
<event>
12    3  0.4773567E-008  0.1334272E+04  0.7818608E-02  0.9002820E-01
         -1   -1    0    0    0  501 -0.00000000000E+00  0.00000000000E+00  0.50724534882E+03  0.50724534882E+03  0.00000000000E+00 0.  1.
          1   -1    0    0  501    0  0.00000000000E+00 -0.00000000000E+00 -0.87742646666E+03  0.87742646666E+03  0.00000000000E+00 0. -1.
         23    2    1    2    0    0 -0.31537344838E+03 -0.12546661403E+03  0.51091245577E+01  0.35131097972E+03  0.90504243736E+02 0.  0.
        254    2    1    2    0    0  0.31537344838E+03  0.12546661403E+03 -0.37529024240E+03  0.10333608358E+04  0.90099365574E+03 0.  0.
         23    2    4    4    0    0 -0.28512885857E+03  0.16604046225E+03 -0.21333360312E+03  0.40337906523E+03  0.91299194673E+02 0.  0.
         23    2    4    4    0    0  0.60050230695E+03 -0.40573848220E+02 -0.16195663928E+03  0.62998177054E+03  0.91639622378E+02 0.  0.
          3    1    3    3  502    0 -0.17888861502E+03 -0.49317965701E+02 -0.37505885293E+02  0.18931479012E+03  0.00000000000E+00 0. -1.
         -3    1    3    3    0  502 -0.13648483336E+03 -0.76148648331E+02  0.42615009851E+02  0.16199618960E+03  0.00000000000E+00 0.  1.
         13    1    5    5    0    0 -0.95445067656E+02  0.51182336673E+02 -0.22041587151E+02  0.11052250491E+03  0.00000000000E+00 0. -1.
        -13    1    5    5    0    0 -0.18968379092E+03  0.11485812558E+03 -0.19129201597E+03  0.29285656032E+03  0.00000000000E+00 0.  1.
          1    1    6    6  503    0  0.22914779166E+03  0.25554820616E+02 -0.79397085348E+02  0.24385581076E+03  0.00000000000E+00 0. -1.
         -1    1    6    6    0  503  0.37135451529E+03 -0.66128668836E+02 -0.82559553932E+02  0.38612595978E+03  0.00000000000E+00 0.  1.
<mgrwt>
<rscale>  0 0.13342721E+04</rscale>
<asrwt>0</asrwt>
<pdfrwt beam="1">  1        1 0.13498869E+00 0.13342721E+04</pdfrwt>
<pdfrwt beam="2">  1       -1 0.78037747E-01 0.13342721E+04</pdfrwt>
<totfact> 0.30622026E+01</totfact>
</mgrwt>
</event>
<event>
12    3  0.4773567E-008  0.1706435E+04  0.7818608E-02  0.8757703E-01
         -2   -1    0    0    0  501 -0.00000000000E+00  0.00000000000E+00  0.46558083574E+03  0.46558083574E+03  0.00000000000E+00 0.  1.
          2   -1    0    0  501    0  0.00000000000E+00 -0.00000000000E+00 -0.15635954210E+04  0.15635954210E+04  0.00000000000E+00 0. -1.
         23    2    1    2    0    0 -0.77735750478E+02 -0.60311512963E+03 -0.32670229845E+03  0.69676945996E+03  0.94670914370E+02 0.  0.
        254    2    1    2    0    0  0.77735750478E+02  0.60311512963E+03 -0.77131228685E+03  0.13324067968E+04  0.90033022935E+03 0.  0.
         23    2    4    4    0    0  0.35761041848E+03  0.25087362260E+03 -0.14167290520E+02  0.44666649076E+03  0.92127389667E+02 0.  0.
         23    2    4    4    0    0 -0.27987466800E+03  0.35224150704E+03 -0.75714499633E+03  0.88574030606E+03  0.94145819051E+02 0.  0.
          1    1    3    3  502    0 -0.43523776066E+02 -0.11389967264E+03 -0.38124901526E+02  0.12775352295E+03  0.00000000000E+00 0. -1.
         -1    1    3    3    0  502 -0.34211974413E+02 -0.48921545699E+03 -0.28857739693E+03  0.56901593701E+03  0.00000000000E+00 0.  1.
         13    1    5    5    0    0  0.29370054109E+03  0.15775538959E+03 -0.61768773949E+01  0.33344403517E+03  0.00000000000E+00 0.  1.
        -13    1    5    5    0    0  0.63909877395E+02  0.93118233008E+02 -0.79904131247E+01  0.11322245559E+03  0.00000000000E+00 0. -1.
          2    1    6    6  503    0 -0.23872419486E+03  0.24833276031E+03 -0.61524836440E+03  0.70511626769E+03  0.00000000000E+00 0. -1.
         -2    1    6    6    0  503 -0.41150473139E+02  0.10390874673E+03 -0.14189663192E+03  0.18062403837E+03  0.00000000000E+00 0.  1.
<mgrwt>
<rscale>  0 0.17064350E+04</rscale>
<asrwt>0</asrwt>
<pdfrwt beam="1">  1        2 0.24055314E+00 0.17064350E+04</pdfrwt>
<pdfrwt beam="2">  1       -2 0.71627822E-01 0.17064350E+04</pdfrwt>
<totfact> 0.19648115E+01</totfact>
</mgrwt>
</event>
<event>
12    3  0.4773567E-008  0.1999390E+04  0.7818608E-02  0.8606906E-01
          1   -1    0    0  501    0  0.00000000000E+00  0.00000000000E+00  0.12651559267E+04  0.12651559267E+04  0.00000000000E+00 0. -1.
         -1   -1    0    0    0  501 -0.00000000000E+00 -0.00000000000E+00 -0.78993423168E+03  0.78993423168E+03  0.00000000000E+00 0.  1.
         23    2    1    2    0    0  0.55200657725E+03 -0.39398293862E+03 -0.23330580700E+03  0.72305580448E+03  0.91892761190E+02 0.  0.
        254    2    1    2    0    0 -0.55200657725E+03  0.39398293862E+03  0.70852750205E+03  0.13320343539E+04  0.90131597213E+03 0.  0.
         23    2    4    4    0    0  0.22309248762E+03  0.17201178788E+03  0.81189911009E+02  0.30629545030E+03  0.88694915422E+02 0.  0.
         23    2    4    4    0    0 -0.77509906487E+03  0.22197115074E+03  0.62733759104E+03  0.10257389036E+04  0.92401802744E+02 0.  0.
          3    1    3    3  502    0  0.19551252649E+03 -0.97849190256E+02 -0.47390051947E+02  0.22370835718E+03  0.00000000000E+00 0. -1.
         -3    1    3    3    0  502  0.35649405076E+03 -0.29613374837E+03 -0.18591575505E+03  0.49934744730E+03  0.00000000000E+00 0.  1.
         13    1    5    5    0    0  0.23108252996E+03  0.16067998708E+03  0.76657483169E+02  0.29170801090E+03  0.00000000000E+00 0. -1.
        -13    1    5    5    0    0 -0.79900423383E+01  0.11331800803E+02  0.45324278399E+01  0.14587439396E+02  0.00000000000E+00 0.  1.
          3    1    6    6  503    0 -0.47450493108E+03  0.13112981520E+03  0.32545402206E+03  0.59014428619E+03  0.00000000000E+00 0. -1.
         -3    1    6    6    0  503 -0.30059413379E+03  0.90841335535E+02  0.30188356898E+03  0.43559461743E+03  0.00000000000E+00 0.  1.
<mgrwt>
<rscale>  0 0.19993899E+04</rscale>
<asrwt>0</asrwt>
<pdfrwt beam="1">  1        1 0.19463937E+00 0.19993899E+04</pdfrwt>
<pdfrwt beam="2">  1       -1 0.12152834E+00 0.19993899E+04</pdfrwt>
<totfact> 0.53349860E+00</totfact>
</mgrwt>
</event>
<event>
12    3  0.4773567E-008  0.1597730E+04  0.7818608E-02  0.8821944E-01
         -1   -1    0    0    0  501 -0.00000000000E+00  0.00000000000E+00  0.30927111422E+03  0.30927111422E+03  0.00000000000E+00 0.  1.
          1   -1    0    0  501    0  0.00000000000E+00 -0.00000000000E+00 -0.20635135217E+04  0.20635135217E+04  0.00000000000E+00 0. -1.
         23    2    1    2    0    0 -0.13908743558E+01  0.49417661405E+03 -0.91985396480E+03  0.10489273058E+04  0.99522438837E+02 0.  0.
        254    2    1    2    0    0  0.13908743558E+01 -0.49417661405E+03 -0.83438844265E+03  0.13238573301E+04  0.90121123876E+03 0.  0.
         23    2    4    4    0    0 -0.24932847724E+03 -0.12338745805E+03  0.75594063009E+02  0.30526580002E+03  0.10041708984E+03 0.  0.
         23    2    4    4    0    0  0.25071935160E+03 -0.37078915600E+03 -0.90998250566E+03  0.10185915301E+04  0.95476453119E+02 0.  0.
          2    1    3    3  502    0  0.11332196903E+02  0.15112622475E+03 -0.38076775328E+03  0.40981902888E+03  0.00000000000E+00 0. -1.
         -2    1    3    3    0  502 -0.12723071259E+02  0.34305038930E+03 -0.53908621152E+03  0.63910827689E+03  0.00000000000E+00 0.  1.
         13    1    5    5    0    0 -0.24062952236E+03 -0.90487103898E+02  0.48157596217E+02  0.26155236010E+03  0.00000000000E+00 0.  1.
        -13    1    5    5    0    0 -0.86989548862E+01 -0.32900354156E+02  0.27436466792E+02  0.43713439921E+02  0.00000000000E+00 0. -1.
          1    1    6    6  503    0 -0.23670159430E+01 -0.32425816094E+02 -0.97893091824E+02  0.10315083005E+03  0.00000000000E+00 0. -1.
         -1    1    6    6    0  503  0.25308636754E+03 -0.33836333990E+03 -0.81208941384E+03  0.91544070004E+03  0.00000000000E+00 0.  1.
<mgrwt>
<rscale>  0 0.15977298E+04</rscale>
<asrwt>0</asrwt>
<pdfrwt beam="1">  1        1 0.31746363E+00 0.15977298E+04</pdfrwt>
<pdfrwt beam="2">  1       -1 0.47580170E-01 0.15977298E+04</pdfrwt>
<totfact> 0.11426739E+01</totfact>
</mgrwt>
</event>
<event>
12    3  0.4773567E-008  0.1416908E+04  0.7818608E-02  0.8941670E-01
         -1   -1    0    0    0  501 -0.00000000000E+00  0.00000000000E+00  0.33833918543E+03  0.33833918543E+03  0.00000000000E+00 0.  1.
          1   -1    0    0  501    0  0.00000000000E+00 -0.00000000000E+00 -0.14834429325E+04  0.14834429325E+04  0.00000000000E+00 0. -1.
         23    2    1    2    0    0  0.26707796944E+03  0.26214720158E+03 -0.12320955889E+03  0.41320788824E+03  0.12453259189E+03 0.  0.
        254    2    1    2    0    0 -0.26707796944E+03 -0.26214720158E+03 -0.10218941882E+04  0.14085742297E+04  0.89429404097E+03 0.  0.
         23    2    4    4    0    0 -0.15492263096E+02 -0.27709537049E+02  0.15212282926E+03  0.18111727134E+03  0.93028394243E+02 0.  0.
         23    2    4    4    0    0 -0.25158570634E+03 -0.23443766453E+03 -0.11740170175E+04  0.12274569584E+04  0.10039044377E+03 0.  0.
          4    1    3    3  502    0  0.34378483084E+02  0.51975210859E+02 -0.72450960651E+02  0.95563823397E+02  0.00000000000E+00 0. -1.
         -4    1    3    3    0  502  0.23269948635E+03  0.21017199072E+03 -0.50758598243E+02  0.31764406484E+03  0.00000000000E+00 0.  1.
         13    1    5    5    0    0 -0.19538584966E+02 -0.28612368761E+02  0.16447669829E+03  0.16808631184E+03  0.00000000000E+00 0. -1.
        -13    1    5    5    0    0  0.40463218706E+01  0.90283171156E+00 -0.12353869021E+02  0.13030959503E+02  0.00000000000E+00 0.  1.
          1    1    6    6  503    0 -0.16071581948E+03 -0.99542252299E+02 -0.74594068880E+03  0.76952306387E+03  0.00000000000E+00 0. -1.
         -1    1    6    6    0  503 -0.90869886858E+02 -0.13489541223E+03 -0.42807632867E+03  0.45793389451E+03  0.00000000000E+00 0.  1.
<mgrwt>
<rscale>  0 0.14169077E+04</rscale>
<asrwt>0</asrwt>
<pdfrwt beam="1">  1        1 0.22822199E+00 0.14169077E+04</pdfrwt>
<pdfrwt beam="2">  1       -1 0.52052182E-01 0.14169077E+04</pdfrwt>
<totfact> 0.24307179E+01</totfact>
</mgrwt>
</event>
<event>
12    3  0.4773567E-008  0.1890960E+04  0.7818608E-02  0.8659369E-01
          1   -1    0    0  501    0  0.00000000000E+00  0.00000000000E+00  0.17534906144E+04  0.17534906144E+04  0.00000000000E+00 0. -1.
         -1   -1    0    0    0  501 -0.00000000000E+00 -0.00000000000E+00 -0.50980175439E+03  0.50980175439E+03  0.00000000000E+00 0.  1.
         23    2    1    2    0    0 -0.16579008884E+03 -0.19852004344E+03 -0.33176304197E+03  0.43044064534E+03  0.91191402779E+02 0.  0.
        254    2    1    2    0    0  0.16579008884E+03  0.19852004344E+03  0.15754519019E+04  0.18328517234E+04  0.90022229671E+03 0.  0.
         23    2    4    4    0    0  0.10520786777E+01  0.11965996835E+03 -0.75665129375E+02  0.16929198732E+03  0.92816756426E+02 0.  0.
         23    2    4    4    0    0  0.16473801016E+03  0.78860075089E+02  0.16511170313E+04  0.16635597361E+04  0.88803271380E+02 0.  0.
          1    1    3    3  502    0 -0.41845532841E+02 -0.11975252773E+03 -0.14034218957E+03  0.18917623183E+03  0.00000000000E+00 0. -1.
         -1    1    3    3    0  502 -0.12394455600E+03 -0.78767515706E+02 -0.19142085240E+03  0.24126441351E+03  0.00000000000E+00 0.  1.
         13    1    5    5    0    0  0.21634306590E+01 -0.80455616475E+01  0.11841050994E+02  0.14478328049E+02  0.00000000000E+00 0.  1.
        -13    1    5    5    0    0 -0.11113519813E+01  0.12770553000E+03 -0.87506180369E+02  0.15481365927E+03  0.00000000000E+00 0. -1.
          1    1    6    6  503    0  0.12649437011E+03  0.72042431812E+02  0.15158907278E+04  0.15228642868E+04  0.00000000000E+00 0. -1.
         -1    1    6    6    0  503  0.38243640051E+02  0.68176432769E+01  0.13522630356E+03  0.14069544925E+03  0.00000000000E+00 0.  1.
<mgrwt>
<rscale>  0 0.18909602E+04</rscale>
<asrwt>0</asrwt>
<pdfrwt beam="1">  1        1 0.26976779E+00 0.18909602E+04</pdfrwt>
<pdfrwt beam="2">  1       -1 0.78431040E-01 0.18909602E+04</pdfrwt>
<totfact> 0.66751766E+00</totfact>
</mgrwt>
</event>
<event>
12    3  0.4773567E-008  0.2840617E+04  0.7818608E-02  0.8290768E-01
         -1   -1    0    0    0  501 -0.00000000000E+00  0.00000000000E+00  0.15049813040E+04  0.15049813040E+04  0.00000000000E+00 0.  1.
          1   -1    0    0  501    0  0.00000000000E+00 -0.00000000000E+00 -0.13403995618E+04  0.13403995618E+04  0.00000000000E+00 0. -1.
         23    2    1    2    0    0 -0.72752461876E+03  0.68955168604E+03 -0.71727471328E+03  0.12358419421E+04  0.89714508178E+02 0.  0.
        254    2    1    2    0    0  0.72752461876E+03 -0.68955168604E+03  0.88185645558E+03  0.16095389237E+04  0.89898339249E+03 0.  0.
         23    2    4    4    0    0  0.48036169561E+03  0.98158637420E+02  0.20899974438E+03  0.54073440106E+03  0.91270601081E+02 0.  0.
         23    2    4    4    0    0  0.24716292314E+03 -0.78771032346E+03  0.67285671120E+03  0.10688045226E+04  0.89609650731E+02 0.  0.
          2    1    3    3  502    0 -0.32060027461E+03  0.36041413919E+03 -0.36615254349E+03  0.60559935015E+03  0.00000000000E+00 0. -1.
         -2    1    3    3    0  502 -0.40692434415E+03  0.32913754685E+03 -0.35112216979E+03  0.63024259197E+03  0.00000000000E+00 0.  1.
         13    1    5    5    0    0  0.34426914250E+03  0.10462367287E+03  0.12621941425E+03  0.38131180933E+03  0.00000000000E+00 0.  1.
        -13    1    5    5    0    0  0.13609255312E+03 -0.64650354461E+01  0.82780330124E+02  0.15942259173E+03  0.00000000000E+00 0. -1.
          4    1    6    6  503    0  0.21021853380E+02 -0.15179156591E+03  0.15626413689E+03  0.21886314966E+03  0.00000000000E+00 0. -1.
         -4    1    6    6    0  503  0.22614106976E+03 -0.63591875755E+03  0.51659257431E+03  0.84994137296E+03  0.00000000000E+00 0.  1.
<mgrwt>
<rscale>  0 0.28406170E+04</rscale>
<asrwt>0</asrwt>
<pdfrwt beam="1">  1        1 0.20621532E+00 0.28406170E+04</pdfrwt>
<pdfrwt beam="2">  1       -1 0.23153559E+00 0.28406170E+04</pdfrwt>
<totfact> 0.67338662E-01</totfact>
</mgrwt>
</event>
<event>
12    3  0.4773567E-008  0.1639246E+04  0.7818608E-02  0.8796794E-01
         -2   -1    0    0    0  501 -0.00000000000E+00  0.00000000000E+00  0.26801152935E+03  0.26801152935E+03  0.00000000000E+00 0. -1.
          2   -1    0    0  501    0  0.00000000000E+00 -0.00000000000E+00 -0.25065399209E+04  0.25065399209E+04  0.00000000000E+00 0.  1.
         23    2    1    2    0    0  0.37704166227E+02 -0.25201217549E+02 -0.17572785976E+04  0.17604826773E+04  0.95992092490E+02 0.  0.
        254    2    1    2    0    0 -0.37704166227E+02  0.25201217549E+02 -0.48124979391E+03  0.10140687730E+04  0.89144680527E+03 0.  0.
         23    2    4    4    0    0  0.40719068556E+03 -0.80176970838E+02 -0.19652107133E+03  0.46788349684E+03  0.89787716751E+02 0.  0.
         23    2    4    4    0    0 -0.44489485179E+03  0.10537818839E+03 -0.28472872258E+03  0.54618527611E+03  0.90619637171E+02 0.  0.
          3    1    3    3  502    0  0.60926894222E+02 -0.44902067566E+02 -0.12708087070E+04  0.12730605060E+04  0.00000000000E+00 0.  1.
         -3    1    3    3    0  502 -0.23222727995E+02  0.19700850018E+02 -0.48646989062E+03  0.48742217129E+03  0.00000000000E+00 0. -1.
         13    1    5    5    0    0  0.13434212114E+03  0.15511298394E+02 -0.55408616434E+02  0.14614554617E+03  0.00000000000E+00 0. -1.
        -13    1    5    5    0    0  0.27284856442E+03 -0.95688269232E+02 -0.14111245490E+03  0.32173795067E+03  0.00000000000E+00 0.  1.
          4    1    6    6  503    0 -0.12558924667E+02  0.48719791418E+01 -0.33608408280E+02  0.36207566567E+02  0.00000000000E+00 0. -1.
         -4    1    6    6    0  503 -0.43233592712E+03  0.10050620924E+03 -0.25112031430E+03  0.50997770954E+03  0.00000000000E+00 0.  1.
<mgrwt>
<rscale>  0 0.16392457E+04</rscale>
<asrwt>0</asrwt>
<pdfrwt beam="1">  1        2 0.38562150E+00 0.16392457E+04</pdfrwt>
<pdfrwt beam="2">  1       -2 0.41232546E-01 0.16392457E+04</pdfrwt>
<totfact> 0.18418373E+01</totfact>
</mgrwt>
</event>
<event>
12    3  0.4773567E-008  0.1561437E+04  0.7818608E-02  0.8844595E-01
         -2   -1    0    0    0  501 -0.00000000000E+00  0.00000000000E+00  0.23099982581E+03  0.23099982581E+03  0.00000000000E+00 0.  1.
          2   -1    0    0  501    0  0.00000000000E+00 -0.00000000000E+00 -0.26386226120E+04  0.26386226120E+04  0.00000000000E+00 0. -1.
         23    2    1    2    0    0 -0.13646818345E+03 -0.45343361130E+03 -0.12129261279E+04  0.13053677853E+04  0.92572447532E+02 0.  0.
        254    2    1    2    0    0  0.13646818345E+03  0.45343361130E+03 -0.11946966583E+04  0.15642546525E+04  0.89183345293E+03 0.  0.
         23    2    4    4    0    0 -0.23967788801E+03  0.46097854295E+03 -0.10002262094E+04  0.11306813310E+04  0.89672153533E+02 0.  0.
         23    2    4    4    0    0  0.37614607146E+03 -0.75449316441E+01 -0.19447044882E+03  0.43357332155E+03  0.92866983545E+02 0.  0.
          2    1    3    3  502    0 -0.11196589416E+03 -0.43387394263E+03 -0.11638871280E+04  0.12471632637E+04  0.00000000000E+00 0. -1.
         -2    1    3    3    0  502 -0.24502289286E+02 -0.19559668673E+02 -0.49038999925E+02  0.58204521581E+02  0.00000000000E+00 0.  1.
         13    1    5    5    0    0 -0.19752321938E+03  0.43435747862E+03 -0.89550145080E+03  0.10146943825E+04  0.00000000000E+00 0. -1.
        -13    1    5    5    0    0 -0.42154668626E+02  0.26621064326E+02 -0.10472475863E+03  0.11598694851E+03  0.00000000000E+00 0.  1.
          2    1    6    6  503    0  0.32414360595E+03 -0.15253612775E+02 -0.19924037088E+03  0.38078665335E+03  0.00000000000E+00 0. -1.
         -2    1    6    6    0  503  0.52002465505E+02  0.77086811313E+01  0.47699220607E+01  0.52786668202E+02  0.00000000000E+00 0.  1.
<mgrwt>
<rscale>  0 0.15614370E+04</rscale>
<asrwt>0</asrwt>
<pdfrwt beam="1">  1        2 0.40594193E+00 0.15614370E+04</pdfrwt>
<pdfrwt beam="2">  1       -2 0.35538435E-01 0.15614370E+04</pdfrwt>
<totfact> 0.20731332E+01</totfact>
</mgrwt>
</event>
<event>
12    3  0.4773567E-008  0.1927655E+04  0.7818608E-02  0.8641212E-01
          1   -1    0    0  501    0  0.00000000000E+00  0.00000000000E+00  0.97194835645E+03  0.97194835645E+03  0.00000000000E+00 0. -1.
         -1   -1    0    0    0  501 -0.00000000000E+00 -0.00000000000E+00 -0.95577428248E+03  0.95577428248E+03  0.00000000000E+00 0.  1.
         23    2    1    2    0    0  0.67696480017E+03 -0.24073525893E+03  0.21665558040E+03  0.75601687634E+03  0.91580954535E+02 0.  0.
        254    2    1    2    0    0 -0.67696480017E+03  0.24073525893E+03 -0.20048150643E+03  0.11717057626E+04  0.90358549906E+03 0.  0.
         23    2    4    4    0    0 -0.49128169573E+03 -0.24427904783E+03  0.99239679570E+02  0.56499384037E+03  0.91321234579E+02 0.  0.
         23    2    4    4    0    0 -0.18568310444E+03  0.48501430676E+03 -0.29972118600E+03  0.60671192222E+03  0.92463366757E+02 0.  0.
          1    1    3    3  502    0  0.43994589526E+03 -0.19210587992E+03  0.17220584839E+03  0.51001168033E+03  0.00000000000E+00 0. -1.
         -1    1    3    3    0  502  0.23701890491E+03 -0.48629379004E+02  0.44449732018E+02  0.24600519601E+03  0.00000000000E+00 0.  1.
         13    1    5    5    0    0 -0.16157810798E+03 -0.67818834873E+02 -0.96744641179E+01  0.17550063988E+03  0.00000000000E+00 0. -1.
        -13    1    5    5    0    0 -0.32970358774E+03 -0.17646021296E+03  0.10891414369E+03  0.38949320049E+03  0.00000000000E+00 0.  1.
          2    1    6    6  503    0 -0.14158480501E+03  0.44052844505E+03 -0.24523003899E+03  0.52368820870E+03  0.00000000000E+00 0. -1.
         -2    1    6    6    0  503 -0.44098299426E+02  0.44485861710E+02 -0.54491147009E+02  0.83023713520E+02  0.00000000000E+00 0.  1.
<mgrwt>
<rscale>  0 0.19276548E+04</rscale>
<asrwt>0</asrwt>
<pdfrwt beam="1">  1        1 0.14953052E+00 0.19276548E+04</pdfrwt>
<pdfrwt beam="2">  1       -1 0.14704220E+00 0.19276548E+04</pdfrwt>
<totfact> 0.54705109E+00</totfact>
</mgrwt>
</event>
<event>
12    3  0.4773567E-008  0.2094597E+04  0.7818608E-02  0.8563627E-01
          2   -1    0    0  501    0  0.00000000000E+00  0.00000000000E+00  0.14859415808E+04  0.14859415808E+04  0.00000000000E+00 0. -1.
         -2   -1    0    0    0  501 -0.00000000000E+00 -0.00000000000E+00 -0.73814051890E+03  0.73814051890E+03  0.00000000000E+00 0.  1.
         23    2    1    2    0    0  0.30410583606E+03 -0.77205103666E+03  0.48931271075E+03  0.96767262434E+03  0.91761736360E+02 0.  0.
        254    2    1    2    0    0 -0.30410583606E+03  0.77205103666E+03  0.25848835113E+03  0.12564094753E+04  0.90730666223E+03 0.  0.
         23    2    4    4    0    0 -0.34054213683E+03  0.59497778590E+03  0.56113169764E+03  0.89064901628E+03  0.91757154673E+02 0.  0.
         23    2    4    4    0    0  0.36436300771E+02  0.17707325076E+03 -0.30264334651E+03  0.36576045906E+03  0.97494502791E+02 0.  0.
          4    1    3    3  502    0  0.54247021318E+02 -0.17592661062E+03  0.15107999836E+03  0.23815557426E+03  0.00000000000E+00 0. -1.
         -4    1    3    3    0  502  0.24985881474E+03 -0.59612442604E+03  0.33823271239E+03  0.72951705008E+03  0.00000000000E+00 0.  1.
         13    1    5    5    0    0 -0.24203378242E+03  0.34153172860E+03  0.36494758041E+03  0.55534764780E+03  0.00000000000E+00 0.  1.
        -13    1    5    5    0    0 -0.98508354413E+02  0.25344605730E+03  0.19618411723E+03  0.33530136848E+03  0.00000000000E+00 0. -1.
          2    1    6    6  503    0  0.10707945258E+02  0.14633465123E+03 -0.28774772684E+03  0.32299728257E+03  0.00000000000E+00 0. -1.
         -2    1    6    6    0  503  0.25728355513E+02  0.30738599530E+02 -0.14895619671E+02  0.42763176494E+02  0.00000000000E+00 0.  1.
<mgrwt>
<rscale>  0 0.20945966E+04</rscale>
<asrwt>0</asrwt>
<pdfrwt beam="1">  1        2 0.22860640E+00 0.20945966E+04</pdfrwt>
<pdfrwt beam="2">  1       -2 0.11356008E+00 0.20945966E+04</pdfrwt>
<totfact> 0.72489219E+00</totfact>
</mgrwt>
</event>
<event>
12    3  0.4773567E-008  0.1511495E+04  0.7818608E-02  0.8876845E-01
         -1   -1    0    0    0  501 -0.00000000000E+00  0.00000000000E+00  0.42185218114E+03  0.42185218114E+03  0.00000000000E+00 0.  1.
          1   -1    0    0  501    0  0.00000000000E+00 -0.00000000000E+00 -0.13539200092E+04  0.13539200092E+04  0.00000000000E+00 0. -1.
         23    2    1    2    0    0  0.96745077860E+02  0.30807332412E+03 -0.74298034898E+03  0.81255058784E+03  0.62848036585E+02 0.  0.
        254    2    1    2    0    0 -0.96745077860E+02 -0.30807332412E+03 -0.18908747906E+03  0.96322160249E+03  0.88756577088E+03 0.  0.
         23    2    4    4    0    0  0.35508992069E+03  0.35856678744E+02 -0.54622991049E+02  0.37257107015E+03  0.91929200873E+02 0.  0.
         23    2    4    4    0    0 -0.45183499855E+03 -0.34393000286E+03 -0.13446448802E+03  0.59065053234E+03  0.91349001231E+02 0.  0.
          3    1    3    3  502    0  0.53322240268E+02  0.11212470249E+03 -0.34836170258E+03  0.36982575091E+03  0.00000000000E+00 0. -1.
         -3    1    3    3    0  502  0.43422837592E+02  0.19594862162E+03 -0.39461864640E+03  0.44272483692E+03  0.00000000000E+00 0.  1.
         13    1    5    5    0    0  0.33994456338E+03  0.44287623816E+02 -0.32339065817E+02  0.34433924402E+03  0.00000000000E+00 0. -1.
        -13    1    5    5    0    0  0.15145357317E+02 -0.84309450721E+01 -0.22283925232E+02  0.28231826133E+02  0.00000000000E+00 0.  1.
          3    1    6    6  503    0 -0.26501971710E+03 -0.14522475735E+03 -0.62783045693E+02  0.30865416152E+03  0.00000000000E+00 0. -1.
         -3    1    6    6    0  503 -0.18681528146E+03 -0.19870524552E+03 -0.71681442322E+02  0.28199637082E+03  0.00000000000E+00 0.  1.
<mgrwt>
<rscale>  0 0.15114948E+04</rscale>
<asrwt>0</asrwt>
<pdfrwt beam="1">  1        1 0.20829539E+00 0.15114948E+04</pdfrwt>
<pdfrwt beam="2">  1       -1 0.64900335E-01 0.15114948E+04</pdfrwt>
<totfact> 0.19262447E+01</totfact>
</mgrwt>
</event>
<event>
12    3  0.4773567E-008  0.1842604E+04  0.7818608E-02  0.8683966E-01
          2   -1    0    0  501    0  0.00000000000E+00  0.00000000000E+00  0.19541620953E+04  0.19541620953E+04  0.00000000000E+00 0. -1.
         -2   -1    0    0    0  501 -0.00000000000E+00 -0.00000000000E+00 -0.43435342958E+03  0.43435342958E+03  0.00000000000E+00 0.  1.
         23    2    1    2    0    0  0.24038368606E+03 -0.47050863940E+03 -0.87893120512E+00  0.53630118840E+03  0.91953770365E+02 0.  0.
        254    2    1    2    0    0 -0.24038368606E+03  0.47050863940E+03  0.15206875969E+04  0.18522143365E+04  0.91599371425E+03 0.  0.
         23    2    4    4    0    0 -0.12543494969E+03  0.51713621773E+03  0.15924317423E+04  0.16814742123E+04  0.91394083976E+02 0.  0.
         23    2    4    4    0    0 -0.11494873637E+03 -0.46627578329E+02 -0.71744145319E+02  0.17074012419E+03  0.92831161612E+02 0.  0.
          2    1    3    3  502    0  0.22440586110E+03 -0.46372910311E+03  0.10963953067E+02  0.51528912256E+03  0.00000000000E+00 0. -1.
         -2    1    3    3    0  502  0.15977824966E+02 -0.67795362952E+01 -0.11842884272E+02  0.21012065841E+02  0.00000000000E+00 0.  1.
         13    1    5    5    0    0 -0.49970179308E+02  0.15992436418E+03  0.38079236848E+03  0.41602361588E+03  0.00000000000E+00 0.  1.
        -13    1    5    5    0    0 -0.75464770380E+02  0.35721185355E+03  0.12116393738E+04  0.12654505964E+04  0.00000000000E+00 0. -1.
          1    1    6    6  503    0 -0.81291669545E+02 -0.39877747843E+02 -0.93454042294E+02  0.13012389608E+03  0.00000000000E+00 0. -1.
         -1    1    6    6    0  503 -0.33657066830E+02 -0.67498304865E+01  0.21709896975E+02  0.40616228109E+02  0.00000000000E+00 0.  1.
<mgrwt>
<rscale>  0 0.18426036E+04</rscale>
<asrwt>0</asrwt>
<pdfrwt beam="1">  1        2 0.30064032E+00 0.18426036E+04</pdfrwt>
<pdfrwt beam="2">  1       -2 0.66823606E-01 0.18426036E+04</pdfrwt>
<totfact> 0.13708410E+01</totfact>
</mgrwt>
</event>
<event>
12    3  0.4773567E-008  0.3571319E+04  0.7818608E-02  0.8097093E-01
         -2   -1    0    0    0  501 -0.00000000000E+00  0.00000000000E+00  0.17870637054E+04  0.17870637054E+04  0.00000000000E+00 0.  1.
          2   -1    0    0  501    0  0.00000000000E+00 -0.00000000000E+00 -0.17842566262E+04  0.17842566262E+04  0.00000000000E+00 0. -1.
         23    2    1    2    0    0 -0.58325968818E+03 -0.19525994728E+03 -0.15505872416E+04  0.16705979798E+04  0.90876320000E+02 0.  0.
        254    2    1    2    0    0  0.58325968818E+03  0.19525994728E+03  0.15533943209E+04  0.19007223518E+04  0.90630747079E+03 0.  0.
         23    2    4    4    0    0  0.29106738163E+03 -0.54430800367E+02  0.12763492217E+02  0.31022838995E+03  0.91628677379E+02 0.  0.
         23    2    4    4    0    0  0.29219230655E+03  0.24969074765E+03  0.15406308287E+04  0.15904939618E+04  0.91683580735E+02 0.  0.
          1    1    3    3  502    0 -0.38025827920E+03 -0.10218710437E+03 -0.10846162118E+04  0.11538764622E+04  0.00000000000E+00 0. -1.
         -1    1    3    3    0  502 -0.20300140899E+03 -0.93072842913E+02 -0.46597102982E+03  0.51672151762E+03  0.00000000000E+00 0.  1.
         13    1    5    5    0    0  0.28787428239E+03 -0.39472285373E+02  0.41144325938E+00  0.29056812121E+03  0.00000000000E+00 0.  1.
        -13    1    5    5    0    0  0.31930992388E+01 -0.14958514994E+02  0.12352048958E+02  0.19660268743E+02  0.00000000000E+00 0. -1.
          2    1    6    6  503    0  0.14456228209E+03  0.17845401607E+03  0.96738073227E+03  0.99426835935E+03  0.00000000000E+00 0. -1.
         -2    1    6    6    0  503  0.14763002446E+03  0.71236731579E+02  0.57325009639E+03  0.59622560248E+03  0.00000000000E+00 0.  1.
<mgrwt>
<rscale>  0 0.35713192E+04</rscale>
<asrwt>0</asrwt>
<pdfrwt beam="1">  1        2 0.27450102E+00 0.35713192E+04</pdfrwt>
<pdfrwt beam="2">  1       -2 0.27493288E+00 0.35713192E+04</pdfrwt>
<totfact> 0.32525049E-01</totfact>
</mgrwt>
</event>
<event>
12    3  0.4773567E-008  0.1899108E+04  0.7818608E-02  0.8655301E-01
         -2   -1    0    0    0  501 -0.00000000000E+00  0.00000000000E+00  0.15638206935E+04  0.15638206935E+04  0.00000000000E+00 0. -1.
          2   -1    0    0  501    0  0.00000000000E+00 -0.00000000000E+00 -0.57657041013E+03  0.57657041013E+03  0.00000000000E+00 0.  1.
         23    2    1    2    0    0  0.72773644000E+03 -0.68673261176E+02  0.30440292515E+03  0.79608726557E+03  0.82325273559E+02 0.  0.
        254    2    1    2    0    0 -0.72773644000E+03  0.68673261176E+02  0.68284735819E+03  0.13443038380E+04  0.89808460149E+03 0.  0.
         23    2    4    4    0    0 -0.36456856395E+03 -0.32618201724E+03  0.34993769665E+02  0.49828146644E+03  0.88061965015E+02 0.  0.
         23    2    4    4    0    0 -0.36316787604E+03  0.39485527842E+03  0.64785358853E+03  0.84602237159E+03  0.90763340423E+02 0.  0.
          4    1    3    3  502    0  0.50917962910E+03 -0.52838299222E+02  0.25294633209E+03  0.57099704682E+03  0.00000000000E+00 0. -1.
         -4    1    3    3    0  502  0.21855681090E+03 -0.15834961954E+02  0.51456593052E+02  0.22509021876E+03  0.00000000000E+00 0.  1.
         13    1    5    5    0    0 -0.39318928184E+01  0.36427282126E+01  0.69294359764E+01  0.87604984400E+01  0.00000000000E+00 0. -1.
        -13    1    5    5    0    0 -0.36063667113E+03 -0.32982474546E+03  0.28064333688E+02  0.48952096800E+03  0.00000000000E+00 0.  1.
          4    1    6    6  503    0 -0.49549701134E+02  0.17193599669E+02  0.50145467210E+02  0.72562804753E+02  0.00000000000E+00 0. -1.
         -4    1    6    6    0  503 -0.31361817491E+03  0.37766167875E+03  0.59770812132E+03  0.77345956683E+03  0.00000000000E+00 0.  1.
<mgrwt>
<rscale>  0 0.18991079E+04</rscale>
<asrwt>0</asrwt>
<pdfrwt beam="1">  1        2 0.88703141E-01 0.18991079E+04</pdfrwt>
<pdfrwt beam="2">  1       -2 0.24058780E+00 0.18991079E+04</pdfrwt>
<totfact> 0.35790552E+00</totfact>
</mgrwt>
</event>
<event>
12    3  0.4773567E-008  0.2184126E+04  0.7818608E-02  0.8525064E-01
         -1   -1    0    0    0  501 -0.00000000000E+00  0.00000000000E+00  0.85555236806E+03  0.85555236806E+03  0.00000000000E+00 0.  1.
          1   -1    0    0  501    0  0.00000000000E+00 -0.00000000000E+00 -0.13939555822E+04  0.13939555822E+04  0.00000000000E+00 0. -1.
         23    2    1    2    0    0  0.51342869432E+03 -0.47578659164E+01  0.54053038660E+03  0.75178239907E+03  0.96809169386E+02 0.  0.
        254    2    1    2    0    0 -0.51342869432E+03  0.47578659164E+01 -0.10789336008E+04  0.14977255512E+04  0.90302405865E+03 0.  0.
         23    2    4    4    0    0  0.11904834898E+03  0.22845493795E+03 -0.62589858797E+03  0.68314105907E+03  0.92566171451E+02 0.  0.
         23    2    4    4    0    0 -0.63247704330E+03 -0.22369707204E+03 -0.45303501281E+03  0.81458449217E+03  0.90772141691E+02 0.  0.
          1    1    3    3  502    0  0.26135657706E+03  0.43750709258E+02  0.29543314454E+03  0.39686537746E+03  0.00000000000E+00 0. -1.
         -1    1    3    3    0  502  0.25207211725E+03 -0.48508575174E+02  0.24509724206E+03  0.35491702161E+03  0.00000000000E+00 0.  1.
         13    1    5    5    0    0  0.98887222200E+01  0.46004636325E+02 -0.21949636655E+03  0.22448355913E+03  0.00000000000E+00 0. -1.
        -13    1    5    5    0    0  0.10915962676E+03  0.18245030163E+03 -0.40640222142E+03  0.45865749994E+03  0.00000000000E+00 0.  1.
          4    1    6    6  503    0 -0.40360900594E+03 -0.13175694431E+03 -0.23435176474E+03  0.48495450475E+03  0.00000000000E+00 0. -1.
         -4    1    6    6    0  503 -0.22886803736E+03 -0.91940127728E+02 -0.21868324807E+03  0.32962998741E+03  0.00000000000E+00 0.  1.
<mgrwt>
<rscale>  0 0.21841264E+04</rscale>
<asrwt>0</asrwt>
<pdfrwt beam="1">  1        1 0.21445470E+00 0.21841264E+04</pdfrwt>
<pdfrwt beam="2">  1       -1 0.13162344E+00 0.21841264E+04</pdfrwt>
<totfact> 0.34811436E+00</totfact>
</mgrwt>
</event>
<event>
12    3  0.4773567E-008  0.3026456E+04  0.7818608E-02  0.8236216E-01
          2   -1    0    0  501    0  0.00000000000E+00  0.00000000000E+00  0.31173651744E+04  0.31173651744E+04  0.00000000000E+00 0. -1.
         -2   -1    0    0    0  501 -0.00000000000E+00 -0.00000000000E+00 -0.73454966721E+03  0.73454966721E+03  0.00000000000E+00 0.  1.
         23    2    1    2    0    0  0.96979979734E+03 -0.62280767081E+03  0.12619508576E+03  0.11630460104E+04  0.91377135392E+02 0.  0.
        254    2    1    2    0    0 -0.96979979734E+03  0.62280767081E+03  0.22566204214E+04  0.26888688312E+04  0.89959925709E+03 0.  0.
         23    2    4    4    0    0 -0.10782844490E+04  0.71169180633E+03  0.20248008190E+04  0.24036977762E+04  0.93498996179E+02 0.  0.
         23    2    4    4    0    0  0.10848465170E+03 -0.88884135511E+02  0.23181960235E+03  0.28517105499E+03  0.88954445472E+02 0.  0.
          3    1    3    3  502    0  0.13271890377E+02 -0.18509172125E+02 -0.69532972712E+01  0.23813459847E+02  0.00000000000E+00 0. -1.
         -3    1    3    3    0  502  0.95652790696E+03 -0.60429849869E+03  0.13314838303E+03  0.11392325505E+04  0.00000000000E+00 0.  1.
         13    1    5    5    0    0 -0.49960098273E+03  0.38254565798E+03  0.95501110978E+03  0.11436732672E+04  0.00000000000E+00 0.  1.
        -13    1    5    5    0    0 -0.57868346631E+03  0.32914614834E+03  0.10697897092E+04  0.12600245090E+04  0.00000000000E+00 0. -1.
          3    1    6    6  503    0  0.11157166898E+03 -0.66048249965E+02  0.14133052459E+03  0.19179396712E+03  0.00000000000E+00 0. -1.
         -3    1    6    6    0  503 -0.30870172825E+01 -0.22835885547E+02  0.90489077768E+02  0.93377087874E+02  0.00000000000E+00 0.  1.
<mgrwt>
<rscale>  0 0.30264564E+04</rscale>
<asrwt>0</asrwt>
<pdfrwt beam="1">  1        2 0.47959463E+00 0.30264564E+04</pdfrwt>
<pdfrwt beam="2">  1       -2 0.11300764E+00 0.30264564E+04</pdfrwt>
<totfact> 0.77039006E-01</totfact>
</mgrwt>
</event>
<event>
12    3  0.4773567E-008  0.1772330E+04  0.7818608E-02  0.8721154E-01
         -2   -1    0    0    0  501 -0.00000000000E+00  0.00000000000E+00  0.22673349111E+03  0.22673349111E+03  0.00000000000E+00 0.  1.
          2   -1    0    0  501    0  0.00000000000E+00 -0.00000000000E+00 -0.34634880671E+04  0.34634880671E+04  0.00000000000E+00 0. -1.
         23    2    1    2    0    0 -0.23520480770E+03  0.51660533290E+03 -0.23264441783E+04  0.23964376126E+04  0.91478656129E+02 0.  0.
        254    2    1    2    0    0  0.23520480770E+03 -0.51660533290E+03 -0.91031039766E+03  0.12937839456E+04  0.72319396177E+03 0.  0.
         23    2    4    4    0    0  0.20364670023E+03 -0.64465491017E+03 -0.90552941691E+03  0.11336096582E+04  0.89640395283E+02 0.  0.
         23    2    4    4    0    0  0.31558107469E+02  0.12804957727E+03 -0.47809807505E+01  0.16017428747E+03  0.90776297590E+02 0.  0.
          4    1    3    3  502    0 -0.23285891376E+02  0.96790272022E+02 -0.29781231395E+03  0.31401077025E+03  0.00000000000E+00 0. -1.
         -4    1    3    3    0  502 -0.21191891633E+03  0.41981506088E+03 -0.20286318644E+04  0.20824268423E+04  0.00000000000E+00 0.  1.
         13    1    5    5    0    0  0.17684299396E+03 -0.44857757984E+03 -0.67935008803E+03  0.83307372528E+03  0.00000000000E+00 0.  1.
        -13    1    5    5    0    0  0.26803706272E+02 -0.19607733034E+03 -0.22617932888E+03  0.30053593288E+03  0.00000000000E+00 0. -1.
          4    1    6    6  503    0  0.29208281264E+02 -0.24788624582E+01 -0.42774713006E+01  0.29623727217E+02  0.00000000000E+00 0. -1.
         -4    1    6    6    0  503  0.23498262052E+01  0.13052843973E+03 -0.50350944995E+00  0.13055056026E+03  0.00000000000E+00 0.  1.
<mgrwt>
<rscale>  0 0.17723304E+04</rscale>
<asrwt>0</asrwt>
<pdfrwt beam="1">  1        2 0.53284426E+00 0.17723304E+04</pdfrwt>
<pdfrwt beam="2">  1       -2 0.34882079E-01 0.17723304E+04</pdfrwt>
<totfact> 0.63414685E+00</totfact>
</mgrwt>
</event>
<event>
12    3  0.4773567E-008  0.3312157E+04  0.7818608E-02  0.8159809E-01
          1   -1    0    0  501    0  0.00000000000E+00  0.00000000000E+00  0.14143005558E+04  0.14143005558E+04  0.00000000000E+00 0. -1.
         -1   -1    0    0    0  501 -0.00000000000E+00 -0.00000000000E+00 -0.19391885862E+04  0.19391885862E+04  0.00000000000E+00 0.  1.
         23    2    1    2    0    0 -0.12716763384E+04 -0.84417501015E+03 -0.23372847703E+03  0.15468100884E+04  0.90555458398E+02 0.  0.
        254    2    1    2    0    0  0.12716763384E+04  0.84417501015E+03 -0.29115955344E+03  0.18066790536E+04  0.92169580656E+03 0.  0.
         23    2    4    4    0    0  0.55784534120E+03  0.85314644753E+03  0.16977160617E+02  0.10236847255E+04  0.92692543168E+02 0.  0.
         23    2    4    4    0    0  0.71383099722E+03 -0.89714373799E+01 -0.30813671406E+03  0.78299432816E+03  0.92177568279E+02 0.  0.
          4    1    3    3  502    0 -0.27289153010E+03 -0.20755798789E+03 -0.21531098237E+02  0.34353121217E+03  0.00000000000E+00 0. -1.
         -4    1    3    3    0  502 -0.99878480832E+03 -0.63661702226E+03 -0.21219737880E+03  0.12032788762E+04  0.00000000000E+00 0.  1.
         13    1    5    5    0    0  0.28709048471E+03  0.48583717106E+03  0.47712006379E+02  0.56633482919E+03  0.00000000000E+00 0.  1.
        -13    1    5    5    0    0  0.27075485649E+03  0.36730927647E+03 -0.30734845763E+02  0.45734989629E+03  0.00000000000E+00 0. -1.
          1    1    6    6  503    0  0.62125258970E+03 -0.64379520761E+01 -0.23230478665E+03  0.66329611889E+03  0.00000000000E+00 0. -1.
         -1    1    6    6    0  503  0.92578407522E+02 -0.25334853038E+01 -0.75831927411E+02  0.11969820927E+03  0.00000000000E+00 0.  1.
<mgrwt>
<rscale>  0 0.33121567E+04</rscale>
<asrwt>0</asrwt>
<pdfrwt beam="1">  1        1 0.21758470E+00 0.33121567E+04</pdfrwt>
<pdfrwt beam="2">  1       -1 0.29833670E+00 0.33121567E+04</pdfrwt>
<totfact> 0.21061064E-01</totfact>
</mgrwt>
</event>
<event>
12    3  0.4773567E-008  0.2515086E+04  0.7818608E-02  0.8397631E-01
          1   -1    0    0  501    0  0.00000000000E+00  0.00000000000E+00  0.20296096225E+04  0.20296096225E+04  0.00000000000E+00 0. -1.
         -1   -1    0    0    0  501 -0.00000000000E+00 -0.00000000000E+00 -0.77917193074E+03  0.77917193074E+03  0.00000000000E+00 0.  1.
         23    2    1    2    0    0 -0.95908640405E+03 -0.93782308131E+02 -0.43766382426E+02  0.96900807660E+03  0.91756768316E+02 0.  0.
        254    2    1    2    0    0  0.95908640405E+03  0.93782308131E+02  0.12942040742E+04  0.18397734767E+04  0.88383279413E+03 0.  0.
         23    2    4    4    0    0  0.13518711638E+02  0.29205693436E+03  0.49514537013E+03  0.58265049854E+03  0.93982218590E+02 0.  0.
         23    2    4    4    0    0  0.94556769241E+03 -0.19827462623E+03  0.79905870407E+03  0.12571229781E+04  0.91936288977E+02 0.  0.
          1    1    3    3  502    0 -0.10212523990E+03 -0.16741902404E+01  0.22430055884E+02  0.10457282125E+03  0.00000000000E+00 0. -1.
         -1    1    3    3    0  502 -0.85696116415E+03 -0.92108117891E+02 -0.66196438310E+02  0.86443525535E+03  0.00000000000E+00 0.  1.
         13    1    5    5    0    0 -0.85683625012E+00  0.28955290209E+03  0.44913588227E+03  0.53438250160E+03  0.00000000000E+00 0.  1.
        -13    1    5    5    0    0  0.14375547888E+02  0.25040322686E+01  0.46009487863E+02  0.48267996935E+02  0.00000000000E+00 0. -1.
          3    1    6    6  503    0  0.53549276688E+03 -0.12197990538E+03  0.51137273550E+03  0.75042233129E+03  0.00000000000E+00 0. -1.
         -3    1    6    6    0  503  0.41007492553E+03 -0.76294720843E+02  0.28768596857E+03  0.50670064682E+03  0.00000000000E+00 0.  1.
<mgrwt>
<rscale>  0 0.25150864E+04</rscale>
<asrwt>0</asrwt>
<pdfrwt beam="1">  1        1 0.31224763E+00 0.25150864E+04</pdfrwt>
<pdfrwt beam="2">  1       -1 0.11987261E+00 0.25150864E+04</pdfrwt>
<totfact> 0.15665870E+00</totfact>
</mgrwt>
</event>
<event>
12    3  0.4773567E-008  0.1408786E+04  0.7818608E-02  0.8947483E-01
          2   -1    0    0  501    0  0.00000000000E+00  0.00000000000E+00  0.26307254159E+04  0.26307254159E+04  0.00000000000E+00 0. -1.
         -2   -1    0    0    0  501 -0.00000000000E+00 -0.00000000000E+00 -0.18860567745E+03  0.18860567745E+03  0.00000000000E+00 0.  1.
         23    2    1    2    0    0  0.15486871017E+03  0.32894417121E+03  0.11145581605E+04  0.11760832405E+04  0.93505670043E+02 0.  0.
        254    2    1    2    0    0 -0.15486871017E+03 -0.32894417121E+03  0.13275615779E+04  0.16432478528E+04  0.89758296409E+03 0.  0.
         23    2    4    4    0    0  0.90165285964E+02 -0.53184546554E+03  0.11377083074E+04  0.12624109155E+04  0.91168792786E+02 0.  0.
         23    2    4    4    0    0 -0.24503399613E+03  0.20290129433E+03  0.18985327052E+03  0.38083693733E+03  0.88215157464E+02 0.  0.
          4    1    3    3  502    0  0.12407683625E+03  0.21152815426E+03  0.85623978767E+03  0.89066592802E+03  0.00000000000E+00 0. -1.
         -4    1    3    3    0  502  0.30791873918E+02  0.11741601695E+03  0.25831837286E+03  0.28541731253E+03  0.00000000000E+00 0.  1.
         13    1    5    5    0    0  0.98768300760E+02 -0.52124096401E+03  0.11247420970E+04  0.12435803571E+04  0.00000000000E+00 0. -1.
        -13    1    5    5    0    0 -0.86030147961E+01 -0.10604501534E+02  0.12966210354E+02  0.18830558338E+02  0.00000000000E+00 0.  1.
          3    1    6    6  503    0 -0.18187247090E+03  0.19398917359E+03  0.14519139582E+03  0.30296854055E+03  0.00000000000E+00 0. -1.
         -3    1    6    6    0  503 -0.63161525236E+02  0.89121207413E+01  0.44661874696E+02  0.77868396784E+02  0.00000000000E+00 0.  1.
<mgrwt>
<rscale>  0 0.14087864E+04</rscale>
<asrwt>0</asrwt>
<pdfrwt beam="1">  1        2 0.40472696E+00 0.14087864E+04</pdfrwt>
<pdfrwt beam="2">  1       -2 0.29016260E-01 0.14087864E+04</pdfrwt>
<totfact> 0.31129982E+01</totfact>
</mgrwt>
</event>
<event>
12    3  0.4773567E-008  0.1299742E+04  0.7818608E-02  0.9029770E-01
         -1   -1    0    0    0  501 -0.00000000000E+00  0.00000000000E+00  0.38588624281E+03  0.38588624281E+03  0.00000000000E+00 0.  1.
          1   -1    0    0  501    0  0.00000000000E+00 -0.00000000000E+00 -0.10944478782E+04  0.10944478782E+04  0.00000000000E+00 0. -1.
         23    2    1    2    0    0  0.33042656719E+01  0.25621455486E+02  0.18547502342E+03  0.20829377101E+03  0.91202705974E+02 0.  0.
        254    2    1    2    0    0 -0.33042656719E+01 -0.25621455486E+02 -0.89403665877E+03  0.12720403500E+04  0.90449860561E+03 0.  0.
         23    2    4    4    0    0  0.41960666165E+03 -0.34942479393E+02 -0.25835333632E+03  0.50319143311E+03  0.95731105695E+02 0.  0.
         23    2    4    4    0    0 -0.42291092733E+03  0.93210239069E+01 -0.63568332245E+03  0.76884891685E+03  0.89971309650E+02 0.  0.
          3    1    3    3  502    0 -0.24810547684E+02  0.49246757722E+01  0.67344839071E+01  0.26175732680E+02  0.00000000000E+00 0. -1.
         -3    1    3    3    0  502  0.28114813356E+02  0.20696779714E+02  0.17874053951E+03  0.18211803833E+03  0.00000000000E+00 0.  1.
         13    1    5    5    0    0 -0.24274238208E+01 -0.71559757385E+01 -0.10612277179E+02  0.13027693660E+02  0.00000000000E+00 0. -1.
        -13    1    5    5    0    0  0.42203408547E+03 -0.27786503655E+02 -0.24774105914E+03  0.49016373945E+03  0.00000000000E+00 0.  1.
          3    1    6    6  503    0 -0.19194211016E+03  0.29350956515E+02 -0.35655584778E+03  0.40599916858E+03  0.00000000000E+00 0. -1.
         -3    1    6    6    0  503 -0.23096881717E+03 -0.20029932608E+02 -0.27912747467E+03  0.36284974827E+03  0.00000000000E+00 0.  1.
<mgrwt>
<rscale>  0 0.12997421E+04</rscale>
<asrwt>0</asrwt>
<pdfrwt beam="1">  1        1 0.16837660E+00 0.12997421E+04</pdfrwt>
<pdfrwt beam="2">  1       -1 0.59367114E-01 0.12997421E+04</pdfrwt>
<totfact> 0.36177482E+01</totfact>
</mgrwt>
</event>
<event>
12    3  0.4773567E-008  0.1525637E+04  0.7818608E-02  0.8867581E-01
         -1   -1    0    0    0  501 -0.00000000000E+00  0.00000000000E+00  0.16284057192E+04  0.16284057192E+04  0.00000000000E+00 0.  1.
          1   -1    0    0  501    0  0.00000000000E+00 -0.00000000000E+00 -0.35733847526E+03  0.35733847526E+03  0.00000000000E+00 0. -1.
         23    2    1    2    0    0  0.12091379125E+03 -0.58132956931E+02  0.10306531007E+04  0.10433010086E+04  0.90728137833E+02 0.  0.
        254    2    1    2    0    0 -0.12091379125E+03  0.58132956931E+02  0.24041414319E+03  0.94244318580E+03  0.90133268698E+03 0.  0.
         23    2    4    4    0    0  0.32350310555E+03  0.24313109556E+03  0.16570158634E+03  0.44665549645E+03  0.90978722060E+02 0.  0.
         23    2    4    4    0    0 -0.44441689680E+03 -0.18499813863E+03  0.74712556850E+02  0.49578768935E+03  0.92156265683E+02 0.  0.
          2    1    3    3  502    0  0.28864929764E+02  0.19040951627E+02  0.12421179063E+03  0.12893529749E+03  0.00000000000E+00 0. -1.
         -2    1    3    3    0  502  0.92048861484E+02 -0.77173908557E+02  0.90644131010E+03  0.91436571114E+03  0.00000000000E+00 0.  1.
         13    1    5    5    0    0  0.31052798064E+03  0.20075614379E+03  0.13974423213E+03  0.39529622620E+03  0.00000000000E+00 0. -1.
        -13    1    5    5    0    0  0.12975124906E+02  0.42374951764E+02  0.25957354210E+02  0.51359270253E+02  0.00000000000E+00 0.  1.
          3    1    6    6  503    0 -0.29924023303E+03 -0.15902352887E+03  0.23567062636E+02  0.33968898457E+03  0.00000000000E+00 0.  1.
         -3    1    6    6    0  503 -0.14517666377E+03 -0.25974609756E+02  0.51145494214E+02  0.15609870478E+03  0.00000000000E+00 0. -1.
<mgrwt>
<rscale>  0 0.15256369E+04</rscale>
<asrwt>0</asrwt>
<pdfrwt beam="1">  1        1 0.54975151E-01 0.15256369E+04</pdfrwt>
<pdfrwt beam="2">  1       -1 0.25052395E+00 0.15256369E+04</pdfrwt>
<totfact> 0.46557967E+00</totfact>
</mgrwt>
</event>
<event>
12    3  0.4773567E-008  0.2139996E+04  0.7818608E-02  0.8543827E-01
         -1   -1    0    0    0  501 -0.00000000000E+00  0.00000000000E+00  0.61966625000E+03  0.61966625000E+03  0.00000000000E+00 0.  1.
          1   -1    0    0  501    0  0.00000000000E+00 -0.00000000000E+00 -0.18476006036E+04  0.18476006036E+04  0.00000000000E+00 0. -1.
         23    2    1    2    0    0  0.71071021828E+03  0.25237141553E+03 -0.10320806229E+04  0.12815694214E+04  0.91811893851E+02 0.  0.
        254    2    1    2    0    0 -0.71071021828E+03 -0.25237141553E+03 -0.19585373069E+03  0.11856974322E+04  0.89371101102E+03 0.  0.
         23    2    4    4    0    0  0.67951404959E+02 -0.32544248519E+03  0.76110412951E+02  0.35277258650E+03  0.90141545506E+02 0.  0.
         23    2    4    4    0    0 -0.77866162324E+03  0.73071069659E+02 -0.27196414364E+03  0.83292484573E+03  0.90255185304E+02 0.  0.
          1    1    3    3  502    0  0.37941622049E+02  0.36929929990E+02 -0.61982923449E+02  0.81518520669E+02  0.00000000000E+00 0. -1.
         -1    1    3    3    0  502  0.67276859623E+03  0.21544148554E+03 -0.97009769948E+03  0.12000509007E+04  0.00000000000E+00 0.  1.
         13    1    5    5    0    0  0.69315182454E+01 -0.28995133724E+02  0.37119595594E+02  0.47609117844E+02  0.00000000000E+00 0. -1.
        -13    1    5    5    0    0  0.61019886714E+02 -0.29644735146E+03  0.38990817357E+02  0.30516346866E+03  0.00000000000E+00 0.  1.
          2    1    6    6  503    0 -0.48903847759E+03  0.77477006413E+01 -0.19210180668E+03  0.52547289517E+03  0.00000000000E+00 0. -1.
         -2    1    6    6    0  503 -0.28962314566E+03  0.65323369017E+02 -0.79862336959E+02  0.30745195056E+03  0.00000000000E+00 0.  1.
<mgrwt>
<rscale>  0 0.21399960E+04</rscale>
<asrwt>0</asrwt>
<pdfrwt beam="1">  1        1 0.28424625E+00 0.21399960E+04</pdfrwt>
<pdfrwt beam="2">  1       -1 0.95333268E-01 0.21399960E+04</pdfrwt>
<totfact> 0.36813717E+00</totfact>
</mgrwt>
</event>
<event>
12    3  0.4773567E-008  0.1436680E+04  0.7818608E-02  0.8927687E-01
          1   -1    0    0  501    0  0.00000000000E+00  0.00000000000E+00  0.71926674135E+03  0.71926674135E+03  0.00000000000E+00 0.  1.
         -1   -1    0    0    0  501 -0.00000000000E+00 -0.00000000000E+00 -0.71741459136E+03  0.71741459136E+03  0.00000000000E+00 0. -1.
         23    2    1    2    0    0  0.34433963590E+03  0.11266557138E+03 -0.21606131245E+03  0.43144218731E+03  0.90534824381E+02 0.  0.
        254    2    1    2    0    0 -0.34433963590E+03 -0.11266557138E+03  0.21791346245E+03  0.10052391454E+04  0.91200665924E+03 0.  0.
         23    2    4    4    0    0  0.24116908063E+03  0.83885590026E+02 -0.11781505529E+03  0.29661166285E+03  0.94333311292E+02 0.  0.
         23    2    4    4    0    0 -0.58550871654E+03 -0.19655116141E+03  0.33572851774E+03  0.70862748255E+03  0.89366969348E+02 0.  0.
          4    1    3    3  502    0  0.26814691494E+01  0.99647812682E+01 -0.24324171664E+02  0.26422575001E+02  0.00000000000E+00 0. -1.
         -4    1    3    3    0  502  0.34165816675E+03  0.10270079012E+03 -0.19173714078E+03  0.40501961231E+03  0.00000000000E+00 0.  1.
         13    1    5    5    0    0  0.47472633384E+00 -0.12737724571E+02 -0.38664287455E+01  0.13320069954E+02  0.00000000000E+00 0. -1.
        -13    1    5    5    0    0  0.24069435430E+03  0.96623314596E+02 -0.11394862654E+03  0.28329159290E+03  0.00000000000E+00 0.  1.
          4    1    6    6  503    0 -0.55416936552E+03 -0.16210191207E+03  0.30750361898E+03  0.65417061327E+03  0.00000000000E+00 0.  1.
         -4    1    6    6    0  503 -0.31339351020E+02 -0.34449249339E+02  0.28224898752E+02  0.54456869282E+02  0.00000000000E+00 0. -1.
<mgrwt>
<rscale>  0 0.14366801E+04</rscale>
<asrwt>0</asrwt>
<pdfrwt beam="1">  1        1 0.11065642E+00 0.14366801E+04</pdfrwt>
<pdfrwt beam="2">  1       -1 0.11037147E+00 0.14366801E+04</pdfrwt>
<totfact> 0.19245557E+01</totfact>
</mgrwt>
</event>
<event>
12    3  0.4773567E-008  0.2532805E+04  0.7818608E-02  0.8391391E-01
         -4   -1    0    0    0  501 -0.00000000000E+00  0.00000000000E+00  0.18578790010E+04  0.18578790010E+04  0.00000000000E+00 0.  1.
          4   -1    0    0  501    0  0.00000000000E+00 -0.00000000000E+00 -0.86322916849E+03  0.86322916849E+03  0.00000000000E+00 0. -1.
         23    2    1    2    0    0  0.39750541241E+03 -0.29455873606E+03 -0.62354485543E+03  0.80147044667E+03  0.93655156107E+02 0.  0.
        254    2    1    2    0    0 -0.39750541241E+03  0.29455873606E+03  0.16181946879E+04  0.19196377228E+04  0.90646540853E+03 0.  0.
         23    2    4    4    0    0 -0.48566187756E+03  0.51912086310E+03  0.14329294739E+04  0.16018013286E+04  0.84419721088E+02 0.  0.
         23    2    4    4    0    0  0.88156465146E+02 -0.22456212704E+03  0.18526521402E+03  0.31783639419E+03  0.92179513448E+02 0.  0.
          1    1    3    3  502    0  0.31740146352E+03 -0.21184652803E+03 -0.41889980114E+03  0.56665658373E+03  0.00000000000E+00 0. -1.
         -1    1    3    3    0  502  0.80103948889E+02 -0.82712208028E+02 -0.20464505430E+03  0.23481386295E+03  0.00000000000E+00 0.  1.
         13    1    5    5    0    0 -0.32612344488E+03  0.31384280871E+03  0.83454034948E+03  0.94937421746E+03  0.00000000000E+00 0.  1.
        -13    1    5    5    0    0 -0.15953843268E+03  0.20527805439E+03  0.59838912443E+03  0.65242711114E+03  0.00000000000E+00 0. -1.
          2    1    6    6  503    0  0.31582944964E+02 -0.13065987523E+03  0.49294886115E+02  0.14317636399E+03  0.00000000000E+00 0. -1.
         -2    1    6    6    0  503  0.56573520182E+02 -0.93902251810E+02  0.13597032790E+03  0.17466003020E+03  0.00000000000E+00 0.  1.
<mgrwt>
<rscale>  0 0.25328050E+04</rscale>
<asrwt>0</asrwt>
<pdfrwt beam="1">  1        4 0.13280449E+00 0.25328050E+04</pdfrwt>
<pdfrwt beam="2">  1       -4 0.28582754E+00 0.25328050E+04</pdfrwt>
<totfact> 0.27506624E-02</totfact>
</mgrwt>
</event>
<event>
12    3  0.4773567E-008  0.1257000E+04  0.7818608E-02  0.9064377E-01
          1   -1    0    0  501    0  0.00000000000E+00  0.00000000000E+00  0.10520815782E+04  0.10520815782E+04  0.00000000000E+00 0. -1.
         -1   -1    0    0    0  501 -0.00000000000E+00 -0.00000000000E+00 -0.37545777759E+03  0.37545777759E+03  0.00000000000E+00 0.  1.
         23    2    1    2    0    0 -0.74307111255E+02  0.66186941768E+02 -0.15066711544E+03  0.20728594599E+03  0.10180680568E+03 0.  0.
        254    2    1    2    0    0  0.74307111255E+02 -0.66186941768E+02  0.82729091608E+03  0.12202534098E+04  0.89146276777E+03 0.  0.
         23    2    4    4    0    0  0.20628701569E+03  0.35617837765E+03  0.26253859513E+03  0.49691411720E+03  0.92626974418E+02 0.  0.
         23    2    4    4    0    0 -0.13197990444E+03 -0.42236531942E+03  0.56475232095E+03  0.72333929262E+03  0.91996684826E+02 0.  0.
          2    1    3    3  502    0 -0.30979233809E+02 -0.90024836761E+01  0.12996448383E+01  0.32286943436E+02  0.00000000000E+00 0. -1.
         -2    1    3    3    0  502 -0.43327877446E+02  0.75189425444E+02 -0.15196676028E+03  0.17499900255E+03  0.00000000000E+00 0.  1.
         13    1    5    5    0    0  0.69636598289E+01  0.13178606857E+02 -0.78263838114E+01  0.16835097875E+02  0.00000000000E+00 0. -1.
        -13    1    5    5    0    0  0.19932335586E+03  0.34299977079E+03  0.27036497894E+03  0.48007901932E+03  0.00000000000E+00 0.  1.
          2    1    6    6  503    0 -0.12307192755E+03 -0.36616257961E+03  0.43562319251E+03  0.58222787627E+03  0.00000000000E+00 0.  1.
         -2    1    6    6    0  503 -0.89079768829E+01 -0.56202739811E+02  0.12912912843E+03  0.14111141635E+03  0.00000000000E+00 0. -1.
<mgrwt>
<rscale>  0 0.12569999E+04</rscale>
<asrwt>0</asrwt>
<pdfrwt beam="1">  1        1 0.16185870E+00 0.12569999E+04</pdfrwt>
<pdfrwt beam="2">  1       -1 0.57762735E-01 0.12569999E+04</pdfrwt>
<totfact> 0.41257774E+01</totfact>
</mgrwt>
</event>
<event>
12    3  0.4773567E-008  0.1862973E+04  0.7818608E-02  0.8673510E-01
          1   -1    0    0  501    0  0.00000000000E+00  0.00000000000E+00  0.93410069373E+03  0.93410069373E+03  0.00000000000E+00 0. -1.
         -1   -1    0    0    0  501 -0.00000000000E+00 -0.00000000000E+00 -0.92887999613E+03  0.92887999613E+03  0.00000000000E+00 0.  1.
         23    2    1    2    0    0 -0.12603701266E+03 -0.35414454025E+03 -0.61850217736E+03  0.72936004862E+03  0.90096909897E+02 0.  0.
        254    2    1    2    0    0  0.12603701266E+03  0.35414454025E+03  0.62372287496E+03  0.11336206412E+04  0.86877030886E+03 0.  0.
         23    2    4    4    0    0 -0.32091406636E+03 -0.46047282528E+02  0.17827227522E+03  0.38100925954E+03  0.90999239183E+02 0.  0.
         23    2    4    4    0    0  0.44695107902E+03  0.40019182278E+03  0.44545059974E+03  0.75261138170E+03  0.89882662388E+02 0.  0.
          1    1    3    3  502    0 -0.64721881307E+01 -0.62948702929E+02 -0.54756523518E+02  0.83682168277E+02  0.00000000000E+00 0. -1.
         -1    1    3    3    0  502 -0.11956482453E+03 -0.29119583732E+03 -0.56374565384E+03  0.64567788034E+03  0.00000000000E+00 0.  1.
         13    1    5    5    0    0 -0.20203252849E+03 -0.64321155072E+02  0.14273004793E+03  0.25558994531E+03  0.00000000000E+00 0. -1.
        -13    1    5    5    0    0 -0.11888153787E+03  0.18273872544E+02  0.35542227282E+02  0.12541931424E+03  0.00000000000E+00 0.  1.
          2    1    6    6  503    0  0.88062507342E+02  0.12858325818E+03  0.99021059316E+02  0.18464514527E+03  0.00000000000E+00 0. -1.
         -2    1    6    6    0  503  0.35888857168E+03  0.27160856459E+03  0.34642954042E+03  0.56796623643E+03  0.00000000000E+00 0.  1.
<mgrwt>
<rscale>  0 0.18629734E+04</rscale>
<asrwt>0</asrwt>
<pdfrwt beam="1">  1        1 0.14370780E+00 0.18629734E+04</pdfrwt>
<pdfrwt beam="2">  1       -1 0.14290461E+00 0.18629734E+04</pdfrwt>
<totfact> 0.63629051E+00</totfact>
</mgrwt>
</event>
<event>
12    3  0.4773567E-008  0.1701152E+04  0.7818608E-02  0.8760707E-01
          1   -1    0    0  501    0  0.00000000000E+00  0.00000000000E+00  0.87755712087E+03  0.87755712087E+03  0.00000000000E+00 0. -1.
         -1   -1    0    0    0  501 -0.00000000000E+00 -0.00000000000E+00 -0.82442470979E+03  0.82442470979E+03  0.00000000000E+00 0.  1.
         23    2    1    2    0    0  0.54534176398E+03 -0.92566939673E+02 -0.24161697391E+03  0.61086877314E+03  0.93891522802E+02 0.  0.
        254    2    1    2    0    0 -0.54534176398E+03  0.92566939673E+02  0.29474938499E+03  0.10911130575E+04  0.89313169603E+03 0.  0.
         23    2    4    4    0    0 -0.47526717204E+03 -0.20559551661E+03  0.48781176222E+03  0.71736948347E+03  0.92251066058E+02 0.  0.
         23    2    4    4    0    0 -0.70074591940E+02  0.29816245628E+03 -0.19306237723E+03  0.37374357404E+03  0.92735531811E+02 0.  0.
          3    1    3    3  502    0  0.17825389652E+03 -0.53606598011E+02 -0.12308990486E+03  0.22315744141E+03  0.00000000000E+00 0. -1.
         -3    1    3    3    0  502  0.36708786746E+03 -0.38960341662E+02 -0.11852706904E+03  0.38771133173E+03  0.00000000000E+00 0.  1.
         13    1    5    5    0    0 -0.53528358757E+02 -0.26237463093E+02  0.10271589727E+03  0.11876129509E+03  0.00000000000E+00 0.  1.
        -13    1    5    5    0    0 -0.42173881329E+03 -0.17935805352E+03  0.38509586495E+03  0.59860818838E+03  0.00000000000E+00 0. -1.
          2    1    6    6  503    0 -0.25924996728E+02  0.18476612314E+03 -0.16452334495E+03  0.24875400851E+03  0.00000000000E+00 0. -1.
         -2    1    6    6    0  503 -0.44149595212E+02  0.11339633315E+03 -0.28539032282E+02  0.12498956553E+03  0.00000000000E+00 0.  1.
<mgrwt>
<rscale>  0 0.17011523E+04</rscale>
<asrwt>0</asrwt>
<pdfrwt beam="1">  1        1 0.13500879E+00 0.17011523E+04</pdfrwt>
<pdfrwt beam="2">  1       -1 0.12683457E+00 0.17011523E+04</pdfrwt>
<totfact> 0.97527470E+00</totfact>
</mgrwt>
</event>
<event>
12    3  0.4773567E-008  0.1625467E+04  0.7818608E-02  0.8805054E-01
          2   -1    0    0  501    0  0.00000000000E+00  0.00000000000E+00  0.10201166171E+04  0.10201166171E+04  0.00000000000E+00 0. -1.
         -2   -1    0    0    0  501 -0.00000000000E+00 -0.00000000000E+00 -0.64751010448E+03  0.64751010448E+03  0.00000000000E+00 0.  1.
         23    2    1    2    0    0  0.14309321268E+03  0.54553884867E+03  0.48667989099E+02  0.57393109337E+03  0.94551699400E+02 0.  0.
        254    2    1    2    0    0 -0.14309321268E+03 -0.54553884867E+03  0.32393852353E+03  0.10936956282E+04  0.87928701641E+03 0.  0.
         23    2    4    4    0    0 -0.71417084321E+02 -0.79556971942E+02 -0.28490249852E+03  0.31818704965E+03  0.92972324829E+02 0.  0.
         23    2    4    4    0    0 -0.71676128361E+02 -0.46598187672E+03  0.60884102205E+03  0.77550857857E+03  0.91921643211E+02 0.  0.
          3    1    3    3  502    0  0.15094988984E+03  0.53820205696E+03  0.54639682454E+02  0.56163406080E+03  0.00000000000E+00 0. -1.
         -3    1    3    3    0  502 -0.78566771572E+01  0.73367917071E+01 -0.59716933542E+01  0.12297032570E+02  0.00000000000E+00 0.  1.
         13    1    5    5    0    0 -0.63364110951E+02 -0.10049721399E+03 -0.22985386365E+03  0.25874214811E+03  0.00000000000E+00 0.  1.
        -13    1    5    5    0    0 -0.80529733702E+01  0.20940242050E+02 -0.55048634875E+02  0.59444901538E+02  0.00000000000E+00 0. -1.
          4    1    6    6  503    0 -0.23528781658E+02 -0.32925709417E+02  0.27196360212E+02  0.48758054880E+02  0.00000000000E+00 0.  1.
         -4    1    6    6    0  503 -0.48147346704E+02 -0.43305616731E+03  0.58164466183E+03  0.72675052369E+03  0.00000000000E+00 0. -1.
<mgrwt>
<rscale>  0 0.16254671E+04</rscale>
<asrwt>0</asrwt>
<pdfrwt beam="1">  1        2 0.15694102E+00 0.16254671E+04</pdfrwt>
<pdfrwt beam="2">  1       -2 0.99616939E-01 0.16254671E+04</pdfrwt>
<totfact> 0.19510609E+01</totfact>
</mgrwt>
</event>
<event>
12    3  0.4773567E-008  0.1496978E+04  0.7818608E-02  0.8886465E-01
         -2   -1    0    0    0  501 -0.00000000000E+00  0.00000000000E+00  0.57942783137E+03  0.57942783137E+03  0.00000000000E+00 0.  1.
          2   -1    0    0  501    0  0.00000000000E+00 -0.00000000000E+00 -0.96687763526E+03  0.96687763526E+03  0.00000000000E+00 0. -1.
         23    2    1    2    0    0 -0.21988654572E+03 -0.39249020066E+03  0.13840202770E+02  0.45855929247E+03  0.87672247042E+02 0.  0.
        254    2    1    2    0    0  0.21988654572E+03  0.39249020066E+03 -0.40129000665E+03  0.10877461742E+04  0.90540566563E+03 0.  0.
         23    2    4    4    0    0 -0.11915574698E+03 -0.17693301573E+03  0.97480898780E+02  0.25342902937E+03  0.96022722346E+02 0.  0.
         23    2    4    4    0    0  0.33904229269E+03  0.56942321639E+03 -0.49877090543E+03  0.83431714479E+03  0.90112187837E+02 0.  0.
          2    1    3    3  502    0  0.28454458988E+01  0.31782413865E+01  0.65655470956E+00  0.43161145445E+01  0.00000000000E+00 0. -1.
         -2    1    3    3    0  502 -0.22273199161E+03 -0.39566844204E+03  0.13183648060E+02  0.45424317793E+03  0.00000000000E+00 0.  1.
         13    1    5    5    0    0 -0.70661598113E+02 -0.28167045201E+02  0.19126269705E+02  0.78436331352E+02  0.00000000000E+00 0. -1.
        -13    1    5    5    0    0 -0.48494148865E+02 -0.14876597053E+03  0.78354629075E+02  0.17499269801E+03  0.00000000000E+00 0.  1.
          1    1    6    6  503    0  0.76373085464E+01  0.54200672693E+02 -0.26557732326E+02  0.60838758604E+02  0.00000000000E+00 0. -1.
         -1    1    6    6    0  503  0.33140498415E+03  0.51522254369E+03 -0.47221317311E+03  0.77347838619E+03  0.00000000000E+00 0.  1.
<mgrwt>
<rscale>  0 0.14969780E+04</rscale>
<asrwt>0</asrwt>
<pdfrwt beam="1">  1        2 0.14875041E+00 0.14969780E+04</pdfrwt>
<pdfrwt beam="2">  1       -2 0.89142743E-01 0.14969780E+04</pdfrwt>
<totfact> 0.27640464E+01</totfact>
</mgrwt>
</event>
<event>
12    3  0.4773567E-008  0.2689718E+04  0.7818608E-02  0.8338349E-01
         -2   -1    0    0    0  501 -0.00000000000E+00  0.00000000000E+00  0.16050414567E+04  0.16050414567E+04  0.00000000000E+00 0.  1.
          2   -1    0    0  501    0  0.00000000000E+00 -0.00000000000E+00 -0.11268526427E+04  0.11268526427E+04  0.00000000000E+00 0. -1.
         23    2    1    2    0    0 -0.48365561947E+03 -0.10738823326E+04  0.37826438508E+03  0.12403725828E+04  0.91072370348E+02 0.  0.
        254    2    1    2    0    0  0.48365561947E+03  0.10738823326E+04  0.99924428976E+02  0.14915215165E+04  0.90967330409E+03 0.  0.
         23    2    4    4    0    0  0.32704897460E+03 -0.48923407335E+02 -0.42061080981E+02  0.34534648290E+03  0.90224869887E+02 0.  0.
         23    2    4    4    0    0  0.15660664486E+03  0.11228057400E+04  0.14198550996E+03  0.11461750336E+04  0.91317861024E+02 0.  0.
          3    1    3    3  502    0 -0.39893257032E+03 -0.86128727343E+03  0.26775614911E+03  0.98623339957E+03  0.00000000000E+00 0. -1.
         -3    1    3    3    0  502 -0.84723049145E+02 -0.21259505921E+03  0.11050823597E+03  0.25413918327E+03  0.00000000000E+00 0.  1.
         13    1    5    5    0    0  0.10727753219E+03  0.25896361340E+02 -0.19827967270E+02  0.11212599489E+03  0.00000000000E+00 0.  1.
        -13    1    5    5    0    0  0.21977144242E+03 -0.74819768676E+02 -0.22233113711E+02  0.23322048802E+03  0.00000000000E+00 0. -1.
          2    1    6    6  503    0  0.12794099132E+03  0.64568563159E+03  0.10741662671E+03  0.66694614760E+03  0.00000000000E+00 0. -1.
         -2    1    6    6    0  503  0.28665653540E+02  0.47712010838E+03  0.34568883252E+02  0.47922888603E+03  0.00000000000E+00 0.  1.
<mgrwt>
<rscale>  0 0.26897176E+04</rscale>
<asrwt>0</asrwt>
<pdfrwt beam="1">  1        2 0.17336194E+00 0.26897176E+04</pdfrwt>
<pdfrwt beam="2">  1       -2 0.24692946E+00 0.26897176E+04</pdfrwt>
<totfact> 0.12360257E+00</totfact>
</mgrwt>
</event>
<event>
12    3  0.4773567E-008  0.2085451E+04  0.7818608E-02  0.8567679E-01
         -1   -1    0    0    0  501 -0.00000000000E+00  0.00000000000E+00  0.17282991451E+04  0.17282991451E+04  0.00000000000E+00 0.  1.
          1   -1    0    0  501    0  0.00000000000E+00 -0.00000000000E+00 -0.62910228427E+03  0.62910228427E+03  0.00000000000E+00 0. -1.
         23    2    1    2    0    0  0.95487912759E+02 -0.56932651079E+03 -0.23767764577E+03  0.63002764209E+03  0.84814793080E+02 0.  0.
        254    2    1    2    0    0 -0.95487912759E+02  0.56932651079E+03  0.13368745066E+04  0.17273737873E+04  0.92915883317E+03 0.  0.
         23    2    4    4    0    0  0.98187100234E+02  0.74728108738E+03  0.11922081293E+04  0.14135085532E+04  0.92609266256E+02 0.  0.
         23    2    4    4    0    0 -0.19367501299E+03 -0.17795457659E+03  0.14466637736E+03  0.31386523414E+03  0.91679782257E+02 0.  0.
          3    1    3    3  502    0  0.89241218808E+02 -0.56386347913E+03 -0.22246014293E+03  0.61269448620E+03  0.00000000000E+00 0. -1.
         -3    1    3    3    0  502  0.62466939507E+01 -0.54630316576E+01 -0.15217502839E+02  0.17333155883E+02  0.00000000000E+00 0.  1.
         13    1    5    5    0    0  0.94012687513E+02  0.36312819493E+03  0.57774088754E+03  0.68882871927E+03  0.00000000000E+00 0. -1.
        -13    1    5    5    0    0  0.41744127203E+01  0.38415289245E+03  0.61446724175E+03  0.72467983392E+03  0.00000000000E+00 0.  1.
          3    1    6    6  503    0 -0.57766322393E+02 -0.11487289792E+03  0.71462118208E+02  0.14710392591E+03  0.00000000000E+00 0.  1.
         -3    1    6    6    0  503 -0.13590869060E+03 -0.63081678675E+02  0.73204259150E+02  0.16676130823E+03  0.00000000000E+00 0. -1.
<mgrwt>
<rscale>  0 0.20854515E+04</rscale>
<asrwt>0</asrwt>
<pdfrwt beam="1">  1        1 0.96784967E-01 0.20854515E+04</pdfrwt>
<pdfrwt beam="2">  1       -1 0.26589217E+00 0.20854515E+04</pdfrwt>
<totfact> 0.16171814E+00</totfact>
</mgrwt>
</event>
<event>
12    3  0.4773567E-008  0.1234072E+04  0.7818608E-02  0.9083545E-01
         -2   -1    0    0    0  501 -0.00000000000E+00  0.00000000000E+00  0.57229495239E+03  0.57229495239E+03  0.00000000000E+00 0.  1.
          2   -1    0    0  501    0  0.00000000000E+00 -0.00000000000E+00 -0.66527466412E+03  0.66527466412E+03  0.00000000000E+00 0. -1.
         23    2    1    2    0    0  0.92647695385E+02 -0.30465301912E+02  0.23909992012E+03  0.26985452576E+03  0.78364297967E+02 0.  0.
        254    2    1    2    0    0 -0.92647695385E+02  0.30465301912E+02 -0.33207963184E+03  0.96771509074E+03  0.90370564062E+03 0.  0.
         23    2    4    4    0    0  0.13448775907E+03 -0.21886464749E+03  0.19511545804E+03  0.33518889756E+03  0.91065162500E+02 0.  0.
         23    2    4    4    0    0 -0.22713545445E+03  0.24932994940E+03 -0.52719508988E+03  0.63252619318E+03  0.91644879441E+02 0.  0.
          2    1    3    3  502    0  0.21802862259E+02 -0.52048021836E+00  0.35889140350E+01  0.22102398202E+02  0.00000000000E+00 0. -1.
         -2    1    3    3    0  502  0.70844833126E+02 -0.29944821693E+02  0.23551100608E+03  0.24775212756E+03  0.00000000000E+00 0.  1.
         13    1    5    5    0    0  0.10622718108E+03 -0.15235257416E+03  0.18512571623E+03  0.26223472627E+03  0.00000000000E+00 0. -1.
        -13    1    5    5    0    0  0.28260577993E+02 -0.66512073334E+02  0.99897418133E+01  0.72954171294E+02  0.00000000000E+00 0.  1.
          1    1    6    6  503    0 -0.15885871816E+03  0.18433200265E+03 -0.29819704313E+03  0.38488421125E+03  0.00000000000E+00 0. -1.
         -1    1    6    6    0  503 -0.68276736294E+02  0.64997946755E+02 -0.22899804675E+03  0.24764198194E+03  0.00000000000E+00 0.  1.
<mgrwt>
<rscale>  0 0.12340718E+04</rscale>
<asrwt>0</asrwt>
<pdfrwt beam="1">  1        2 0.10234995E+00 0.12340718E+04</pdfrwt>
<pdfrwt beam="2">  1       -2 0.88045377E-01 0.12340718E+04</pdfrwt>
<totfact> 0.47829366E+01</totfact>
</mgrwt>
</event>
<event>
12    3  0.4773567E-008  0.1441032E+04  0.7818608E-02  0.8924642E-01
         -1   -1    0    0    0  501 -0.00000000000E+00  0.00000000000E+00  0.63469599964E+03  0.63469599964E+03  0.00000000000E+00 0. -1.
          1   -1    0    0  501    0  0.00000000000E+00 -0.00000000000E+00 -0.81793958830E+03  0.81793958830E+03  0.00000000000E+00 0.  1.
         23    2    1    2    0    0 -0.36110093351E+03  0.73051675029E+02  0.17828901003E+03  0.41937005455E+03  0.91399344390E+02 0.  0.
        254    2    1    2    0    0  0.36110093351E+03 -0.73051675029E+02 -0.36153259869E+03  0.10332655334E+04  0.89509854830E+03 0.  0.
         23    2    4    4    0    0  0.62723170468E+03  0.55684436861E+01 -0.38479026068E+03  0.74103976848E+03  0.87325682540E+02 0.  0.
         23    2    4    4    0    0 -0.26613077117E+03 -0.78620118715E+02  0.23257661986E+02  0.29222576491E+03  0.88590453235E+02 0.  0.
          2    1    3    3  502    0 -0.30345987075E+03  0.88305461036E+02  0.17088350607E+03  0.35928668254E+03  0.00000000000E+00 0. -1.
         -2    1    3    3    0  502 -0.57641062758E+02 -0.15253786007E+02  0.74055039538E+01  0.60083372011E+02  0.00000000000E+00 0.  1.
         13    1    5    5    0    0  0.88331145779E+02  0.16043489878E+02 -0.88070513419E+02  0.12576247539E+03  0.00000000000E+00 0. -1.
        -13    1    5    5    0    0  0.53890055890E+03 -0.10475046192E+02 -0.29671974726E+03  0.61527729309E+03  0.00000000000E+00 0.  1.
          4    1    6    6  503    0 -0.15467453412E+03 -0.83861231161E+02 -0.86978105316E+01  0.17616063552E+03  0.00000000000E+00 0. -1.
         -4    1    6    6    0  503 -0.11145623705E+03  0.52411124456E+01  0.31955472518E+02  0.11606512940E+03  0.00000000000E+00 0.  1.
<mgrwt>
<rscale>  0 0.14410316E+04</rscale>
<asrwt>0</asrwt>
<pdfrwt beam="1">  1        1 0.12583686E+00 0.14410316E+04</pdfrwt>
<pdfrwt beam="2">  1       -1 0.97645538E-01 0.14410316E+04</pdfrwt>
<totfact> 0.20870978E+01</totfact>
</mgrwt>
</event>
<event>
12    3  0.4773567E-008  0.2689185E+04  0.7818608E-02  0.8338522E-01
         -2   -1    0    0    0  501 -0.00000000000E+00  0.00000000000E+00  0.72260097045E+03  0.72260097045E+03  0.00000000000E+00 0.  1.
          2   -1    0    0  501    0  0.00000000000E+00 -0.00000000000E+00 -0.25019751242E+04  0.25019751242E+04  0.00000000000E+00 0. -1.
         23    2    1    2    0    0 -0.72614341959E+03 -0.81957748501E+03 -0.13656362805E+04  0.17527469727E+04  0.90376877326E+02 0.  0.
        254    2    1    2    0    0  0.72614341959E+03  0.81957748501E+03 -0.41373787328E+03  0.14718291220E+04  0.89225019852E+03 0.  0.
         23    2    4    4    0    0  0.31054826770E+03  0.65311487730E+03  0.15196570043E+03  0.74461051946E+03  0.91389179194E+02 0.  0.
         23    2    4    4    0    0  0.41559515189E+03  0.16646260772E+03 -0.56570357371E+03  0.72721860251E+03  0.91636414636E+02 0.  0.
          2    1    3    3  502    0 -0.48731213233E+03 -0.61021527003E+03 -0.95619363858E+03  0.12345614868E+04  0.00000000000E+00 0. -1.
         -2    1    3    3    0  502 -0.23883128726E+03 -0.20936221498E+03 -0.40944264193E+03  0.51818548596E+03  0.00000000000E+00 0.  1.
         13    1    5    5    0    0  0.21073289406E+03  0.50154570016E+03  0.14491852599E+03  0.56299007200E+03  0.00000000000E+00 0.  1.
        -13    1    5    5    0    0  0.99815373630E+02  0.15156917713E+03  0.70471744388E+01  0.18162044747E+03  0.00000000000E+00 0. -1.
          3    1    6    6  503    0  0.54486722090E+02  0.18969314509E+02 -0.13112358913E+03  0.14325513396E+03  0.00000000000E+00 0. -1.
         -3    1    6    6    0  503  0.36110842980E+03  0.14749329321E+03 -0.43457998458E+03  0.58396346856E+03  0.00000000000E+00 0.  1.
<mgrwt>
<rscale>  0 0.26891855E+04</rscale>
<asrwt>0</asrwt>
<pdfrwt beam="1">  1        2 0.38491926E+00 0.26891855E+04</pdfrwt>
<pdfrwt beam="2">  1       -2 0.11116938E+00 0.26891855E+04</pdfrwt>
<totfact> 0.19517889E+00</totfact>
</mgrwt>
</event>
<event>
12    3  0.4773567E-008  0.1437612E+04  0.7818608E-02  0.8927034E-01
          2   -1    0    0  501    0  0.00000000000E+00  0.00000000000E+00  0.11343947035E+04  0.11343947035E+04  0.00000000000E+00 0. -1.
         -2   -1    0    0    0  501 -0.00000000000E+00 -0.00000000000E+00 -0.45546950986E+03  0.45546950986E+03  0.00000000000E+00 0.  1.
         23    2    1    2    0    0 -0.35370141339E+02 -0.27410128357E+03 -0.16669799245E+03  0.33514402255E+03  0.90281418953E+02 0.  0.
        254    2    1    2    0    0  0.35370141339E+02  0.27410128357E+03  0.84562318609E+03  0.12547201908E+04  0.88479467892E+03 0.  0.
         23    2    4    4    0    0 -0.13607388082E+03 -0.24951089841E+03  0.82734180122E+02  0.30951812839E+03  0.90469540592E+02 0.  0.
         23    2    4    4    0    0  0.17144402216E+03  0.52361218198E+03  0.76288900597E+03  0.94520206243E+03  0.88569371341E+02 0.  0.
          4    1    3    3  502    0  0.69995560506E+01 -0.87628444351E+01  0.87600529715E+01  0.14230943594E+02  0.00000000000E+00 0. -1.
         -4    1    3    3    0  502 -0.42369697390E+02 -0.26533843914E+03 -0.17545804542E+03  0.32091307895E+03  0.00000000000E+00 0.  1.
         13    1    5    5    0    0 -0.12058072502E+03 -0.25476926694E+03  0.77170640768E+02  0.29223688750E+03  0.00000000000E+00 0. -1.
        -13    1    5    5    0    0 -0.15493155803E+02  0.52583685304E+01  0.55635393540E+01  0.17281240884E+02  0.00000000000E+00 0.  1.
          3    1    6    6  503    0  0.10312008867E+03  0.35568893905E+03  0.44196477046E+03  0.57661185591E+03  0.00000000000E+00 0. -1.
         -3    1    6    6    0  503  0.68323933494E+02  0.16792324293E+03  0.32092423552E+03  0.36859020653E+03  0.00000000000E+00 0.  1.
<mgrwt>
<rscale>  0 0.14376122E+04</rscale>
<asrwt>0</asrwt>
<pdfrwt beam="1">  1        2 0.17452226E+00 0.14376122E+04</pdfrwt>
<pdfrwt beam="2">  1       -2 0.70072233E-01 0.14376122E+04</pdfrwt>
<totfact> 0.37364360E+01</totfact>
</mgrwt>
</event>
<event>
12    3  0.4773567E-008  0.2167100E+04  0.7818608E-02  0.8532248E-01
          1   -1    0    0  501    0  0.00000000000E+00  0.00000000000E+00  0.82673752101E+03  0.82673752101E+03  0.00000000000E+00 0. -1.
         -1   -1    0    0    0  501 -0.00000000000E+00 -0.00000000000E+00 -0.14201374799E+04  0.14201374799E+04  0.00000000000E+00 0.  1.
         23    2    1    2    0    0  0.55897116107E+03  0.41052214429E+03  0.34213440063E+03  0.77861399516E+03  0.90590372012E+02 0.  0.
        254    2    1    2    0    0 -0.55897116107E+03 -0.41052214429E+03 -0.93553435948E+03  0.14682610057E+04  0.89419721161E+03 0.  0.
         23    2    4    4    0    0 -0.24545332655E+03 -0.12682156495E+03 -0.99250367295E+03  0.10341065672E+04  0.89340957469E+02 0.  0.
         23    2    4    4    0    0 -0.31351783451E+03 -0.28370057934E+03  0.56969313469E+02  0.43415443850E+03  0.80405985551E+02 0.  0.
          1    1    3    3  502    0  0.41327072608E+03  0.27055269942E+03  0.27706964110E+03  0.56635593244E+03  0.00000000000E+00 0. -1.
         -1    1    3    3    0  502  0.14570043498E+03  0.13996944487E+03  0.65064759539E+02  0.21225806271E+03  0.00000000000E+00 0.  1.
         13    1    5    5    0    0 -0.22139757387E+03 -0.93086573729E+02 -0.73374449051E+03  0.77205114680E+03  0.00000000000E+00 0. -1.
        -13    1    5    5    0    0 -0.24055752683E+02 -0.33734991221E+02 -0.25875918244E+03  0.26205542041E+03  0.00000000000E+00 0.  1.
          4    1    6    6  503    0 -0.11909753662E+03 -0.57887478222E+02  0.18158950714E+02  0.13365975780E+03  0.00000000000E+00 0.  1.
         -4    1    6    6    0  503 -0.19442029789E+03 -0.22581310112E+03  0.38810362755E+02  0.30049468069E+03  0.00000000000E+00 0. -1.
<mgrwt>
<rscale>  0 0.21671003E+04</rscale>
<asrwt>0</asrwt>
<pdfrwt beam="1">  1        1 0.12719039E+00 0.21671003E+04</pdfrwt>
<pdfrwt beam="2">  1       -1 0.21848269E+00 0.21671003E+04</pdfrwt>
<totfact> 0.21591265E+00</totfact>
</mgrwt>
</event>
<event>
12    3  0.4773567E-008  0.1875035E+04  0.7818608E-02  0.8667384E-01
         -1   -1    0    0    0  501 -0.00000000000E+00  0.00000000000E+00  0.11725533984E+04  0.11725533984E+04  0.00000000000E+00 0.  1.
          1   -1    0    0  501    0  0.00000000000E+00 -0.00000000000E+00 -0.74959441023E+03  0.74959441023E+03  0.00000000000E+00 0. -1.
         23    2    1    2    0    0  0.32819370215E+03 -0.13775427657E+03 -0.47079076095E+03  0.59718419683E+03  0.91091588543E+02 0.  0.
        254    2    1    2    0    0 -0.32819370215E+03  0.13775427657E+03  0.89374974911E+03  0.13249636118E+04  0.91107223188E+03 0.  0.
         23    2    4    4    0    0 -0.62570860361E+03  0.53019593660E+02  0.45677667828E+03  0.78194677582E+03  0.92051575005E+02 0.  0.
         23    2    4    4    0    0  0.29751490146E+03  0.84734682907E+02  0.43697307083E+03  0.54301683597E+03  0.90701358555E+02 0.  0.
          1    1    3    3  502    0  0.35012020741E+02 -0.42347842730E+02 -0.10726765183E+03  0.12052190883E+03  0.00000000000E+00 0.  1.
         -1    1    3    3    0  502  0.29318168141E+03 -0.95406433838E+02 -0.36352310912E+03  0.47666228800E+03  0.00000000000E+00 0. -1.
         13    1    5    5    0    0 -0.58020866905E+03  0.72903939989E+02  0.41515168869E+03  0.71715270949E+03  0.00000000000E+00 0. -1.
        -13    1    5    5    0    0 -0.45499934554E+02 -0.19884346329E+02  0.41624989591E+02  0.64794066332E+02  0.00000000000E+00 0.  1.
          1    1    6    6  503    0  0.30308451683E+03  0.88380887916E+02  0.42754463362E+03  0.53147513529E+03  0.00000000000E+00 0. -1.
         -1    1    6    6    0  503 -0.55696153792E+01 -0.36462050088E+01  0.94284372075E+01  0.11541700681E+02  0.00000000000E+00 0.  1.
<mgrwt>
<rscale>  0 0.18750354E+04</rscale>
<asrwt>0</asrwt>
<pdfrwt beam="1">  1        1 0.11532222E+00 0.18750354E+04</pdfrwt>
<pdfrwt beam="2">  1       -1 0.18039283E+00 0.18750354E+04</pdfrwt>
<totfact> 0.47517876E+00</totfact>
</mgrwt>
</event>
<event>
12    3  0.4773567E-008  0.1718141E+04  0.7818608E-02  0.8751085E-01
         -2   -1    0    0    0  501 -0.00000000000E+00  0.00000000000E+00  0.22181950437E+03  0.22181950437E+03  0.00000000000E+00 0.  1.
          2   -1    0    0  501    0  0.00000000000E+00 -0.00000000000E+00 -0.33270388832E+04  0.33270388832E+04  0.00000000000E+00 0. -1.
         23    2    1    2    0    0 -0.78591686690E+02 -0.57615430395E+03 -0.15527499667E+04  0.16607045040E+04  0.93683271261E+02 0.  0.
        254    2    1    2    0    0  0.78591686690E+02  0.57615430395E+03 -0.15524694122E+04  0.18881538836E+04  0.90378834762E+03 0.  0.
         23    2    4    4    0    0  0.46318957701E+03  0.22293034886E+03 -0.57920571766E+03  0.77976128992E+03  0.91136607341E+02 0.  0.
         23    2    4    4    0    0 -0.38459789032E+03  0.35322395510E+03 -0.97326369454E+03  0.11083925937E+04  0.92785898686E+02 0.  0.
          4    1    3    3  502    0 -0.50946479629E+02 -0.49859048203E+03 -0.14026512699E+04  0.14895028021E+04  0.00000000000E+00 0. -1.
         -4    1    3    3    0  502 -0.27645207061E+02 -0.77563821926E+02 -0.15009869681E+03  0.17120170189E+03  0.00000000000E+00 0.  1.
         13    1    5    5    0    0  0.19247784331E+03  0.45927042306E+02 -0.19993471004E+03  0.28130215367E+03  0.00000000000E+00 0. -1.
        -13    1    5    5    0    0  0.27071173371E+03  0.17700330655E+03 -0.37927100762E+03  0.49845913625E+03  0.00000000000E+00 0.  1.
          1    1    6    6  503    0 -0.12515090763E+03  0.15933309627E+03 -0.31110819978E+03  0.37126553465E+03  0.00000000000E+00 0. -1.
         -1    1    6    6    0  503 -0.25944698269E+03  0.19389085883E+03 -0.66215549477E+03  0.73712705907E+03  0.00000000000E+00 0.  1.
<mgrwt>
<rscale>  0 0.17181410E+04</rscale>
<asrwt>0</asrwt>
<pdfrwt beam="1">  1        2 0.51185212E+00 0.17181410E+04</pdfrwt>
<pdfrwt beam="2">  1       -2 0.34126078E-01 0.17181410E+04</pdfrwt>
<totfact> 0.82250308E+00</totfact>
</mgrwt>
</event>
<event>
12    3  0.4773567E-008  0.2487388E+04  0.7818608E-02  0.8407492E-01
         -2   -1    0    0    0  501 -0.00000000000E+00  0.00000000000E+00  0.27069090401E+04  0.27069090401E+04  0.00000000000E+00 0.  1.
          2   -1    0    0  501    0  0.00000000000E+00 -0.00000000000E+00 -0.57141733473E+03  0.57141733473E+03  0.00000000000E+00 0. -1.
         23    2    1    2    0    0 -0.71265030411E+02 -0.10474523044E+04  0.12332003038E+04  0.16222171101E+04  0.92576067636E+02 0.  0.
        254    2    1    2    0    0  0.71265030411E+02  0.10474523044E+04  0.90229140154E+03  0.16561092647E+04  0.90902865125E+03 0.  0.
         23    2    4    4    0    0 -0.27514755778E+03  0.97967836134E+03  0.70683913194E+03  0.12421967894E+04  0.89193245212E+02 0.  0.
         23    2    4    4    0    0  0.34641258820E+03  0.67773943104E+02  0.19545226960E+03  0.41391247531E+03  0.92341533980E+02 0.  0.
          4    1    3    3  502    0 -0.14162409683E+02 -0.22090499260E+02  0.21924641749E+02  0.34194355110E+02  0.00000000000E+00 0. -1.
         -4    1    3    3    0  502 -0.57102620728E+02 -0.10253618052E+04  0.12112756620E+04  0.15880227550E+04  0.00000000000E+00 0.  1.
         13    1    5    5    0    0 -0.17854730348E+03  0.70684146183E+03  0.54806697170E+03  0.91207532431E+03  0.00000000000E+00 0. -1.
        -13    1    5    5    0    0 -0.96600254306E+02  0.27283689951E+03  0.15877216024E+03  0.33012146512E+03  0.00000000000E+00 0.  1.
          4    1    6    6  503    0  0.49998244182E+02 -0.18006513292E+02  0.10551779891E+02  0.54179322634E+02  0.00000000000E+00 0. -1.
         -4    1    6    6    0  503  0.29641434401E+03  0.85780456396E+02  0.18490048971E+03  0.35973315267E+03  0.00000000000E+00 0.  1.
<mgrwt>
<rscale>  0 0.24873880E+04</rscale>
<asrwt>0</asrwt>
<pdfrwt beam="1">  1        2 0.87910360E-01 0.24873880E+04</pdfrwt>
<pdfrwt beam="2">  1       -2 0.41644754E+00 0.24873880E+04</pdfrwt>
<totfact> 0.27181287E-01</totfact>
</mgrwt>
</event>
<event>
12    3  0.4773567E-008  0.1248425E+04  0.7818608E-02  0.9071495E-01
         -2   -1    0    0    0  501 -0.00000000000E+00  0.00000000000E+00  0.49654871618E+03  0.49654871618E+03  0.00000000000E+00 0.  1.
          2   -1    0    0  501    0  0.00000000000E+00 -0.00000000000E+00 -0.78469858956E+03  0.78469858956E+03  0.00000000000E+00 0. -1.
         23    2    1    2    0    0 -0.85000048370E+01 -0.75163284487E+02  0.21868512193E+03  0.24961111423E+03  0.93598912265E+02 0.  0.
        254    2    1    2    0    0  0.85000048370E+01  0.75163284487E+02 -0.50683499531E+03  0.10316361915E+04  0.89536012294E+03 0.  0.
         23    2    4    4    0    0 -0.20653495020E+03  0.39830380831E+03 -0.42269137120E+03  0.62448547453E+03  0.10005749967E+03 0.  0.
         23    2    4    4    0    0  0.21503495504E+03 -0.32314052382E+03 -0.84143624110E+02  0.40715071698E+03  0.89619902011E+02 0.  0.
          1    1    3    3  502    0 -0.13701018620E+02 -0.72104974056E+02  0.22743403854E+03  0.23898344520E+03  0.00000000000E+00 0.  1.
         -1    1    3    3    0  502  0.52010137834E+01 -0.30583104308E+01 -0.87489166113E+01  0.10627669027E+02  0.00000000000E+00 0. -1.
         13    1    5    5    0    0 -0.13410645199E+03  0.23224679050E+03 -0.31511401453E+03  0.41378732982E+03  0.00000000000E+00 0.  1.
        -13    1    5    5    0    0 -0.72428498217E+02  0.16605701780E+03 -0.10757735667E+03  0.21069814471E+03  0.00000000000E+00 0. -1.
          2    1    6    6  503    0  0.12943111744E+03 -0.16711838245E+03 -0.88442757967E+02  0.22913552617E+03  0.00000000000E+00 0. -1.
         -2    1    6    6    0  503  0.85603837605E+02 -0.15602214137E+03  0.42991338567E+01  0.17801519082E+03  0.00000000000E+00 0.  1.
<mgrwt>
<rscale>  0 0.12484247E+04</rscale>
<asrwt>0</asrwt>
<pdfrwt beam="1">  1        2 0.12072286E+00 0.12484247E+04</pdfrwt>
<pdfrwt beam="2">  1       -2 0.76392110E-01 0.12484247E+04</pdfrwt>
<totfact> 0.53307251E+01</totfact>
</mgrwt>
</event>
<event>
12    3  0.4773567E-008  0.1765465E+04  0.7818608E-02  0.8724883E-01
          1   -1    0    0  501    0  0.00000000000E+00  0.00000000000E+00  0.18239687441E+04  0.18239687441E+04  0.00000000000E+00 0. -1.
         -1   -1    0    0    0  501 -0.00000000000E+00 -0.00000000000E+00 -0.42720945497E+03  0.42720945497E+03  0.00000000000E+00 0.  1.
         23    2    1    2    0    0  0.54059596136E+03  0.97496239526E+02  0.95546839413E+03  0.11058698294E+04  0.90987456598E+02 0.  0.
        254    2    1    2    0    0 -0.54059596136E+03 -0.97496239526E+02  0.44129089497E+03  0.11453083696E+04  0.90290868719E+03 0.  0.
         23    2    4    4    0    0 -0.77606964083E+03 -0.15270192160E+03  0.35977025120E+03  0.87331972565E+03  0.87468538881E+02 0.  0.
         23    2    4    4    0    0  0.23547367946E+03  0.55205682077E+02  0.81520643777E+02  0.27198864398E+03  0.94003649067E+02 0.  0.
          2    1    3    3  502    0  0.42022039272E+03  0.39730742121E+02  0.69391513203E+03  0.81220805265E+03  0.00000000000E+00 0. -1.
         -2    1    3    3    0  502  0.12037556864E+03  0.57765497405E+02  0.26155326210E+03  0.29366177676E+03  0.00000000000E+00 0.  1.
         13    1    5    5    0    0 -0.66433117416E+03 -0.11462996280E+03  0.27544581434E+03  0.72824881323E+03  0.00000000000E+00 0.  1.
        -13    1    5    5    0    0 -0.11173846666E+03 -0.38071958803E+02  0.84324436855E+02  0.14507091242E+03  0.00000000000E+00 0. -1.
          4    1    6    6  503    0  0.11722787174E+03  0.25695313225E+02 -0.87439666374E+01  0.12032904881E+03  0.00000000000E+00 0. -1.
         -4    1    6    6    0  503  0.11824580772E+03  0.29510368852E+02  0.90264610414E+02  0.15165959517E+03  0.00000000000E+00 0.  1.
<mgrwt>
<rscale>  0 0.17654650E+04</rscale>
<asrwt>0</asrwt>
<pdfrwt beam="1">  1        1 0.28061057E+00 0.17654650E+04</pdfrwt>
<pdfrwt beam="2">  1       -1 0.65724532E-01 0.17654650E+04</pdfrwt>
<totfact> 0.87138837E+00</totfact>
</mgrwt>
</event>
<event>
12    3  0.4773567E-008  0.1791514E+04  0.7818608E-02  0.8710825E-01
          2   -1    0    0  501    0  0.00000000000E+00  0.00000000000E+00  0.70266586266E+03  0.70266586266E+03  0.00000000000E+00 0.  1.
         -2   -1    0    0    0  501 -0.00000000000E+00 -0.00000000000E+00 -0.11419089677E+04  0.11419089677E+04  0.00000000000E+00 0. -1.
         23    2    1    2    0    0  0.18686963400E+03 -0.21102939570E+03 -0.78912370314E+03  0.84411519286E+03  0.10178690482E+03 0.  0.
        254    2    1    2    0    0 -0.18686963400E+03  0.21102939570E+03  0.34988059811E+03  0.10004596375E+04  0.89389562444E+03 0.  0.
         23    2    4    4    0    0 -0.36285475851E+03  0.47262778097E+03  0.28181512486E+03  0.66538584506E+03  0.90983312146E+02 0.  0.
         23    2    4    4    0    0  0.17598512451E+03 -0.26159838527E+03  0.68065473243E+02  0.33507379244E+03  0.90758242095E+02 0.  0.
          1    1    3    3  502    0  0.11700803859E+03 -0.19158174192E+03 -0.54425957895E+03  0.58873842597E+03  0.00000000000E+00 0. -1.
         -1    1    3    3    0  502  0.69861595405E+02 -0.19447653774E+02 -0.24486412419E+03  0.25537676688E+03  0.00000000000E+00 0.  1.
         13    1    5    5    0    0 -0.30613082693E+03  0.43176268346E+03  0.27106759734E+03  0.59465346241E+03  0.00000000000E+00 0. -1.
        -13    1    5    5    0    0 -0.56723931576E+02  0.40865097517E+02  0.10747527523E+02  0.70732382657E+02  0.00000000000E+00 0.  1.
          4    1    6    6  503    0  0.16411230782E+03 -0.22471426756E+03  0.28536196876E+02  0.27972069311E+03  0.00000000000E+00 0. -1.
         -4    1    6    6    0  503  0.11872816694E+02 -0.36884117716E+02  0.39529276367E+02  0.55353099336E+02  0.00000000000E+00 0.  1.
<mgrwt>
<rscale>  0 0.17915138E+04</rscale>
<asrwt>0</asrwt>
<pdfrwt beam="1">  1        2 0.10810244E+00 0.17915138E+04</pdfrwt>
<pdfrwt beam="2">  1       -2 0.17567830E+00 0.17915138E+04</pdfrwt>
<totfact> 0.74807804E+00</totfact>
</mgrwt>
</event>
<event>
12    3  0.4773567E-008  0.2810486E+04  0.7818608E-02  0.8300020E-01
         -2   -1    0    0    0  501 -0.00000000000E+00  0.00000000000E+00  0.17316376542E+04  0.17316376542E+04  0.00000000000E+00 0.  1.
          2   -1    0    0  501    0  0.00000000000E+00 -0.00000000000E+00 -0.11403702994E+04  0.11403702994E+04  0.00000000000E+00 0. -1.
         23    2    1    2    0    0  0.13026241127E+03 -0.88999343905E+03 -0.64042226567E+03  0.11079981573E+04  0.91992504079E+02 0.  0.
        254    2    1    2    0    0 -0.13026241127E+03  0.88999343905E+03  0.12316896205E+04  0.17640097964E+04  0.88634904140E+03 0.  0.
         23    2    4    4    0    0  0.26026167883E+03  0.37653504498E+02  0.49702493715E+03  0.56968957098E+03  0.91424784739E+02 0.  0.
         23    2    4    4    0    0 -0.39052409010E+03  0.85233993456E+03  0.73466468331E+03  0.11943202254E+04  0.87613782510E+02 0.  0.
          1    1    3    3  502    0  0.13104753814E+03 -0.61507315840E+03 -0.43097941450E+03  0.76238553446E+03  0.00000000000E+00 0. -1.
         -1    1    3    3    0  502 -0.78512687133E+00 -0.27492028066E+03 -0.20944285118E+03  0.34561262282E+03  0.00000000000E+00 0.  1.
         13    1    5    5    0    0 -0.71420518766E+01 -0.11172613855E+01  0.67606921084E+01  0.98976833550E+01  0.00000000000E+00 0.  1.
        -13    1    5    5    0    0  0.26740373071E+03  0.38770765883E+02  0.49026424504E+03  0.55979188762E+03  0.00000000000E+00 0. -1.
          4    1    6    6  503    0  0.24808337945E+01  0.30739338810E+02  0.22295673208E+02  0.38054678169E+02  0.00000000000E+00 0.  1.
         -4    1    6    6    0  503 -0.39300492390E+03  0.82160059575E+03  0.71236901010E+03  0.11562655472E+04  0.00000000000E+00 0. -1.
<mgrwt>
<rscale>  0 0.28104862E+04</rscale>
<asrwt>0</asrwt>
<pdfrwt beam="1">  1        2 0.17544158E+00 0.28104862E+04</pdfrwt>
<pdfrwt beam="2">  1       -2 0.26640579E+00 0.28104862E+04</pdfrwt>
<totfact> 0.91207421E-01</totfact>
</mgrwt>
</event>
<event>
12    3  0.4773567E-008  0.1908131E+04  0.7818608E-02  0.8650819E-01
          2   -1    0    0  501    0  0.00000000000E+00  0.00000000000E+00  0.39660322065E+04  0.39660322065E+04  0.00000000000E+00 0. -1.
         -2   -1    0    0    0  501 -0.00000000000E+00 -0.00000000000E+00 -0.22950934434E+03  0.22950934434E+03  0.00000000000E+00 0.  1.
         23    2    1    2    0    0  0.48396050395E+03 -0.34243947089E+03  0.50013377389E+03  0.78400769809E+03  0.11424411698E+03 0.  0.
        254    2    1    2    0    0 -0.48396050395E+03  0.34243947089E+03  0.32363890882E+04  0.34115338527E+04  0.90159100329E+03 0.  0.
         23    2    4    4    0    0 -0.39892886589E+03 -0.23218997688E+03  0.11194089198E+04  0.12143862776E+04  0.92743065433E+02 0.  0.
         23    2    4    4    0    0 -0.85031638058E+02  0.57462944778E+03  0.21169801685E+04  0.21971475751E+04  0.91777183514E+02 0.  0.
          1    1    3    3  502    0  0.61335704329E+02 -0.16578654680E+02  0.93644574151E+02  0.11316459996E+03  0.00000000000E+00 0. -1.
         -1    1    3    3    0  502  0.42262479962E+03 -0.32586081621E+03  0.40648919973E+03  0.67084309812E+03  0.00000000000E+00 0.  1.
         13    1    5    5    0    0 -0.54172723457E+02 -0.71136820227E+02  0.24328137432E+03  0.25919289776E+03  0.00000000000E+00 0.  1.
        -13    1    5    5    0    0 -0.34475614244E+03 -0.16105315666E+03  0.87612754545E+03  0.95519337985E+03  0.00000000000E+00 0. -1.
          4    1    6    6  503    0 -0.74796582431E+01  0.33592570343E+03  0.12776181428E+04  0.13210640190E+04  0.00000000000E+00 0. -1.
         -4    1    6    6    0  503 -0.77551979815E+02  0.23870374435E+03  0.83936202562E+03  0.87608355606E+03  0.00000000000E+00 0.  1.
<mgrwt>
<rscale>  0 0.19081315E+04</rscale>
<asrwt>0</asrwt>
<pdfrwt beam="1">  1        2 0.61015875E+00 0.19081315E+04</pdfrwt>
<pdfrwt beam="2">  1       -2 0.35309133E-01 0.19081315E+04</pdfrwt>
<totfact> 0.25996369E+00</totfact>
</mgrwt>
</event>
<event>
12    3  0.4773567E-008  0.9973814E+03  0.7818608E-02  0.9311421E-01
         -2   -1    0    0    0  501 -0.00000000000E+00  0.00000000000E+00  0.11615576283E+03  0.11615576283E+03  0.00000000000E+00 0.  1.
          2   -1    0    0  501    0  0.00000000000E+00 -0.00000000000E+00 -0.21410253246E+04  0.21410253246E+04  0.00000000000E+00 0. -1.
         23    2    1    2    0    0  0.55294020355E+02  0.30141097741E+02 -0.17858924432E+03  0.20952255620E+03  0.89664200828E+02 0.  0.
        254    2    1    2    0    0 -0.55294020355E+02 -0.30141097741E+02 -0.18462803174E+04  0.20476585312E+04  0.88328281737E+03 0.  0.
         23    2    4    4    0    0  0.27308758495E+03  0.28213363814E+03 -0.64551080707E+03  0.76101427310E+03  0.91007158980E+02 0.  0.
         23    2    4    4    0    0 -0.32838160530E+03 -0.31227473588E+03 -0.12007695103E+04  0.12866442581E+04  0.90862756787E+02 0.  0.
          4    1    3    3  502    0  0.48327696348E+02  0.52936613558E+02 -0.16946329238E+03  0.18399907269E+03  0.00000000000E+00 0. -1.
         -4    1    3    3    0  502  0.69663240070E+01 -0.22795515817E+02 -0.91259519481E+01  0.25523483510E+02  0.00000000000E+00 0.  1.
         13    1    5    5    0    0  0.47013132384E+02  0.10690644458E+03 -0.17533532945E+03  0.21066964723E+03  0.00000000000E+00 0.  1.
        -13    1    5    5    0    0  0.22607445256E+03  0.17522719356E+03 -0.47017547762E+03  0.55034462587E+03  0.00000000000E+00 0. -1.
          1    1    6    6  503    0 -0.33226319748E+03 -0.29528113695E+03 -0.11627112385E+04  0.12447839999E+04  0.00000000000E+00 0. -1.
         -1    1    6    6    0  503  0.38815921768E+01 -0.16993598932E+02 -0.38058271886E+02  0.41860258258E+02  0.00000000000E+00 0.  1.
<mgrwt>
<rscale>  0 0.99738143E+03</rscale>
<asrwt>0</asrwt>
<pdfrwt beam="1">  1        2 0.32938851E+00 0.99738143E+03</pdfrwt>
<pdfrwt beam="2">  1       -2 0.17870117E-01 0.99738143E+03</pdfrwt>
<totfact> 0.14562809E+02</totfact>
</mgrwt>
</event>
<event>
12    3  0.4773567E-008  0.5137805E+04  0.7818608E-02  0.7807594E-01
         -2   -1    0    0    0  501 -0.00000000000E+00  0.00000000000E+00  0.19198545739E+04  0.19198545739E+04  0.00000000000E+00 0.  1.
          2   -1    0    0  501    0  0.00000000000E+00 -0.00000000000E+00 -0.34373749360E+04  0.34373749360E+04  0.00000000000E+00 0. -1.
         23    2    1    2    0    0  0.13147720002E+04 -0.20336063514E+04 -0.13469138125E+04  0.27724534616E+04  0.90228453828E+02 0.  0.
        254    2    1    2    0    0 -0.13147720002E+04  0.20336063514E+04 -0.17060654960E+03  0.25847760483E+04  0.88756995232E+03 0.  0.
         23    2    4    4    0    0 -0.72287295447E+03  0.13097728774E+04 -0.51400298998E+03  0.15845416505E+04  0.92319389289E+02 0.  0.
         23    2    4    4    0    0 -0.59189904574E+03  0.72383347392E+03  0.34339644038E+03  0.10002343978E+04  0.90930506363E+02 0.  0.
          2    1    3    3  502    0  0.11983306486E+04 -0.18445668618E+04 -0.11933826767E+04  0.25025158269E+04  0.00000000000E+00 0. -1.
         -2    1    3    3    0  502  0.11644135166E+03 -0.18903948958E+03 -0.15353113575E+03  0.26993763473E+03  0.00000000000E+00 0.  1.
         13    1    5    5    0    0 -0.15029507544E+03  0.29847675938E+03 -0.76859630759E+02  0.34290580111E+03  0.00000000000E+00 0.  1.
        -13    1    5    5    0    0 -0.57257787903E+03  0.10112961181E+04 -0.43714335922E+03  0.12416358494E+04  0.00000000000E+00 0. -1.
          3    1    6    6  503    0 -0.21884398819E+03  0.26016594044E+03  0.17159890148E+03  0.38082173089E+03  0.00000000000E+00 0. -1.
         -3    1    6    6    0  503 -0.37305505755E+03  0.46366753348E+03  0.17179753890E+03  0.61941266692E+03  0.00000000000E+00 0.  1.
<mgrwt>
<rscale>  0 0.51378050E+04</rscale>
<asrwt>0</asrwt>
<pdfrwt beam="1">  1        2 0.52882690E+00 0.51378050E+04</pdfrwt>
<pdfrwt beam="2">  1       -2 0.29536225E+00 0.51378050E+04</pdfrwt>
<totfact> 0.21919900E-02</totfact>
</mgrwt>
</event>
<event>
12    3  0.4773567E-008  0.1534388E+04  0.7818608E-02  0.8861902E-01
         -1   -1    0    0    0  501 -0.00000000000E+00  0.00000000000E+00  0.30366320019E+03  0.30366320019E+03  0.00000000000E+00 0.  1.
          1   -1    0    0  501    0  0.00000000000E+00 -0.00000000000E+00 -0.19382886170E+04  0.19382886170E+04  0.00000000000E+00 0. -1.
         23    2    1    2    0    0 -0.50683936965E+02 -0.14068286703E+03 -0.12377038221E+04  0.12501250183E+04  0.92419043730E+02 0.  0.
        254    2    1    2    0    0  0.50683936965E+02  0.14068286703E+03 -0.39692159471E+03  0.99182679888E+03  0.89655625372E+03 0.  0.
         23    2    4    4    0    0 -0.18666604106E+03 -0.67202005649E+02 -0.57690525035E+03  0.61713801727E+03  0.93162997104E+02 0.  0.
         23    2    4    4    0    0  0.23734997802E+03  0.20788487268E+03  0.17998365564E+03  0.37468878162E+03  0.91904485287E+02 0.  0.
          3    1    3    3  502    0  0.10448449597E+02 -0.99674703082E+02 -0.61957884760E+03  0.62763218921E+03  0.00000000000E+00 0. -1.
         -3    1    3    3    0  502 -0.61132386561E+02 -0.41008163949E+02 -0.61812497453E+03  0.62249282914E+03  0.00000000000E+00 0.  1.
         13    1    5    5    0    0 -0.13420149739E+03 -0.90399420244E+02 -0.42799661078E+03  0.45756223175E+03  0.00000000000E+00 0. -1.
        -13    1    5    5    0    0 -0.52464543674E+02  0.23197414595E+02 -0.14890863957E+03  0.15957578552E+03  0.00000000000E+00 0.  1.
          3    1    6    6  503    0 -0.40555132186E+00  0.32658438664E+02  0.11290628632E+02  0.34557435998E+02  0.00000000000E+00 0.  1.
         -3    1    6    6    0  503  0.23775552935E+03  0.17522643402E+03  0.16869302700E+03  0.34013134562E+03  0.00000000000E+00 0. -1.
<mgrwt>
<rscale>  0 0.15343884E+04</rscale>
<asrwt>0</asrwt>
<pdfrwt beam="1">  1        1 0.29819825E+00 0.15343884E+04</pdfrwt>
<pdfrwt beam="2">  1       -1 0.46717416E-01 0.15343884E+04</pdfrwt>
<totfact> 0.14457630E+01</totfact>
</mgrwt>
</event>
<event>
12    3  0.4773567E-008  0.2181865E+04  0.7818608E-02  0.8526015E-01
          2   -1    0    0  501    0  0.00000000000E+00  0.00000000000E+00  0.82110655076E+03  0.82110655076E+03  0.00000000000E+00 0. -1.
         -2   -1    0    0    0  501 -0.00000000000E+00 -0.00000000000E+00 -0.14494263293E+04  0.14494263293E+04  0.00000000000E+00 0.  1.
         23    2    1    2    0    0 -0.60541951725E+03 -0.10429277589E+03  0.43205056975E+03  0.75674548699E+03  0.92662086570E+02 0.  0.
        254    2    1    2    0    0  0.60541951725E+03  0.10429277589E+03 -0.10603703483E+04  0.15137873931E+04  0.88868285734E+03 0.  0.
         23    2    4    4    0    0  0.65443718464E+03 -0.25207474946E+03 -0.73625419637E+03  0.10208934984E+04  0.91233685463E+02 0.  0.
         23    2    4    4    0    0 -0.49017667398E+02  0.35636752535E+03 -0.32411615192E+03  0.49289389471E+03  0.92155122847E+02 0.  0.
          1    1    3    3  502    0 -0.49131234769E+03 -0.11879183670E+03  0.33675870652E+03  0.60737611896E+03  0.00000000000E+00 0. -1.
         -1    1    3    3    0  502 -0.11410716955E+03  0.14499060810E+02  0.95291863225E+02  0.14936936803E+03  0.00000000000E+00 0.  1.
         13    1    5    5    0    0  0.83552415535E+02 -0.10062097771E+02 -0.12097256215E+03  0.14736557518E+03  0.00000000000E+00 0.  1.
        -13    1    5    5    0    0  0.57088476911E+03 -0.24201265169E+03 -0.61528163421E+03  0.87352792318E+03  0.00000000000E+00 0. -1.
          2    1    6    6  503    0 -0.58490446690E+02  0.35343529250E+03 -0.32392596152E+03  0.48297584503E+03  0.00000000000E+00 0. -1.
         -2    1    6    6    0  503  0.94727792916E+01  0.29322328525E+01 -0.19019039508E+00  0.99180496770E+01  0.00000000000E+00 0.  1.
<mgrwt>
<rscale>  0 0.21818648E+04</rscale>
<asrwt>0</asrwt>
<pdfrwt beam="1">  1        2 0.12632409E+00 0.21818648E+04</pdfrwt>
<pdfrwt beam="2">  1       -2 0.22298866E+00 0.21818648E+04</pdfrwt>
<totfact> 0.28803180E+00</totfact>
</mgrwt>
</event>
<event>
12    3  0.4773567E-008  0.1418478E+04  0.7818608E-02  0.8940551E-01
          2   -1    0    0  501    0  0.00000000000E+00  0.00000000000E+00  0.20209233057E+04  0.20209233057E+04  0.00000000000E+00 0. -1.
         -2   -1    0    0    0  501 -0.00000000000E+00 -0.00000000000E+00 -0.24890600776E+03  0.24890600776E+03  0.00000000000E+00 0.  1.
         23    2    1    2    0    0  0.24621880577E+02 -0.27262108033E+03  0.10372881021E+04  0.10767814803E+04  0.92537879412E+02 0.  0.
        254    2    1    2    0    0 -0.24621880577E+02  0.27262108033E+03  0.73472919583E+03  0.11930478331E+04  0.89922613982E+03 0.  0.
         23    2    4    4    0    0  0.78369228605E+02  0.48833346971E+03  0.78403600017E+03  0.93123319549E+03  0.88721481027E+02 0.  0.
         23    2    4    4    0    0 -0.10299110918E+03 -0.21571238937E+03 -0.49306804345E+02  0.26181463765E+03  0.94745659716E+02 0.  0.
          1    1    3    3  502    0  0.17846962070E+00 -0.24294160045E+03  0.96252358511E+03  0.99270957735E+03  0.00000000000E+00 0. -1.
         -1    1    3    3    0  502  0.24443410956E+02 -0.29679479877E+02  0.74764517013E+02  0.84071902971E+02  0.00000000000E+00 0.  1.
         13    1    5    5    0    0 -0.10166187607E+02  0.25330970593E+02  0.21454479760E+02  0.34717490454E+02  0.00000000000E+00 0.  1.
        -13    1    5    5    0    0  0.88535416212E+02  0.46300249911E+03  0.76258152041E+03  0.89651570504E+03  0.00000000000E+00 0. -1.
          3    1    6    6  503    0 -0.97425907914E+02 -0.21651452390E+03 -0.27168890022E+02  0.23897383785E+03  0.00000000000E+00 0. -1.
         -3    1    6    6    0  503 -0.55652012676E+01  0.80213452802E+00 -0.22137914323E+02  0.22840799800E+02  0.00000000000E+00 0.  1.
<mgrwt>
<rscale>  0 0.14184780E+04</rscale>
<asrwt>0</asrwt>
<pdfrwt beam="1">  1        2 0.31091127E+00 0.14184780E+04</pdfrwt>
<pdfrwt beam="2">  1       -2 0.38293233E-01 0.14184780E+04</pdfrwt>
<totfact> 0.40741589E+01</totfact>
</mgrwt>
</event>
<event>
12    3  0.4773567E-008  0.1336868E+04  0.7818608E-02  0.9000829E-01
          3   -1    0    0  501    0  0.00000000000E+00  0.00000000000E+00  0.79679566546E+03  0.79679566546E+03  0.00000000000E+00 0. -1.
         -3   -1    0    0    0  501 -0.00000000000E+00 -0.00000000000E+00 -0.56075088705E+03  0.56075088705E+03  0.00000000000E+00 0.  1.
         23    2    1    2    0    0 -0.26437116094E+03  0.21771878900E+03 -0.35792336814E+02  0.35532656260E+03  0.87648690210E+02 0.  0.
        254    2    1    2    0    0  0.26437116094E+03 -0.21771878900E+03  0.27183711522E+03  0.10022199899E+04  0.90180702433E+03 0.  0.
         23    2    4    4    0    0 -0.79092069643E+02 -0.49220830042E+03  0.21366512974E+03  0.54953784369E+03  0.88399589920E+02 0.  0.
         23    2    4    4    0    0  0.34346323058E+03  0.27448951142E+03  0.58171985488E+02  0.45268214621E+03  0.90695440700E+02 0.  0.
          3    1    3    3  502    0 -0.11280282871E+02 -0.71984553543E+01  0.50079310579E+01  0.14287823999E+02  0.00000000000E+00 0. -1.
         -3    1    3    3    0  502 -0.25309087807E+03  0.22491724436E+03 -0.40800267872E+02  0.34103873860E+03  0.00000000000E+00 0.  1.
         13    1    5    5    0    0 -0.40221537042E+02 -0.11413688484E+03  0.18927041939E+02  0.12248768689E+03  0.00000000000E+00 0. -1.
        -13    1    5    5    0    0 -0.38870532601E+02 -0.37807141558E+03  0.19473808780E+03  0.42705015680E+03  0.00000000000E+00 0.  1.
          1    1    6    6  503    0  0.56097411222E+02  0.23223678455E+02  0.35395410982E+02  0.70278687419E+02  0.00000000000E+00 0. -1.
         -1    1    6    6    0  503  0.28736581936E+03  0.25126583296E+03  0.22776574506E+02  0.38240345880E+03  0.00000000000E+00 0.  1.
<mgrwt>
<rscale>  0 0.13368678E+04</rscale>
<asrwt>0</asrwt>
<pdfrwt beam="1">  1        3 0.12258395E+00 0.13368678E+04</pdfrwt>
<pdfrwt beam="2">  1       -3 0.86269367E-01 0.13368678E+04</pdfrwt>
<totfact> 0.16910169E+00</totfact>
</mgrwt>
</event>
<event>
12    3  0.4773567E-008  0.1306290E+04  0.7818608E-02  0.9024592E-01
         -1   -1    0    0    0  501 -0.00000000000E+00  0.00000000000E+00  0.37581899871E+03  0.37581899871E+03  0.00000000000E+00 0.  1.
          1   -1    0    0  501    0  0.00000000000E+00 -0.00000000000E+00 -0.11351164867E+04  0.11351164867E+04  0.00000000000E+00 0. -1.
         23    2    1    2    0    0 -0.27504999046E+03 -0.20997927136E+02  0.22408199419E+02  0.29166567181E+03  0.92050673634E+02 0.  0.
        254    2    1    2    0    0  0.27504999046E+03  0.20997927136E+02 -0.78170568738E+03  0.12192698136E+04  0.89412621392E+03 0.  0.
         23    2    4    4    0    0  0.16697851075E+03  0.12684031508E+03 -0.94954349600E+03  0.97668400462E+03  0.91151003804E+02 0.  0.
         23    2    4    4    0    0  0.10807147971E+03 -0.10584238794E+03  0.16783780862E+03  0.24258580896E+03  0.88296596166E+02 0.  0.
          4    1    3    3  502    0  0.68700012744E+01 -0.15607260499E+00 -0.36444051976E+01  0.77783652146E+01  0.00000000000E+00 0. -1.
         -4    1    3    3    0  502 -0.28191999174E+03 -0.20841854532E+02  0.26052604616E+02  0.28388730660E+03  0.00000000000E+00 0.  1.
         13    1    5    5    0    0  0.73298672774E+02  0.10535806463E+03 -0.63257982529E+03  0.64546901752E+03  0.00000000000E+00 0. -1.
        -13    1    5    5    0    0  0.93679837977E+02  0.21482250450E+02 -0.31696367071E+03  0.33121498710E+03  0.00000000000E+00 0.  1.
          2    1    6    6  503    0  0.38152829436E+02 -0.72254488285E+02  0.13616782578E+03  0.15880184586E+03  0.00000000000E+00 0. -1.
         -2    1    6    6    0  503  0.69918650276E+02 -0.33587899655E+02  0.31669982843E+02  0.83783963101E+02  0.00000000000E+00 0.  1.
<mgrwt>
<rscale>  0 0.13062899E+04</rscale>
<asrwt>0</asrwt>
<pdfrwt beam="1">  1        1 0.17463331E+00 0.13062899E+04</pdfrwt>
<pdfrwt beam="2">  1       -1 0.57818307E-01 0.13062899E+04</pdfrwt>
<totfact> 0.35507928E+01</totfact>
</mgrwt>
</event>
<event>
12    3  0.4773567E-008  0.2398122E+04  0.7818608E-02  0.8440207E-01
         -2   -1    0    0    0  501 -0.00000000000E+00  0.00000000000E+00  0.49720954305E+03  0.49720954305E+03  0.00000000000E+00 0.  1.
          2   -1    0    0  501    0  0.00000000000E+00 -0.00000000000E+00 -0.28916323751E+04  0.28916323751E+04  0.00000000000E+00 0. -1.
         23    2    1    2    0    0 -0.25314257844E+03  0.98664615104E+03 -0.12333971293E+04  0.16021580160E+04  0.89944634786E+02 0.  0.
        254    2    1    2    0    0  0.25314257844E+03 -0.98664615104E+03 -0.11610257028E+04  0.17866839022E+04  0.89816863193E+03 0.  0.
         23    2    4    4    0    0  0.45462011644E+03 -0.39054278702E+03 -0.20890453482E+03  0.64180424619E+03  0.95228498828E+02 0.  0.
         23    2    4    4    0    0 -0.20147753800E+03 -0.59610336401E+03 -0.95212116796E+03  0.11448796560E+04  0.91007083763E+02 0.  0.
          2    1    3    3  502    0  0.12728210960E+01  0.26341654781E+02 -0.15935110480E+02  0.30812831681E+02  0.00000000000E+00 0. -1.
         -2    1    3    3    0  502 -0.25441539953E+03  0.96030449625E+03 -0.12174620188E+04  0.15713451843E+04  0.00000000000E+00 0.  1.
         13    1    5    5    0    0  0.39795670400E+03 -0.36174987115E+03 -0.15846709558E+03  0.56066418462E+03  0.00000000000E+00 0.  1.
        -13    1    5    5    0    0  0.56663412436E+02 -0.28792915876E+02 -0.50437439246E+02  0.81140061568E+02  0.00000000000E+00 0. -1.
          2    1    6    6  503    0 -0.19144968329E+02 -0.14415912211E+02 -0.20481145916E+02  0.31525000796E+02  0.00000000000E+00 0. -1.
         -2    1    6    6    0  503 -0.18233256968E+03 -0.58168745180E+03 -0.93164002204E+03  0.11133546552E+04  0.00000000000E+00 0.  1.
<mgrwt>
<rscale>  0 0.23981219E+04</rscale>
<asrwt>0</asrwt>
<pdfrwt beam="1">  1        2 0.44486651E+00 0.23981219E+04</pdfrwt>
<pdfrwt beam="2">  1       -2 0.76493777E-01 0.23981219E+04</pdfrwt>
<totfact> 0.27951430E+00</totfact>
</mgrwt>
</event>
<event>
12    3  0.4773567E-008  0.3277957E+04  0.7818608E-02  0.8168527E-01
          2   -1    0    0  501    0  0.00000000000E+00  0.00000000000E+00  0.29462824158E+04  0.29462824158E+04  0.00000000000E+00 0. -1.
         -2   -1    0    0    0  501 -0.00000000000E+00 -0.00000000000E+00 -0.91174264213E+03  0.91174264213E+03  0.00000000000E+00 0.  1.
         23    2    1    2    0    0  0.59083006891E+03  0.61480569646E+03 -0.52740648329E+03  0.10068658375E+04  0.92493250246E+02 0.  0.
        254    2    1    2    0    0 -0.59083006891E+03 -0.61480569646E+03  0.25619462569E+04  0.28511592204E+04  0.91568229319E+03 0.  0.
         23    2    4    4    0    0 -0.51233294773E+03 -0.69602073367E+03  0.25631172498E+04  0.27064764447E+04  0.92275664051E+02 0.  0.
         23    2    4    4    0    0 -0.78497121177E+02  0.81215037208E+02 -0.11709928847E+01  0.14468277576E+03  0.90410475474E+02 0.  0.
          4    1    3    3  502    0  0.66579191679E+02  0.11759938779E+03 -0.85106159015E+02  0.15970429886E+03  0.00000000000E+00 0. -1.
         -4    1    3    3    0  502  0.52425087723E+03  0.49720630868E+03 -0.44230032427E+03  0.84716153862E+03  0.00000000000E+00 0.  1.
         13    1    5    5    0    0 -0.13019460825E+03 -0.11732815228E+03  0.55166618283E+03  0.57883685838E+03  0.00000000000E+00 0.  1.
        -13    1    5    5    0    0 -0.38213833948E+03 -0.57869258139E+03  0.20114510670E+04  0.21276395863E+04  0.00000000000E+00 0. -1.
          3    1    6    6  503    0 -0.81208951176E+02  0.91601311622E+02 -0.18989993202E+02  0.12388024009E+03  0.00000000000E+00 0. -1.
         -3    1    6    6    0  503  0.27118299982E+01 -0.10386274415E+02  0.17819000317E+02  0.20802535674E+02  0.00000000000E+00 0.  1.
<mgrwt>
<rscale>  0 0.32779575E+04</rscale>
<asrwt>0</asrwt>
<pdfrwt beam="1">  1        2 0.45327421E+00 0.32779575E+04</pdfrwt>
<pdfrwt beam="2">  1       -2 0.14026810E+00 0.32779575E+04</pdfrwt>
<totfact> 0.56205861E-01</totfact>
</mgrwt>
</event>
<event>
12    3  0.4773567E-008  0.3162817E+04  0.7818608E-02  0.8198707E-01
          2   -1    0    0  501    0  0.00000000000E+00  0.00000000000E+00  0.23179273509E+04  0.23179273509E+04  0.00000000000E+00 0. -1.
         -2   -1    0    0    0  501 -0.00000000000E+00 -0.00000000000E+00 -0.10789179032E+04  0.10789179032E+04  0.00000000000E+00 0.  1.
         23    2    1    2    0    0 -0.71835462328E+03  0.11412459547E+04  0.71406960094E+02  0.13534287083E+04  0.90524142632E+02 0.  0.
        254    2    1    2    0    0  0.71835462328E+03 -0.11412459547E+04  0.11676024875E+04  0.20434165458E+04  0.99688510715E+03 0.  0.
         23    2    4    4    0    0  0.83657798157E+03 -0.12118622374E+04  0.11620723316E+04  0.18781513327E+04  0.92560914493E+02 0.  0.
         23    2    4    4    0    0 -0.11822335829E+03  0.70616282671E+02  0.55301559291E+01  0.16526521314E+03  0.91206283906E+02 0.  0.
          3    1    3    3  502    0 -0.51967869245E+03  0.76036094708E+03  0.24791672709E+02  0.92131934761E+03  0.00000000000E+00 0. -1.
         -3    1    3    3    0  502 -0.19867593083E+03  0.38088500766E+03  0.46615287384E+02  0.43210936066E+03  0.00000000000E+00 0.  1.
         13    1    5    5    0    0  0.64061565834E+03 -0.99065290760E+03  0.91628659907E+03  0.14937746606E+04  0.00000000000E+00 0.  1.
        -13    1    5    5    0    0  0.19596232323E+03 -0.22120932981E+03  0.24578573254E+03  0.38437667208E+03  0.00000000000E+00 0. -1.
          4    1    6    6  503    0 -0.12587037521E+03  0.82887664191E+02  0.53238623844E+01  0.15080470729E+03  0.00000000000E+00 0.  1.
         -4    1    6    6    0  503  0.76470169193E+01 -0.12271381521E+02  0.20629354475E+00  0.14460505842E+02  0.00000000000E+00 0. -1.
<mgrwt>
<rscale>  0 0.31628173E+04</rscale>
<asrwt>0</asrwt>
<pdfrwt beam="1">  1        2 0.35660421E+00 0.31628173E+04</pdfrwt>
<pdfrwt beam="2">  1       -2 0.16598737E+00 0.31628173E+04</pdfrwt>
<totfact> 0.85179527E-01</totfact>
</mgrwt>
</event>
<event>
12    3  0.4773567E-008  0.1582521E+04  0.7818608E-02  0.8831359E-01
          1   -1    0    0  501    0  0.00000000000E+00  0.00000000000E+00  0.25711376498E+04  0.25711376498E+04  0.00000000000E+00 0. -1.
         -1   -1    0    0    0  501 -0.00000000000E+00 -0.00000000000E+00 -0.24350812717E+03  0.24350812717E+03  0.00000000000E+00 0.  1.
         23    2    1    2    0    0 -0.28471590282E+03 -0.29248873925E+03  0.13686242461E+04  0.14307516336E+04  0.85469889905E+02 0.  0.
        254    2    1    2    0    0  0.28471590282E+03  0.29248873925E+03  0.95900527653E+03  0.13838941434E+04  0.91041697686E+03 0.  0.
         23    2    4    4    0    0  0.16081635291E+03  0.59607302574E+03  0.78086126470E+03  0.99953856939E+03  0.90377461899E+02 0.  0.
         23    2    4    4    0    0  0.12389954991E+03 -0.30358428649E+03  0.17814401183E+03  0.38435557399E+03  0.92083662116E+02 0.  0.
          2    1    3    3  502    0 -0.26481190364E+03 -0.24473265831E+03  0.12574448519E+04  0.13081234551E+04  0.00000000000E+00 0. -1.
         -2    1    3    3    0  502 -0.19903999180E+02 -0.47756080940E+02  0.11117939419E+03  0.12262817842E+03  0.00000000000E+00 0.  1.
         13    1    5    5    0    0  0.16448907095E+02  0.16533626828E+02  0.53684939377E+02  0.58532043162E+02  0.00000000000E+00 0. -1.
        -13    1    5    5    0    0  0.14436744581E+03  0.57953939891E+03  0.72717632532E+03  0.94100652623E+03  0.00000000000E+00 0.  1.
          3    1    6    6  503    0  0.19087344504E+02 -0.12404761930E+03  0.29894508024E+02  0.12901868153E+03  0.00000000000E+00 0. -1.
         -3    1    6    6    0  503  0.10481220541E+03 -0.17953666720E+03  0.14824950381E+03  0.25533689246E+03  0.00000000000E+00 0.  1.
<mgrwt>
<rscale>  0 0.15825207E+04</rscale>
<asrwt>0</asrwt>
<pdfrwt beam="1">  1        1 0.39555962E+00 0.15825207E+04</pdfrwt>
<pdfrwt beam="2">  1       -1 0.37462791E-01 0.15825207E+04</pdfrwt>
<totfact> 0.79917487E+00</totfact>
</mgrwt>
</event>
<event>
12    3  0.4773567E-008  0.1435050E+04  0.7818608E-02  0.8928831E-01
          1   -1    0    0  501    0  0.00000000000E+00  0.00000000000E+00  0.90341921602E+03  0.90341921602E+03  0.00000000000E+00 0. -1.
         -1   -1    0    0    0  501 -0.00000000000E+00 -0.00000000000E+00 -0.56988148389E+03  0.56988148389E+03  0.00000000000E+00 0.  1.
         23    2    1    2    0    0  0.30315463186E+03  0.19426056807E+03  0.28494314849E+03  0.46828532696E+03  0.91970921767E+02 0.  0.
        254    2    1    2    0    0 -0.30315463186E+03 -0.19426056807E+03  0.48594583642E+02  0.10050153729E+04  0.93704565907E+03 0.  0.
         23    2    4    4    0    0 -0.47246897503E+03  0.20822308190E+03 -0.10182565352E+03  0.53403265029E+03  0.90766864295E+02 0.  0.
         23    2    4    4    0    0  0.16931434317E+03 -0.40248364997E+03  0.15042023716E+03  0.47098272266E+03  0.92401525979E+02 0.  0.
          2    1    3    3  502    0  0.30175481287E+03  0.19512507900E+03  0.26061857407E+03  0.44390517534E+03  0.00000000000E+00 0. -1.
         -2    1    3    3    0  502  0.13998189953E+01 -0.86451093414E+00  0.24324574419E+02  0.24380151620E+02  0.00000000000E+00 0.  1.
         13    1    5    5    0    0 -0.21182953460E+03  0.12517898386E+03 -0.83641259849E+02  0.25987956842E+03  0.00000000000E+00 0. -1.
        -13    1    5    5    0    0 -0.26063944043E+03  0.83044098035E+02 -0.18184393672E+02  0.27415308187E+03  0.00000000000E+00 0.  1.
          1    1    6    6  503    0  0.10259165042E+03 -0.25537184773E+03  0.14086491225E+03  0.30916460155E+03  0.00000000000E+00 0. -1.
         -1    1    6    6    0  503  0.66722692750E+02 -0.14711180224E+03  0.95553249121E+01  0.16181812111E+03  0.00000000000E+00 0.  1.
<mgrwt>
<rscale>  0 0.14350497E+04</rscale>
<asrwt>0</asrwt>
<pdfrwt beam="1">  1        1 0.13898757E+00 0.14350497E+04</pdfrwt>
<pdfrwt beam="2">  1       -1 0.87674074E-01 0.14350497E+04</pdfrwt>
<totfact> 0.22503128E+01</totfact>
</mgrwt>
</event>
<event>
12    3  0.4773567E-008  0.1941905E+04  0.7818608E-02  0.8634274E-01
          2   -1    0    0  501    0  0.00000000000E+00  0.00000000000E+00  0.65298997692E+03  0.65298997692E+03  0.00000000000E+00 0. -1.
         -2   -1    0    0    0  501 -0.00000000000E+00 -0.00000000000E+00 -0.14437421833E+04  0.14437421833E+04  0.00000000000E+00 0.  1.
         23    2    1    2    0    0  0.33740911164E+03 -0.18763043117E+03 -0.10145930477E+04  0.10898502476E+04  0.96563049026E+02 0.  0.
        254    2    1    2    0    0 -0.33740911164E+03  0.18763043117E+03  0.22384084123E+03  0.10068819127E+04  0.90258316881E+03 0.  0.
         23    2    4    4    0    0 -0.51079181677E+02  0.47856055304E+03 -0.71369360956E+02  0.49476641729E+03  0.89838389729E+02 0.  0.
         23    2    4    4    0    0 -0.28632992996E+03 -0.29093012187E+03  0.29521020219E+03  0.51211549542E+03  0.92130627727E+02 0.  0.
          2    1    3    3  502    0  0.13288520609E+03 -0.87244945213E+02 -0.54821413377E+03  0.57079671945E+03  0.00000000000E+00 0. -1.
         -2    1    3    3    0  502  0.20452390555E+03 -0.10038548596E+03 -0.46637891388E+03  0.51905352811E+03  0.00000000000E+00 0.  1.
         13    1    5    5    0    0  0.21750064390E+02  0.19000615253E+03 -0.14658599364E+02  0.19180791911E+03  0.00000000000E+00 0.  1.
        -13    1    5    5    0    0 -0.72829246068E+02  0.28855440052E+03 -0.56710761593E+02  0.30295849818E+03  0.00000000000E+00 0. -1.
          1    1    6    6  503    0 -0.10139822668E+03 -0.15848478916E+03  0.16353881849E+03  0.24928693091E+03  0.00000000000E+00 0. -1.
         -1    1    6    6    0  503 -0.18493170328E+03 -0.13244533271E+03  0.13167138370E+03  0.26282856451E+03  0.00000000000E+00 0.  1.
<mgrwt>
<rscale>  0 0.19419054E+04</rscale>
<asrwt>0</asrwt>
<pdfrwt beam="1">  1        2 0.10046000E+00 0.19419054E+04</pdfrwt>
<pdfrwt beam="2">  1       -2 0.22211418E+00 0.19419054E+04</pdfrwt>
<totfact> 0.39970475E+00</totfact>
</mgrwt>
</event>
<event>
12    3  0.4773567E-008  0.2068943E+04  0.7818608E-02  0.8575049E-01
          2   -1    0    0  501    0  0.00000000000E+00  0.00000000000E+00  0.73745044588E+03  0.73745044588E+03  0.00000000000E+00 0. -1.
         -2   -1    0    0    0  501 -0.00000000000E+00 -0.00000000000E+00 -0.14511226548E+04  0.14511226548E+04  0.00000000000E+00 0.  1.
         23    2    1    2    0    0 -0.57104817549E+03 -0.41963325181E+03 -0.76303225650E+03  0.10455594104E+04  0.93745248072E+02 0.  0.
        254    2    1    2    0    0  0.57104817549E+03  0.41963325181E+03  0.49360047576E+02  0.11430136903E+04  0.89546401216E+03 0.  0.
         23    2    4    4    0    0 -0.17177725488E+03 -0.11013994294E+03  0.43995077593E+02  0.22629108496E+03  0.87371940309E+02 0.  0.
         23    2    4    4    0    0  0.74282543037E+03  0.52977319474E+03  0.53649699829E+01  0.91672260530E+03  0.88894849614E+02 0.  0.
          4    1    3    3  502    0 -0.28265339293E+03 -0.19572415560E+03 -0.30317964015E+03  0.45838715059E+03  0.00000000000E+00 0. -1.
         -4    1    3    3    0  502 -0.28839478256E+03 -0.22390909621E+03 -0.45985261635E+03  0.58717225985E+03  0.00000000000E+00 0.  1.
         13    1    5    5    0    0 -0.37870963083E+02  0.19709041552E+01 -0.16654048278E+02  0.41418010963E+02  0.00000000000E+00 0.  1.
        -13    1    5    5    0    0 -0.13390629180E+03 -0.11211084709E+03  0.60649125872E+02  0.18487307399E+03  0.00000000000E+00 0. -1.
          3    1    6    6  503    0  0.65264020746E+03  0.48260734670E+03  0.29102719482E+02  0.81221675664E+03  0.00000000000E+00 0. -1.
         -3    1    6    6    0  503  0.90185222912E+02  0.47165848049E+02 -0.23737749499E+02  0.10450584866E+03  0.00000000000E+00 0.  1.
<mgrwt>
<rscale>  0 0.20689428E+04</rscale>
<asrwt>0</asrwt>
<pdfrwt beam="1">  1        2 0.11345392E+00 0.20689428E+04</pdfrwt>
<pdfrwt beam="2">  1       -2 0.22324964E+00 0.20689428E+04</pdfrwt>
<totfact> 0.33365939E+00</totfact>
</mgrwt>
</event>
<event>
12    3  0.4773567E-008  0.2272283E+04  0.7818608E-02  0.8488930E-01
          1   -1    0    0  501    0  0.00000000000E+00  0.00000000000E+00  0.24757913162E+04  0.24757913162E+04  0.00000000000E+00 0. -1.
         -1   -1    0    0    0  501 -0.00000000000E+00 -0.00000000000E+00 -0.52137575010E+03  0.52137575010E+03  0.00000000000E+00 0.  1.
         23    2    1    2    0    0  0.65375262889E+02 -0.93487340197E+03  0.60828211311E+03  0.11209825660E+04  0.91282974943E+02 0.  0.
        254    2    1    2    0    0 -0.65375262889E+02  0.93487340197E+03  0.13461334530E+04  0.18761845003E+04  0.91089560496E+03 0.  0.
         23    2    4    4    0    0 -0.86481492240E+02  0.10831445306E+04  0.96189266936E+03  0.14540787488E+04  0.91795303282E+02 0.  0.
         23    2    4    4    0    0  0.21106229351E+02 -0.14827112865E+03  0.38424078367E+03  0.42210575149E+03  0.90013805031E+02 0.  0.
          3    1    3    3  502    0  0.55895332564E+02 -0.83375261899E+03  0.57404723914E+03  0.10138037042E+04  0.00000000000E+00 0. -1.
         -3    1    3    3    0  502  0.94799303254E+01 -0.10112078298E+03  0.34234873971E+02  0.10717886184E+03  0.00000000000E+00 0.  1.
         13    1    5    5    0    0 -0.71752843030E+02  0.45871288527E+03  0.37181595193E+03  0.59482189242E+03  0.00000000000E+00 0. -1.
        -13    1    5    5    0    0 -0.14728649210E+02  0.62443164535E+03  0.59007671743E+03  0.85925685641E+03  0.00000000000E+00 0.  1.
          1    1    6    6  503    0  0.22990457973E+02 -0.11692420892E+03  0.36787530042E+03  0.38669376572E+03  0.00000000000E+00 0. -1.
         -1    1    6    6    0  503 -0.18842286223E+01 -0.31346919726E+02  0.16365483250E+02  0.35411985765E+02  0.00000000000E+00 0.  1.
<mgrwt>
<rscale>  0 0.22722830E+04</rscale>
<asrwt>0</asrwt>
<pdfrwt beam="1">  1        1 0.38089097E+00 0.22722830E+04</pdfrwt>
<pdfrwt beam="2">  1       -1 0.80211655E-01 0.22722830E+04</pdfrwt>
<totfact> 0.19788221E+00</totfact>
</mgrwt>
</event>
<event>
12    3  0.4773567E-008  0.3597060E+04  0.7818608E-02  0.8091166E-01
          1   -1    0    0  501    0  0.00000000000E+00  0.00000000000E+00  0.23677525153E+04  0.23677525153E+04  0.00000000000E+00 0. -1.
         -1   -1    0    0    0  501 -0.00000000000E+00 -0.00000000000E+00 -0.13661519910E+04  0.13661519910E+04  0.00000000000E+00 0.  1.
         23    2    1    2    0    0  0.32110999562E+03  0.44850454026E+03  0.20786637153E+04  0.21525290278E+04  0.90941862068E+02 0.  0.
        254    2    1    2    0    0 -0.32110999562E+03 -0.44850454026E+03 -0.10770631910E+04  0.15813754785E+04  0.10180448588E+04 0.  0.
         23    2    4    4    0    0  0.33178639167E+03  0.26780068761E+02 -0.31335249669E+03  0.46606896470E+03  0.90725469956E+02 0.  0.
         23    2    4    4    0    0 -0.65289638729E+03 -0.47528460903E+03 -0.76371069434E+03  0.11153065138E+04  0.92116463950E+02 0.  0.
          1    1    3    3  502    0  0.29944823368E+03  0.44570636838E+03  0.19839949461E+04  0.20553732891E+04  0.00000000000E+00 0. -1.
         -1    1    3    3    0  502  0.21661761942E+02  0.27981718819E+01  0.94668769191E+02  0.97155738669E+02  0.00000000000E+00 0.  1.
         13    1    5    5    0    0  0.26675428777E+03 -0.15566337837E+02 -0.24928923558E+03  0.36543848168E+03  0.00000000000E+00 0. -1.
        -13    1    5    5    0    0  0.65032103897E+02  0.42346406598E+02 -0.64063261106E+02  0.10063048302E+03  0.00000000000E+00 0.  1.
          4    1    6    6  503    0 -0.11822159670E+03 -0.11319099236E+03 -0.19727134992E+03  0.25632895306E+03  0.00000000000E+00 0.  1.
         -4    1    6    6    0  503 -0.53467479059E+03 -0.36209361666E+03 -0.56643934442E+03  0.85897756073E+03  0.00000000000E+00 0. -1.
<mgrwt>
<rscale>  0 0.35970598E+04</rscale>
<asrwt>0</asrwt>
<pdfrwt beam="1">  1        1 0.36426962E+00 0.35970598E+04</pdfrwt>
<pdfrwt beam="2">  1       -1 0.21017723E+00 0.35970598E+04</pdfrwt>
<totfact> 0.17347301E-01</totfact>
</mgrwt>
</event>
<event>
12    3  0.4773567E-008  0.1230431E+04  0.7818608E-02  0.9086629E-01
          1   -1    0    0  501    0  0.00000000000E+00  0.00000000000E+00  0.24771777521E+03  0.24771777521E+03  0.00000000000E+00 0. -1.
         -1   -1    0    0    0  501 -0.00000000000E+00 -0.00000000000E+00 -0.15279089200E+04  0.15279089200E+04  0.00000000000E+00 0.  1.
         23    2    1    2    0    0  0.30361994177E+03  0.10190785486E+03 -0.44734074160E+03  0.55701695182E+03  0.87085392508E+02 0.  0.
        254    2    1    2    0    0 -0.30361994177E+03 -0.10190785486E+03 -0.83285040313E+03  0.12186097433E+04  0.82993953554E+03 0.  0.
         23    2    4    4    0    0 -0.53688233012E+03 -0.10426577306E+03 -0.79098297793E+03  0.96594277059E+03  0.90980090413E+02 0.  0.
         23    2    4    4    0    0  0.23326238834E+03  0.23579182053E+01 -0.41867425208E+02  0.25266697276E+03  0.87583196083E+02 0.  0.
          3    1    3    3  502    0  0.10605371354E+03  0.17297763486E+02 -0.21597649714E+03  0.24123111344E+03  0.00000000000E+00 0. -1.
         -3    1    3    3    0  502  0.19756622823E+03  0.84610091374E+02 -0.23136424447E+03  0.31578583837E+03  0.00000000000E+00 0.  1.
         13    1    5    5    0    0 -0.12289089716E+02 -0.20489107443E+00 -0.15237332766E+01  0.12384888756E+02  0.00000000000E+00 0.  1.
        -13    1    5    5    0    0 -0.52459324040E+03 -0.10406088199E+03 -0.78945924465E+03  0.95355788183E+03  0.00000000000E+00 0. -1.
          1    1    6    6  503    0  0.12752268035E+03 -0.39840125969E+02 -0.77927274392E+01  0.13382823409E+03  0.00000000000E+00 0. -1.
         -1    1    6    6    0  503  0.10573970800E+03  0.42198044175E+02 -0.34074697769E+02  0.11883873867E+03  0.00000000000E+00 0.  1.
<mgrwt>
<rscale>  0 0.12304311E+04</rscale>
<asrwt>0</asrwt>
<pdfrwt beam="1">  1        1 0.38110426E-01 0.12304311E+04</pdfrwt>
<pdfrwt beam="2">  1       -1 0.23506292E+00 0.12304311E+04</pdfrwt>
<totfact> 0.97254476E+00</totfact>
</mgrwt>
</event>
<event>
12    3  0.4773567E-008  0.1433521E+04  0.7818608E-02  0.8929905E-01
          2   -1    0    0  501    0  0.00000000000E+00  0.00000000000E+00  0.70623690838E+03  0.70623690838E+03  0.00000000000E+00 0. -1.
         -2   -1    0    0    0  501 -0.00000000000E+00 -0.00000000000E+00 -0.72744104214E+03  0.72744104214E+03  0.00000000000E+00 0.  1.
         23    2    1    2    0    0 -0.85496943225E+02  0.30362100081E+02 -0.41101611086E+03  0.43352874990E+03  0.10383327590E+03 0.  0.
        254    2    1    2    0    0  0.85496943225E+02 -0.30362100081E+02  0.38981197710E+03  0.10001492006E+04  0.91657703527E+03 0.  0.
         23    2    4    4    0    0  0.35647267473E+03  0.26389472197E+03  0.29306479054E+02  0.45398488366E+03  0.92359150961E+02 0.  0.
         23    2    4    4    0    0 -0.27097573150E+03 -0.29425682206E+03  0.36050549805E+03  0.54616431695E+03  0.91193873693E+02 0.  0.
          4    1    3    3  502    0 -0.30611445571E+02  0.37085838660E+02 -0.54215974360E+02  0.72469247994E+02  0.00000000000E+00 0. -1.
         -4    1    3    3    0  502 -0.54885497655E+02 -0.67237385796E+01 -0.35680013650E+03  0.36105950191E+03  0.00000000000E+00 0.  1.
         13    1    5    5    0    0  0.64794924704E+01  0.16194569305E+02  0.17989795374E+02  0.25057546473E+02  0.00000000000E+00 0.  1.
        -13    1    5    5    0    0  0.34999318226E+03  0.24770015267E+03  0.11316683680E+02  0.42892733719E+03  0.00000000000E+00 0. -1.
          2    1    6    6  503    0 -0.21374879716E+03 -0.27681373225E+03  0.29594706762E+03  0.45814741894E+03  0.00000000000E+00 0. -1.
         -2    1    6    6    0  503 -0.57226934349E+02 -0.17443089808E+02  0.64558430422E+02  0.88016898011E+02  0.00000000000E+00 0.  1.
<mgrwt>
<rscale>  0 0.14335211E+04</rscale>
<asrwt>0</asrwt>
<pdfrwt beam="1">  1        2 0.10865183E+00 0.14335211E+04</pdfrwt>
<pdfrwt beam="2">  1       -2 0.11191401E+00 0.14335211E+04</pdfrwt>
<totfact> 0.24785714E+01</totfact>
</mgrwt>
</event>
<event>
12    3  0.4773567E-008  0.1689532E+04  0.7818608E-02  0.8767357E-01
          2   -1    0    0  501    0  0.00000000000E+00  0.00000000000E+00  0.17163284871E+04  0.17163284871E+04  0.00000000000E+00 0.  1.
         -2   -1    0    0    0  501 -0.00000000000E+00 -0.00000000000E+00 -0.41578850820E+03  0.41578850820E+03  0.00000000000E+00 0. -1.
         23    2    1    2    0    0  0.17327796689E+03 -0.29214475915E+03 -0.11889238372E+03  0.37164485243E+03  0.92793767669E+02 0.  0.
        254    2    1    2    0    0 -0.17327796689E+03  0.29214475915E+03  0.14194323626E+04  0.17604721429E+04  0.98442882916E+03 0.  0.
         23    2    4    4    0    0 -0.88327628149E+02  0.56129074395E+03  0.40268547895E+03  0.70148668204E+03  0.84136204971E+02 0.  0.
         23    2    4    4    0    0 -0.84950338741E+02 -0.26914598480E+03  0.10167468837E+04  0.10589854609E+04  0.89553668899E+02 0.  0.
          1    1    3    3  502    0  0.92736442852E+02 -0.12815921419E+03 -0.10187330446E+03  0.18815685524E+03  0.00000000000E+00 0. -1.
         -1    1    3    3    0  502  0.80541524039E+02 -0.16398554496E+03 -0.17019079269E+02  0.18348799718E+03  0.00000000000E+00 0.  1.
         13    1    5    5    0    0 -0.35652002116E+02  0.39151421906E+03  0.24054318038E+03  0.46088552875E+03  0.00000000000E+00 0.  1.
        -13    1    5    5    0    0 -0.52675626034E+02  0.16977652489E+03  0.16214229856E+03  0.24060115329E+03  0.00000000000E+00 0. -1.
          1    1    6    6  503    0 -0.18666080749E+02 -0.60011343100E+02  0.11626841930E+03  0.13216705035E+03  0.00000000000E+00 0. -1.
         -1    1    6    6    0  503 -0.66284257992E+02 -0.20913464170E+03  0.90047846439E+03  0.92681841050E+03  0.00000000000E+00 0.  1.
<mgrwt>
<rscale>  0 0.16895321E+04</rscale>
<asrwt>0</asrwt>
<pdfrwt beam="1">  1        2 0.26405053E+00 0.16895321E+04</pdfrwt>
<pdfrwt beam="2">  1       -2 0.63967464E-01 0.16895321E+04</pdfrwt>
<totfact> 0.20663842E+01</totfact>
</mgrwt>
</event>
<event>
12    3  0.4773567E-008  0.2220954E+04  0.7818608E-02  0.8509757E-01
         -1   -1    0    0    0  501 -0.00000000000E+00  0.00000000000E+00  0.71654021663E+03  0.71654021663E+03  0.00000000000E+00 0.  1.
          1   -1    0    0  501    0  0.00000000000E+00 -0.00000000000E+00 -0.17209905412E+04  0.17209905412E+04  0.00000000000E+00 0. -1.
         23    2    1    2    0    0  0.35587327496E+03 -0.32787087972E+03 -0.13017969604E+04  0.13921653504E+04  0.96456907372E+02 0.  0.
        254    2    1    2    0    0 -0.35587327496E+03  0.32787087972E+03  0.29734663580E+03  0.10453654075E+04  0.87762674971E+03 0.  0.
         23    2    4    4    0    0 -0.20471746849E+03  0.57669123863E+03  0.38542401305E+03  0.72883167208E+03  0.90343288443E+02 0.  0.
         23    2    4    4    0    0 -0.15115580647E+03 -0.24882035891E+03 -0.88077377246E+02  0.31653373544E+03  0.87614681704E+02 0.  0.
          3    1    3    3  502    0  0.32769865815E+03 -0.27569572953E+03 -0.12028705916E+04  0.12768289650E+04  0.00000000000E+00 0. -1.
         -3    1    3    3    0  502  0.28174616810E+02 -0.52175150195E+02 -0.98926368828E+02  0.11533638532E+03  0.00000000000E+00 0.  1.
         13    1    5    5    0    0 -0.20717752036E+03  0.49218916639E+03  0.33514624377E+03  0.63047260462E+03  0.00000000000E+00 0. -1.
        -13    1    5    5    0    0  0.24600518733E+01  0.84502072240E+02  0.50277769277E+02  0.98359067460E+02  0.00000000000E+00 0.  1.
          4    1    6    6  503    0 -0.13543899062E+03 -0.14267316109E+03 -0.55971091002E+02  0.20452900553E+03  0.00000000000E+00 0. -1.
         -4    1    6    6    0  503 -0.15716815853E+02 -0.10614719782E+03 -0.32106286244E+02  0.11200472991E+03  0.00000000000E+00 0.  1.
<mgrwt>
<rscale>  0 0.22209538E+04</rscale>
<asrwt>0</asrwt>
<pdfrwt beam="1">  1        1 0.26476777E+00 0.22209538E+04</pdfrwt>
<pdfrwt beam="2">  1       -1 0.11023696E+00 0.22209538E+04</pdfrwt>
<totfact> 0.31861517E+00</totfact>
</mgrwt>
</event>
<event>
12    3  0.4773567E-008  0.2370340E+04  0.7818608E-02  0.8450692E-01
          1   -1    0    0  501    0  0.00000000000E+00  0.00000000000E+00  0.32081470063E+04  0.32081470063E+04  0.00000000000E+00 0. -1.
         -1   -1    0    0    0  501 -0.00000000000E+00 -0.00000000000E+00 -0.43783151377E+03  0.43783151377E+03  0.00000000000E+00 0.  1.
         23    2    1    2    0    0  0.33729602355E+03 -0.93581130780E+03  0.14529355078E+04  0.17632505371E+04  0.92300895803E+02 0.  0.
        254    2    1    2    0    0 -0.33729602355E+03  0.93581130780E+03  0.13173799847E+04  0.18827279830E+04  0.90535254045E+03 0.  0.
         23    2    4    4    0    0 -0.45895531566E+03  0.11986716351E+03  0.29568369163E+03  0.56638514319E+03  0.91406598579E+02 0.  0.
         23    2    4    4    0    0  0.12165929212E+03  0.81594414429E+03  0.10216962931E+04  0.13163428398E+04  0.91265144706E+02 0.  0.
          2    1    3    3  502    0  0.66852588894E+02 -0.10624569507E+03  0.20930360939E+03  0.24406027384E+03  0.00000000000E+00 0. -1.
         -2    1    3    3    0  502  0.27044343465E+03 -0.82956561273E+03  0.12436318984E+04  0.15191902633E+04  0.00000000000E+00 0.  1.
         13    1    5    5    0    0 -0.76070935734E+02  0.39920442742E+02  0.21032252245E+02  0.88446507261E+02  0.00000000000E+00 0.  1.
        -13    1    5    5    0    0 -0.38288437993E+03  0.79946720772E+02  0.27465143938E+03  0.47793863593E+03  0.00000000000E+00 0. -1.
          2    1    6    6  503    0  0.36503132373E+02  0.83621330342E+02  0.13877376371E+03  0.16608179628E+03  0.00000000000E+00 0.  1.
         -2    1    6    6    0  503  0.85156159745E+02  0.73232281394E+03  0.88292252938E+03  0.11502610435E+04  0.00000000000E+00 0. -1.
<mgrwt>
<rscale>  0 0.23703399E+04</rscale>
<asrwt>0</asrwt>
<pdfrwt beam="1">  1        1 0.49356106E+00 0.23703399E+04</pdfrwt>
<pdfrwt beam="2">  1       -1 0.67358697E-01 0.23703399E+04</pdfrwt>
<totfact> 0.84122604E-01</totfact>
</mgrwt>
</event>
<event>
12    3  0.4773567E-008  0.2066111E+04  0.7818608E-02  0.8576321E-01
          2   -1    0    0  501    0  0.00000000000E+00  0.00000000000E+00  0.20820074207E+04  0.20820074207E+04  0.00000000000E+00 0. -1.
         -2   -1    0    0    0  501 -0.00000000000E+00 -0.00000000000E+00 -0.51258389605E+03  0.51258389605E+03  0.00000000000E+00 0.  1.
         23    2    1    2    0    0 -0.13498997357E+03 -0.68953609024E+03  0.12005287368E+04  0.13940937767E+04  0.92444024616E+02 0.  0.
        254    2    1    2    0    0  0.13498997357E+03  0.68953609024E+03  0.36889478777E+03  0.12004975400E+04  0.90079335383E+03 0.  0.
         23    2    4    4    0    0  0.12751559859E+03  0.77122491963E+02 -0.26306752030E+03  0.31578087040E+03  0.91131395370E+02 0.  0.
         23    2    4    4    0    0  0.74743749877E+01  0.61241359827E+03  0.63196230807E+03  0.88471666956E+03  0.90779650512E+02 0.  0.
          1    1    3    3  502    0 -0.85450116525E+02 -0.55770049165E+03  0.10135775039E+04  0.11600305674E+04  0.00000000000E+00 0. -1.
         -1    1    3    3    0  502 -0.49539857049E+02 -0.13183559859E+03  0.18695123295E+03  0.23406320940E+03  0.00000000000E+00 0.  1.
         13    1    5    5    0    0 -0.10491913603E+02  0.10113847306E+02 -0.57255652521E+02  0.59081129847E+02  0.00000000000E+00 0.  1.
        -13    1    5    5    0    0  0.13800751219E+03  0.67008644657E+02 -0.20581186778E+03  0.25669974055E+03  0.00000000000E+00 0. -1.
          2    1    6    6  503    0 -0.18232242423E+02  0.51836034448E+03  0.56159953126E+03  0.76447622259E+03  0.00000000000E+00 0. -1.
         -2    1    6    6    0  503  0.25706617410E+02  0.94053253788E+02  0.70362776813E+02  0.12024044697E+03  0.00000000000E+00 0.  1.
<mgrwt>
<rscale>  0 0.20661108E+04</rscale>
<asrwt>0</asrwt>
<pdfrwt beam="1">  1        2 0.32030883E+00 0.20661108E+04</pdfrwt>
<pdfrwt beam="2">  1       -2 0.78859062E-01 0.20661108E+04</pdfrwt>
<totfact> 0.79328958E+00</totfact>
</mgrwt>
</event>
<event>
12    3  0.4773567E-008  0.1852459E+04  0.7818608E-02  0.8678889E-01
          1   -1    0    0  501    0  0.00000000000E+00  0.00000000000E+00  0.17647310694E+04  0.17647310694E+04  0.00000000000E+00 0. -1.
         -1   -1    0    0    0  501 -0.00000000000E+00 -0.00000000000E+00 -0.48613692947E+03  0.48613692947E+03  0.00000000000E+00 0.  1.
         23    2    1    2    0    0 -0.13785550758E+03  0.11247271173E+03 -0.33513991001E+03  0.38991093016E+03  0.89763702742E+02 0.  0.
        254    2    1    2    0    0  0.13785550758E+03 -0.11247271173E+03  0.16137340499E+04  0.18609570687E+04  0.90959846955E+03 0.  0.
         23    2    4    4    0    0  0.12922279019E+03 -0.45419193693E+03  0.50598721834E+03  0.69815301787E+03  0.91682747408E+02 0.  0.
         23    2    4    4    0    0  0.86327173880E+01  0.34171922520E+03  0.11077468316E+04  0.11628040508E+04  0.90353002438E+02 0.  0.
          1    1    3    3  502    0  0.53242185066E+01 -0.48089263394E+01 -0.46351118908E+02  0.46903084112E+02  0.00000000000E+00 0. -1.
         -1    1    3    3    0  502 -0.14317972609E+03  0.11728163807E+03 -0.28878879110E+03  0.34300784605E+03  0.00000000000E+00 0.  1.
         13    1    5    5    0    0 -0.43686475005E+01 -0.10661921747E+03  0.87575380442E+02  0.13804415914E+03  0.00000000000E+00 0. -1.
        -13    1    5    5    0    0  0.13359143769E+03 -0.34757271946E+03  0.41841183789E+03  0.56010885873E+03  0.00000000000E+00 0.  1.
          1    1    6    6  503    0  0.36859191282E+02  0.60380958231E+02  0.21224772100E+03  0.22372651869E+03  0.00000000000E+00 0. -1.
         -1    1    6    6    0  503 -0.28226473894E+02  0.28133826697E+03  0.89549911056E+03  0.93907753210E+03  0.00000000000E+00 0.  1.
<mgrwt>
<rscale>  0 0.18524588E+04</rscale>
<asrwt>0</asrwt>
<pdfrwt beam="1">  1        1 0.27149708E+00 0.18524588E+04</pdfrwt>
<pdfrwt beam="2">  1       -1 0.74790298E-01 0.18524588E+04</pdfrwt>
<totfact> 0.72732496E+00</totfact>
</mgrwt>
</event>
<event>
12    3  0.4773567E-008  0.1472674E+04  0.7818608E-02  0.8902831E-01
          2   -1    0    0  501    0  0.00000000000E+00  0.00000000000E+00  0.55150203279E+03  0.55150203279E+03  0.00000000000E+00 0. -1.
         -2   -1    0    0    0  501 -0.00000000000E+00 -0.00000000000E+00 -0.98311857420E+03  0.98311857420E+03  0.00000000000E+00 0.  1.
         23    2    1    2    0    0 -0.42708273083E+03 -0.80660956997E+02 -0.10157815060E+03  0.45568695459E+03  0.91796682654E+02 0.  0.
        254    2    1    2    0    0  0.42708273083E+03  0.80660956997E+02 -0.33003839080E+03  0.10789336524E+04  0.93073446155E+03 0.  0.
         23    2    4    4    0    0  0.29536352209E+03  0.47516448707E+03 -0.48270029708E+02  0.56914470617E+03  0.92600220531E+02 0.  0.
         23    2    4    4    0    0  0.13171920874E+03 -0.39450353007E+03 -0.28176836109E+03  0.50978894623E+03  0.86650881108E+02 0.  0.
          3    1    3    3  502    0 -0.27456091627E+03 -0.44288626018E+02 -0.19723908147E+02  0.27880855742E+03  0.00000000000E+00 0. -1.
         -3    1    3    3    0  502 -0.15252181456E+03 -0.36372330979E+02 -0.81854242454E+02  0.17687839717E+03  0.00000000000E+00 0.  1.
         13    1    5    5    0    0  0.15959574887E+03  0.23941533099E+03 -0.70326725575E+02  0.29620322770E+03  0.00000000000E+00 0. -1.
        -13    1    5    5    0    0  0.13576777322E+03  0.23574915608E+03  0.22056695867E+02  0.27294147847E+03  0.00000000000E+00 0.  1.
          2    1    6    6  503    0  0.10617315494E+02 -0.17091903701E+02 -0.41934715120E+02  0.46512158546E+02  0.00000000000E+00 0. -1.
         -2    1    6    6    0  503  0.12110189324E+03 -0.37741162637E+03 -0.23983364597E+03  0.46327678768E+03  0.00000000000E+00 0.  1.
<mgrwt>
<rscale>  0 0.14726736E+04</rscale>
<asrwt>0</asrwt>
<pdfrwt beam="1">  1        2 0.84846467E-01 0.14726736E+04</pdfrwt>
<pdfrwt beam="2">  1       -2 0.15124901E+00 0.14726736E+04</pdfrwt>
<totfact> 0.15557889E+01</totfact>
</mgrwt>
</event>
<event>
12    3  0.4773567E-008  0.3205108E+04  0.7818608E-02  0.8187470E-01
          2   -1    0    0  501    0  0.00000000000E+00  0.00000000000E+00  0.43172803929E+04  0.43172803929E+04  0.00000000000E+00 0. -1.
         -2   -1    0    0    0  501 -0.00000000000E+00 -0.00000000000E+00 -0.59486026776E+03  0.59486026776E+03  0.00000000000E+00 0.  1.
         23    2    1    2    0    0  0.12358559502E+04  0.76544593204E+03  0.21312095511E+04  0.25812567108E+04  0.87089907327E+02 0.  0.
        254    2    1    2    0    0 -0.12358559502E+04 -0.76544593204E+03  0.15912105740E+04  0.23308839498E+04  0.88759308929E+03 0.  0.
         23    2    4    4    0    0  0.10172167916E+03  0.19817433404E+02  0.21216446117E+03  0.25341334443E+03  0.92002901460E+02 0.  0.
         23    2    4    4    0    0 -0.13375776293E+04 -0.78526336544E+03  0.13790461128E+04  0.20774706053E+04  0.91451994130E+02 0.  0.
          2    1    3    3  502    0  0.10197396406E+04  0.63534628702E+03  0.17006722150E+04  0.20822631491E+04  0.00000000000E+00 0.  1.
         -2    1    3    3    0  502  0.21611630959E+03  0.13009964502E+03  0.43053733613E+03  0.49899356179E+03  0.00000000000E+00 0. -1.
         13    1    5    5    0    0 -0.60735910812E+01 -0.20386093158E+02  0.52248837674E+02  0.56412962528E+02  0.00000000000E+00 0.  1.
        -13    1    5    5    0    0  0.10779527024E+03  0.40203526561E+02  0.15991562350E+03  0.19700038191E+03  0.00000000000E+00 0. -1.
          4    1    6    6  503    0 -0.10816847576E+04 -0.65714002385E+03  0.11636776433E+04  0.17193081700E+04  0.00000000000E+00 0. -1.
         -4    1    6    6    0  503 -0.25589287173E+03 -0.12812334159E+03  0.21536846949E+03  0.35816243538E+03  0.00000000000E+00 0.  1.
<mgrwt>
<rscale>  0 0.32051075E+04</rscale>
<asrwt>0</asrwt>
<pdfrwt beam="1">  1        2 0.66419696E+00 0.32051075E+04</pdfrwt>
<pdfrwt beam="2">  1       -2 0.91516967E-01 0.32051075E+04</pdfrwt>
<totfact> 0.15622401E-01</totfact>
</mgrwt>
</event>
<event>
12    3  0.4773567E-008  0.2393126E+04  0.7818608E-02  0.8442081E-01
          2   -1    0    0  501    0  0.00000000000E+00  0.00000000000E+00  0.19455993956E+04  0.19455993956E+04  0.00000000000E+00 0. -1.
         -2   -1    0    0    0  501 -0.00000000000E+00 -0.00000000000E+00 -0.73589843147E+03  0.73589843147E+03  0.00000000000E+00 0.  1.
         23    2    1    2    0    0  0.39517715248E+03 -0.93975668768E+03  0.39142586090E+03  0.10958703585E+04  0.91706183531E+02 0.  0.
        254    2    1    2    0    0 -0.39517715248E+03  0.93975668768E+03  0.81827510318E+03  0.15856274686E+04  0.89740331550E+03 0.  0.
         23    2    4    4    0    0 -0.68247305214E+01 -0.11172521651E+03 -0.62471362545E+02  0.15713046539E+03  0.90874699796E+02 0.  0.
         23    2    4    4    0    0 -0.38835242195E+03  0.10514819042E+04  0.88074646573E+03  0.14284970032E+04  0.91964953540E+02 0.  0.
          1    1    3    3  502    0  0.94530405644E+02 -0.24741551697E+03  0.60327219288E+02  0.27164279673E+03  0.00000000000E+00 0. -1.
         -1    1    3    3    0  502  0.30064674683E+03 -0.69234117071E+03  0.33109864161E+03  0.82422756173E+03  0.00000000000E+00 0.  1.
         13    1    5    5    0    0  0.47552857265E+01 -0.99451863605E+02 -0.83657557934E+02  0.13004565704E+03  0.00000000000E+00 0.  1.
        -13    1    5    5    0    0 -0.11580016248E+02 -0.12273352908E+02  0.21186195389E+02  0.27084808343E+02  0.00000000000E+00 0. -1.
          4    1    6    6  503    0 -0.23689536003E+03  0.57308537945E+03  0.53628097469E+03  0.81984361164E+03  0.00000000000E+00 0. -1.
         -4    1    6    6    0  503 -0.15145706193E+03  0.47839652475E+03  0.34446549104E+03  0.60865339153E+03  0.00000000000E+00 0.  1.
<mgrwt>
<rscale>  0 0.23931264E+04</rscale>
<asrwt>0</asrwt>
<pdfrwt beam="1">  1        2 0.29932298E+00 0.23931264E+04</pdfrwt>
<pdfrwt beam="2">  1       -2 0.11321514E+00 0.23931264E+04</pdfrwt>
<totfact> 0.39481747E+00</totfact>
</mgrwt>
</event>
<event>
12    3  0.4773567E-008  0.1929606E+04  0.7818608E-02  0.8640258E-01
         -2   -1    0    0    0  501 -0.00000000000E+00  0.00000000000E+00  0.22364758738E+03  0.22364758738E+03  0.00000000000E+00 0.  1.
          2   -1    0    0  501    0  0.00000000000E+00 -0.00000000000E+00 -0.41621053448E+04  0.41621053448E+04  0.00000000000E+00 0. -1.
         23    2    1    2    0    0  0.54824598297E+03  0.64062731496E+02 -0.38554460570E+03  0.67952233228E+03  0.91805586309E+02 0.  0.
        254    2    1    2    0    0 -0.54824598297E+03 -0.64062731496E+02 -0.35529131518E+04  0.37062305999E+04  0.89904154775E+03 0.  0.
         23    2    4    4    0    0 -0.34927586887E+03  0.28337657394E+03 -0.28923155360E+04  0.29284374882E+04  0.89224700549E+02 0.  0.
         23    2    4    4    0    0 -0.19897011410E+03 -0.34743930544E+03 -0.66059761574E+03  0.77779311174E+03  0.90938096942E+02 0.  0.
          2    1    3    3  502    0  0.12988616476E+03  0.51370797341E+02 -0.11722611068E+03  0.18234948763E+03  0.00000000000E+00 0. -1.
         -2    1    3    3    0  502  0.41835981821E+03  0.12691934155E+02 -0.26831849502E+03  0.49717284465E+03  0.00000000000E+00 0.  1.
         13    1    5    5    0    0 -0.18624554191E+03  0.19261524232E+03 -0.15102191430E+04  0.15338024297E+04  0.00000000000E+00 0.  1.
        -13    1    5    5    0    0 -0.16303032696E+03  0.90761331623E+02 -0.13820963930E+04  0.13946350585E+04  0.00000000000E+00 0. -1.
          4    1    6    6  503    0 -0.11417924250E+03 -0.13891984964E+03 -0.35830915602E+03  0.40090033092E+03  0.00000000000E+00 0. -1.
         -4    1    6    6    0  503 -0.84790871596E+02 -0.20851945580E+03 -0.30228845972E+03  0.37689278082E+03  0.00000000000E+00 0.  1.
<mgrwt>
<rscale>  0 0.19296060E+04</rscale>
<asrwt>0</asrwt>
<pdfrwt beam="1">  1        2 0.64032387E+00 0.19296060E+04</pdfrwt>
<pdfrwt beam="2">  1       -2 0.34407323E-01 0.19296060E+04</pdfrwt>
<totfact> 0.18800760E+00</totfact>
</mgrwt>
</event>
<event>
12    3  0.4773567E-008  0.2425320E+04  0.7818608E-02  0.8430085E-01
          1   -1    0    0  501    0  0.00000000000E+00  0.00000000000E+00  0.60352633531E+03  0.60352633531E+03  0.00000000000E+00 0. -1.
         -1   -1    0    0    0  501 -0.00000000000E+00 -0.00000000000E+00 -0.24365857643E+04  0.24365857643E+04  0.00000000000E+00 0.  1.
         23    2    1    2    0    0 -0.82876025618E+03  0.30953833139E+03 -0.15022125111E+04  0.17458280794E+04  0.92820867230E+02 0.  0.
        254    2    1    2    0    0  0.82876025618E+03 -0.30953833139E+03 -0.33084691793E+03  0.12942840203E+04  0.88490332874E+03 0.  0.
         23    2    4    4    0    0  0.56394991832E+03  0.17570874820E+03  0.74443379924E+02  0.60232518259E+03  0.91327620105E+02 0.  0.
         23    2    4    4    0    0  0.26481033785E+03 -0.48524707959E+03 -0.40529029785E+03  0.69195883768E+03  0.94644409414E+02 0.  0.
          2    1    3    3  502    0 -0.81991549331E+02  0.59242905251E+02 -0.19526990852E+03  0.21991514990E+03  0.00000000000E+00 0. -1.
         -2    1    3    3    0  502 -0.74676870685E+03  0.25029542613E+03 -0.13069426026E+04  0.15259129295E+04  0.00000000000E+00 0.  1.
         13    1    5    5    0    0  0.55497837316E+03  0.16433551271E+03  0.60050615463E+02  0.58190483056E+03  0.00000000000E+00 0. -1.
        -13    1    5    5    0    0  0.89715451684E+01  0.11373235495E+02  0.14392764460E+02  0.20420352033E+02  0.00000000000E+00 0.  1.
          1    1    6    6  503    0  0.49518747881E+02 -0.18365660804E+03 -0.14301033530E+03  0.23797859583E+03  0.00000000000E+00 0. -1.
         -1    1    6    6    0  503  0.21529158997E+03 -0.30159047155E+03 -0.26227996255E+03  0.45398024186E+03  0.00000000000E+00 0.  1.
<mgrwt>
<rscale>  0 0.24253195E+04</rscale>
<asrwt>0</asrwt>
<pdfrwt beam="1">  1        1 0.92850206E-01 0.24253195E+04</pdfrwt>
<pdfrwt beam="2">  1       -1 0.37485935E+00 0.24253195E+04</pdfrwt>
<totfact> 0.32193362E-01</totfact>
</mgrwt>
</event>
<event>
12    3  0.4773567E-008  0.1764436E+04  0.7818608E-02  0.8725444E-01
          1   -1    0    0  501    0  0.00000000000E+00  0.00000000000E+00  0.11192207959E+04  0.11192207959E+04  0.00000000000E+00 0. -1.
         -1   -1    0    0    0  501 -0.00000000000E+00 -0.00000000000E+00 -0.69540249933E+03  0.69540249933E+03  0.00000000000E+00 0.  1.
         23    2    1    2    0    0 -0.64657091761E+03 -0.43642797135E+02  0.15066669028E+03  0.67151941813E+03  0.90990285874E+02 0.  0.
        254    2    1    2    0    0  0.64657091761E+03  0.43642797135E+02  0.27315160631E+03  0.11431038771E+04  0.90117480468E+03 0.  0.
         23    2    4    4    0    0  0.46184806500E+03 -0.18250495464E+02 -0.28100917694E+03  0.54863969035E+03  0.91665896472E+02 0.  0.
         23    2    4    4    0    0  0.18472285261E+03  0.61893292599E+02  0.55416078325E+03  0.59446418676E+03  0.91324606228E+02 0.  0.
          3    1    3    3  502    0 -0.94734828926E+02 -0.26834482906E+02  0.49612982757E+02  0.11025527354E+03  0.00000000000E+00 0. -1.
         -3    1    3    3    0  502 -0.55183608869E+03 -0.16808314229E+02  0.10105370752E+03  0.56126414459E+03  0.00000000000E+00 0.  1.
         13    1    5    5    0    0  0.37122836561E+03  0.22358065385E+02 -0.22056781351E+03  0.43238934177E+03  0.00000000000E+00 0.  1.
        -13    1    5    5    0    0  0.90619699390E+02 -0.40608560849E+02 -0.60441363428E+02  0.11625034858E+03  0.00000000000E+00 0. -1.
          4    1    6    6  503    0  0.18085609327E+03  0.37050444020E+02  0.43284199875E+03  0.47056759106E+03  0.00000000000E+00 0.  1.
         -4    1    6    6    0  503  0.38667593422E+01  0.24842848579E+02  0.12131878450E+03  0.12389659570E+03  0.00000000000E+00 0. -1.
<mgrwt>
<rscale>  0 0.17644364E+04</rscale>
<asrwt>0</asrwt>
<pdfrwt beam="1">  1        1 0.17218781E+00 0.17644364E+04</pdfrwt>
<pdfrwt beam="2">  1       -1 0.10698500E+00 0.17644364E+04</pdfrwt>
<totfact> 0.94596726E+00</totfact>
</mgrwt>
</event>
<event>
12    3  0.4773567E-008  0.1282737E+04  0.7818608E-02  0.9043368E-01
         -2   -1    0    0    0  501 -0.00000000000E+00  0.00000000000E+00  0.19295163951E+03  0.19295163951E+03  0.00000000000E+00 0. -1.
          2   -1    0    0  501    0  0.00000000000E+00 -0.00000000000E+00 -0.21318992960E+04  0.21318992960E+04  0.00000000000E+00 0.  1.
         23    2    1    2    0    0 -0.29967593253E+03 -0.11068984885E+03 -0.39254841483E+03  0.51429420427E+03  0.91358433571E+02 0.  0.
        254    2    1    2    0    0  0.29967593253E+03  0.11068984885E+03 -0.15463992417E+04  0.18105567313E+04  0.88583698008E+03 0.  0.
         23    2    4    4    0    0  0.52846176352E+03  0.80541892837E+00 -0.14098216458E+04  0.15084186102E+04  0.91962744450E+02 0.  0.
         23    2    4    4    0    0 -0.22878583099E+03  0.10988442992E+03 -0.13657759583E+03  0.30213812104E+03  0.90644691516E+02 0.  0.
          1    1    3    3  502    0 -0.36087057318E+02  0.11368802251E+02 -0.23112224509E+02  0.44336218741E+02  0.00000000000E+00 0. -1.
         -1    1    3    3    0  502 -0.26358887521E+03 -0.12205865110E+03 -0.36943619032E+03  0.46995798553E+03  0.00000000000E+00 0.  1.
         13    1    5    5    0    0  0.17526077831E+03  0.17529756897E+02 -0.58651387190E+03  0.61239052468E+03  0.00000000000E+00 0. -1.
        -13    1    5    5    0    0  0.35320098522E+03 -0.16724337969E+02 -0.82330777394E+03  0.89602808554E+03  0.00000000000E+00 0.  1.
          1    1    6    6  503    0 -0.15600492614E+03  0.80979353040E+02 -0.44602892866E+02  0.18134114440E+03  0.00000000000E+00 0. -1.
         -1    1    6    6    0  503 -0.72780904848E+02  0.28905076883E+02 -0.91974702962E+02  0.12079697664E+03  0.00000000000E+00 0.  1.
<mgrwt>
<rscale>  0 0.12827369E+04</rscale>
<asrwt>0</asrwt>
<pdfrwt beam="1">  1        2 0.32798453E+00 0.12827369E+04</pdfrwt>
<pdfrwt beam="2">  1       -2 0.29684866E-01 0.12827369E+04</pdfrwt>
<totfact> 0.57977918E+01</totfact>
</mgrwt>
</event>
<event>
12    3  0.4773567E-008  0.1802294E+04  0.7818608E-02  0.8705081E-01
         -2   -1    0    0    0  501 -0.00000000000E+00  0.00000000000E+00  0.11200567033E+04  0.11200567033E+04  0.00000000000E+00 0. -1.
          2   -1    0    0  501    0  0.00000000000E+00 -0.00000000000E+00 -0.72502179634E+03  0.72502179634E+03  0.00000000000E+00 0.  1.
         23    2    1    2    0    0 -0.38449033217E+03  0.21832895653E+03  0.66946251740E+03  0.80693842441E+03  0.86424590171E+02 0.  0.
        254    2    1    2    0    0  0.38449033217E+03 -0.21832895653E+03 -0.27442761046E+03  0.10381400752E+04  0.89828945981E+03 0.  0.
         23    2    4    4    0    0  0.73500220456E+02  0.31854558244E+03 -0.22890846451E+03  0.40918925039E+03  0.90350357051E+02 0.  0.
         23    2    4    4    0    0  0.31099011171E+03 -0.53687453897E+03 -0.45519145950E+02  0.62895082482E+03  0.92509606128E+02 0.  0.
          3    1    3    3  502    0 -0.28141237899E+03  0.13201568440E+03  0.52071860241E+03  0.60643955253E+03  0.00000000000E+00 0. -1.
         -3    1    3    3    0  502 -0.10307795318E+03  0.86313272125E+02  0.14874391500E+03  0.20049887188E+03  0.00000000000E+00 0.  1.
         13    1    5    5    0    0  0.84688925303E+02  0.23531335075E+03 -0.20048426013E+03  0.32052850992E+03  0.00000000000E+00 0.  1.
        -13    1    5    5    0    0 -0.11188704847E+02  0.83232231686E+02 -0.28424204378E+02  0.88660740478E+02  0.00000000000E+00 0. -1.
          3    1    6    6  503    0  0.19129893451E+03 -0.28900481214E+03 -0.66474038380E+02  0.35289922296E+03  0.00000000000E+00 0. -1.
         -3    1    6    6    0  503  0.11969117720E+03 -0.24786972682E+03  0.20954892430E+02  0.27605160186E+03  0.00000000000E+00 0.  1.
<mgrwt>
<rscale>  0 0.18022936E+04</rscale>
<asrwt>0</asrwt>
<pdfrwt beam="1">  1        2 0.11154182E+00 0.18022936E+04</pdfrwt>
<pdfrwt beam="2">  1       -2 0.17231641E+00 0.18022936E+04</pdfrwt>
<totfact> 0.75839682E+00</totfact>
</mgrwt>
</event>
<event>
12    3  0.4773567E-008  0.1626041E+04  0.7818608E-02  0.8804708E-01
          2   -1    0    0  501    0  0.00000000000E+00  0.00000000000E+00  0.36029411993E+03  0.36029411993E+03  0.00000000000E+00 0. -1.
         -2   -1    0    0    0  501 -0.00000000000E+00 -0.00000000000E+00 -0.18346180156E+04  0.18346180156E+04  0.00000000000E+00 0.  1.
         23    2    1    2    0    0  0.83651045813E+02 -0.10856370858E+03 -0.12426381727E+04  0.12538735254E+04  0.96258053982E+02 0.  0.
        254    2    1    2    0    0 -0.83651045813E+02  0.10856370858E+03 -0.23168572290E+03  0.94103861013E+03  0.90171603916E+03 0.  0.
         23    2    4    4    0    0  0.84706903582E+02 -0.85355855495E+02  0.30390670013E+03  0.34018293076E+03  0.94362399377E+02 0.  0.
         23    2    4    4    0    0 -0.16835794940E+03  0.19391956407E+03 -0.53559242303E+03  0.60085567938E+03  0.90659292848E+02 0.  0.
          2    1    3    3  502    0 -0.35515475258E+01 -0.63386285262E+02 -0.65671712240E+03  0.65977860947E+03  0.00000000000E+00 0. -1.
         -2    1    3    3    0  502  0.87202593339E+02 -0.45177423317E+02 -0.58592105033E+03  0.59409491589E+03  0.00000000000E+00 0.  1.
         13    1    5    5    0    0  0.31507488706E+02 -0.52385167980E+02  0.25066954828E+03  0.25801579430E+03  0.00000000000E+00 0.  1.
        -13    1    5    5    0    0  0.53199414876E+02 -0.32970687514E+02  0.53237151842E+02  0.82167136463E+02  0.00000000000E+00 0. -1.
          2    1    6    6  503    0 -0.34135613999E+02  0.98428618810E+02 -0.25538231878E+03  0.27581436128E+03  0.00000000000E+00 0. -1.
         -2    1    6    6    0  503 -0.13422233540E+03  0.95490945264E+02 -0.28021010425E+03  0.32504131810E+03  0.00000000000E+00 0.  1.
<mgrwt>
<rscale>  0 0.16260407E+04</rscale>
<asrwt>0</asrwt>
<pdfrwt beam="1">  1        2 0.55429866E-01 0.16260407E+04</pdfrwt>
<pdfrwt beam="2">  1       -2 0.28224892E+00 0.16260407E+04</pdfrwt>
<totfact> 0.34991272E+00</totfact>
</mgrwt>
</event>
<event>
12    3  0.4773567E-008  0.1339070E+04  0.7818608E-02  0.8999143E-01
         -1   -1    0    0    0  501 -0.00000000000E+00  0.00000000000E+00  0.46197132598E+03  0.46197132598E+03  0.00000000000E+00 0.  1.
          1   -1    0    0  501    0  0.00000000000E+00 -0.00000000000E+00 -0.97035753619E+03  0.97035753619E+03  0.00000000000E+00 0. -1.
         23    2    1    2    0    0 -0.39785742626E+02  0.16392869798E+03  0.19906976550E+03  0.27621426589E+03  0.90609192736E+02 0.  0.
        254    2    1    2    0    0  0.39785742626E+02 -0.16392869798E+03 -0.70745597571E+03  0.11561145963E+04  0.89869431890E+03 0.  0.
         23    2    4    4    0    0  0.48674163622E+02 -0.52821916213E+03 -0.40058047020E+03  0.67091522153E+03  0.90982767227E+02 0.  0.
         23    2    4    4    0    0 -0.88884209958E+01  0.36429046415E+03 -0.30687550551E+03  0.48519937475E+03  0.91974513171E+02 0.  0.
          4    1    3    3  502    0 -0.53806350726E+02  0.75541429190E+02  0.58754884056E+02  0.10978965025E+03  0.00000000000E+00 0. -1.
         -4    1    3    3    0  502  0.14020608100E+02  0.88387268791E+02  0.14031488144E+03  0.16642461564E+03  0.00000000000E+00 0.  1.
         13    1    5    5    0    0 -0.15877299450E+01 -0.33522353317E+03 -0.28767579616E+03  0.44174053671E+03  0.00000000000E+00 0. -1.
        -13    1    5    5    0    0  0.50261893566E+02 -0.19299562896E+03 -0.11290467404E+03  0.22917468482E+03  0.00000000000E+00 0.  1.
          4    1    6    6  503    0 -0.21026511907E+02  0.27633352636E+03 -0.18042701414E+03  0.33069054934E+03  0.00000000000E+00 0. -1.
         -4    1    6    6    0  503  0.12138090911E+02  0.87956937783E+02 -0.12644849138E+03  0.15450882540E+03  0.00000000000E+00 0.  1.
<mgrwt>
<rscale>  0 0.13390704E+04</rscale>
<asrwt>0</asrwt>
<pdfrwt beam="1">  1        1 0.14928578E+00 0.13390704E+04</pdfrwt>
<pdfrwt beam="2">  1       -1 0.71072511E-01 0.13390704E+04</pdfrwt>
<totfact> 0.31283377E+01</totfact>
</mgrwt>
</event>
<event>
12    3  0.4773567E-008  0.1093148E+04  0.7818608E-02  0.9211897E-01
         -1   -1    0    0    0  501 -0.00000000000E+00  0.00000000000E+00  0.84315705849E+03  0.84315705849E+03  0.00000000000E+00 0.  1.
          1   -1    0    0  501    0  0.00000000000E+00 -0.00000000000E+00 -0.35431466555E+03  0.35431466555E+03  0.00000000000E+00 0. -1.
         23    2    1    2    0    0  0.11698396579E+03 -0.67739320275E+02  0.13015188182E+03  0.20915247290E+03  0.92365474136E+02 0.  0.
        254    2    1    2    0    0 -0.11698396579E+03  0.67739320275E+02  0.35869051111E+03  0.98831925114E+03  0.91095674741E+03 0.  0.
         23    2    4    4    0    0  0.16020642568E+03 -0.78394990305E+02  0.56685074649E+03  0.60181385145E+03  0.95122393084E+02 0.  0.
         23    2    4    4    0    0 -0.27719039147E+03  0.14613431058E+03 -0.20816023538E+03  0.38650539969E+03  0.88690419661E+02 0.  0.
          3    1    3    3  502    0  0.13102298274E+02  0.20887343794E+02  0.79526535343E+01  0.25907451613E+02  0.00000000000E+00 0. -1.
         -3    1    3    3    0  502  0.10388166752E+03 -0.88626664069E+02  0.12219922829E+03  0.18324502128E+03  0.00000000000E+00 0.  1.
         13    1    5    5    0    0  0.42451078992E+02 -0.33057510972E+02  0.32094630358E+03  0.32542498817E+03  0.00000000000E+00 0. -1.
        -13    1    5    5    0    0  0.11775534669E+03 -0.45337479333E+02  0.24590444291E+03  0.27638886329E+03  0.00000000000E+00 0.  1.
          2    1    6    6  503    0 -0.16481293067E+03  0.86169152023E+02 -0.70336441230E+02  0.19883571068E+03  0.00000000000E+00 0.  1.
         -2    1    6    6    0  503 -0.11237746080E+03  0.59965158556E+02 -0.13782379415E+03  0.18766968900E+03  0.00000000000E+00 0. -1.
<mgrwt>
<rscale>  0 0.10931476E+04</rscale>
<asrwt>0</asrwt>
<pdfrwt beam="1">  1        1 0.54509949E-01 0.10931476E+04</pdfrwt>
<pdfrwt beam="2">  1       -1 0.12971647E+00 0.10931476E+04</pdfrwt>
<totfact> 0.35836050E+01</totfact>
</mgrwt>
</event>
<event>
12    3  0.4773567E-008  0.1626787E+04  0.7818608E-02  0.8804259E-01
         -1   -1    0    0    0  501 -0.00000000000E+00  0.00000000000E+00  0.15914820068E+04  0.15914820068E+04  0.00000000000E+00 0. -1.
          1   -1    0    0  501    0  0.00000000000E+00 -0.00000000000E+00 -0.41571861901E+03  0.41571861901E+03  0.00000000000E+00 0.  1.
         23    2    1    2    0    0 -0.92381359114E+00  0.41491189687E+03  0.85982496659E+03  0.95911703024E+03  0.91944379634E+02 0.  0.
        254    2    1    2    0    0  0.92381359114E+00 -0.41491189687E+03  0.31593842118E+03  0.10480835955E+04  0.90912562481E+03 0.  0.
         23    2    4    4    0    0  0.36831485758E+03 -0.23409605444E+03  0.42329339082E+03  0.61498800086E+03  0.92607502260E+02 0.  0.
         23    2    4    4    0    0 -0.36739104399E+03 -0.18081584243E+03 -0.10735496964E+03  0.43309559468E+03  0.91521344776E+02 0.  0.
          3    1    3    3  502    0  0.35120284296E+02  0.22997858663E+03  0.53887977074E+03  0.58695399478E+03  0.00000000000E+00 0. -1.
         -3    1    3    3    0  502 -0.36044097887E+02  0.18493331024E+03  0.32094519584E+03  0.37216303546E+03  0.00000000000E+00 0.  1.
         13    1    5    5    0    0  0.12875139021E+03 -0.12860471434E+03  0.14271776279E+03  0.23126705958E+03  0.00000000000E+00 0. -1.
        -13    1    5    5    0    0  0.23956346737E+03 -0.10549134010E+03  0.28057562803E+03  0.38372094129E+03  0.00000000000E+00 0.  1.
          3    1    6    6  503    0 -0.33334814910E+02  0.72783313541E+01 -0.21178989062E+02  0.40158854193E+02  0.00000000000E+00 0. -1.
         -3    1    6    6    0  503 -0.33405622908E+03 -0.18809417378E+03 -0.86175980578E+02  0.39293674049E+03  0.00000000000E+00 0.  1.
<mgrwt>
<rscale>  0 0.16267867E+04</rscale>
<asrwt>0</asrwt>
<pdfrwt beam="1">  1        1 0.63956711E-01 0.16267867E+04</pdfrwt>
<pdfrwt beam="2">  1       -1 0.24484338E+00 0.16267867E+04</pdfrwt>
<totfact> 0.41118046E+00</totfact>
</mgrwt>
</event>
<event>
12    3  0.4773567E-008  0.1513952E+04  0.7818608E-02  0.8875228E-01
          1   -1    0    0  501    0  0.00000000000E+00  0.00000000000E+00  0.73936715755E+03  0.73936715755E+03  0.00000000000E+00 0. -1.
         -1   -1    0    0    0  501 -0.00000000000E+00 -0.00000000000E+00 -0.77500402958E+03  0.77500402958E+03  0.00000000000E+00 0.  1.
         23    2    1    2    0    0 -0.28428456483E+03 -0.38464347471E+03  0.74494896674E+02  0.49217458486E+03  0.88983233885E+02 0.  0.
        254    2    1    2    0    0  0.28428456483E+03  0.38464347471E+03 -0.11013176870E+03  0.10221966023E+04  0.89665409762E+03 0.  0.
         23    2    4    4    0    0  0.43610816621E+03 -0.11812020714E+03  0.52418532926E+02  0.46392757542E+03  0.91314712263E+02 0.  0.
         23    2    4    4    0    0 -0.15182360137E+03  0.50276368184E+03 -0.16255030163E+03  0.55826902685E+03  0.97056581764E+02 0.  0.
          2    1    3    3  502    0 -0.25934008598E+02 -0.29772476328E+02  0.32646950046E+02  0.51232767795E+02  0.00000000000E+00 0. -1.
         -2    1    3    3    0  502 -0.25835055623E+03 -0.35487099838E+03  0.41847946628E+02  0.44094181706E+03  0.00000000000E+00 0.  1.
         13    1    5    5    0    0  0.37225106538E+03 -0.11453610212E+03  0.14858307142E+02  0.38975651842E+03  0.00000000000E+00 0. -1.
        -13    1    5    5    0    0  0.63857100830E+02 -0.35841050172E+01  0.37560225783E+02  0.74171056997E+02  0.00000000000E+00 0.  1.
          3    1    6    6  503    0 -0.62661606402E-02  0.13996333159E+03 -0.29069745184E+02  0.14295028617E+03  0.00000000000E+00 0. -1.
         -3    1    6    6    0  503 -0.15181733521E+03  0.36280035025E+03 -0.13348055645E+03  0.41531874068E+03  0.00000000000E+00 0.  1.
<mgrwt>
<rscale>  0 0.15139518E+04</rscale>
<asrwt>0</asrwt>
<pdfrwt beam="1">  1        1 0.11374879E+00 0.15139518E+04</pdfrwt>
<pdfrwt beam="2">  1       -1 0.11923139E+00 0.15139518E+04</pdfrwt>
<totfact> 0.15223720E+01</totfact>
</mgrwt>
</event>
<event>
12    3  0.4773567E-008  0.3710044E+04  0.7818608E-02  0.8065740E-01
         -2   -1    0    0    0  501 -0.00000000000E+00  0.00000000000E+00  0.13390784631E+04  0.13390784631E+04  0.00000000000E+00 0.  1.
          2   -1    0    0  501    0  0.00000000000E+00 -0.00000000000E+00 -0.25697568078E+04  0.25697568078E+04  0.00000000000E+00 0. -1.
         23    2    1    2    0    0 -0.26148225914E+03 -0.39233641402E+02  0.12375813522E+04  0.12688231475E+04  0.91609638896E+02 0.  0.
        254    2    1    2    0    0  0.26148225914E+03  0.39233641402E+02 -0.24682596969E+04  0.26400121233E+04  0.89857989618E+03 0.  0.
         23    2    4    4    0    0  0.44396017081E+03 -0.24843109830E+03 -0.19173297463E+04  0.19857764475E+04  0.91302242560E+02 0.  0.
         23    2    4    4    0    0 -0.18247791168E+03  0.28766473971E+03 -0.55092995053E+03  0.65423567583E+03  0.91931052504E+02 0.  0.
          4    1    3    3  502    0 -0.64320684114E+02  0.32650167296E+01  0.15903582891E+03  0.17158148389E+03  0.00000000000E+00 0. -1.
         -4    1    3    3    0  502 -0.19716157502E+03 -0.42498658131E+02  0.10785455232E+04  0.10972416636E+04  0.00000000000E+00 0.  1.
         13    1    5    5    0    0  0.43121978102E+03 -0.21731486810E+03 -0.17729363598E+04  0.18375199556E+04  0.00000000000E+00 0. -1.
        -13    1    5    5    0    0  0.12740389795E+02 -0.31116230204E+02 -0.14439338655E+03  0.14825649191E+03  0.00000000000E+00 0.  1.
          1    1    6    6  503    0 -0.16430892269E+03  0.18068637247E+03 -0.37374774989E+03  0.44646653606E+03  0.00000000000E+00 0. -1.
         -1    1    6    6    0  503 -0.18168988990E+02  0.10697836724E+03 -0.17718220064E+03  0.20776913977E+03  0.00000000000E+00 0.  1.
<mgrwt>
<rscale>  0 0.37100437E+04</rscale>
<asrwt>0</asrwt>
<pdfrwt beam="1">  1        2 0.39534720E+00 0.37100437E+04</pdfrwt>
<pdfrwt beam="2">  1       -2 0.20601207E+00 0.37100437E+04</pdfrwt>
<totfact> 0.31109713E-01</totfact>
</mgrwt>
</event>
<event>
12    3  0.4773567E-008  0.1935257E+04  0.7818608E-02  0.8637503E-01
         -2   -1    0    0    0  501 -0.00000000000E+00  0.00000000000E+00  0.64612657400E+03  0.64612657400E+03  0.00000000000E+00 0. -1.
          2   -1    0    0  501    0  0.00000000000E+00 -0.00000000000E+00 -0.14491046940E+04  0.14491046940E+04  0.00000000000E+00 0.  1.
         23    2    1    2    0    0  0.37627138692E+03  0.43382364167E+03 -0.84470273828E+03  0.10252313834E+04  0.88281169177E+02 0.  0.
        254    2    1    2    0    0 -0.37627138692E+03 -0.43382364167E+03  0.41724618237E+02  0.10699998846E+04  0.90187343936E+03 0.  0.
         23    2    4    4    0    0 -0.38720403018E+03 -0.95705731773E+02 -0.35490426611E+03  0.54095224943E+03  0.87096211033E+02 0.  0.
         23    2    4    4    0    0  0.10932643268E+02 -0.33811790989E+03  0.39662888434E+03  0.52904763519E+03  0.90186943178E+02 0.  0.
          3    1    3    3  502    0  0.87088376959E+02  0.70679523418E+02 -0.21986562188E+03  0.24682153901E+03  0.00000000000E+00 0. -1.
         -3    1    3    3    0  502  0.28918300996E+03  0.36314411825E+03 -0.62483711640E+03  0.77840984442E+03  0.00000000000E+00 0.  1.
         13    1    5    5    0    0 -0.32672654307E+03 -0.61414385917E+02 -0.32614066572E+03  0.46571417691E+03  0.00000000000E+00 0. -1.
        -13    1    5    5    0    0 -0.60477487118E+02 -0.34291345856E+02 -0.28763600388E+02  0.75238072517E+02  0.00000000000E+00 0.  1.
          3    1    6    6  503    0 -0.21236583586E+02 -0.29766929362E+03  0.33733063590E+03  0.45038867522E+03  0.00000000000E+00 0. -1.
         -3    1    6    6    0  503  0.32169226854E+02 -0.40448616273E+02  0.59298248440E+02  0.78658959965E+02  0.00000000000E+00 0.  1.
<mgrwt>
<rscale>  0 0.19352571E+04</rscale>
<asrwt>0</asrwt>
<pdfrwt beam="1">  1        2 0.22293918E+00 0.19352571E+04</pdfrwt>
<pdfrwt beam="2">  1       -2 0.99404089E-01 0.19352571E+04</pdfrwt>
<totfact> 0.10615646E+01</totfact>
</mgrwt>
</event>
<event>
12    3  0.4773567E-008  0.1548409E+04  0.7818608E-02  0.8852885E-01
         -2   -1    0    0    0  501 -0.00000000000E+00  0.00000000000E+00  0.53617071160E+03  0.53617071160E+03  0.00000000000E+00 0.  1.
          2   -1    0    0  501    0  0.00000000000E+00 -0.00000000000E+00 -0.11179138666E+04  0.11179138666E+04  0.00000000000E+00 0. -1.
         23    2    1    2    0    0  0.30478930076E+03  0.16276593363E+03 -0.59090670612E+03  0.69061748813E+03  0.91610657511E+02 0.  0.
        254    2    1    2    0    0 -0.30478930076E+03 -0.16276593363E+03  0.91635511465E+01  0.96346709004E+03  0.89933063771E+03 0.  0.
         23    2    4    4    0    0  0.79548686241E+02  0.11151661158E+03 -0.33393350935E+03  0.37252245734E+03  0.92181583910E+02 0.  0.
         23    2    4    4    0    0 -0.38433798700E+03 -0.27428254520E+03  0.34309706050E+03  0.59094463271E+03  0.92484394061E+02 0.  0.
          1    1    3    3  502    0  0.11365599487E+03  0.67068972629E+02 -0.31553698836E+03  0.34202269410E+03  0.00000000000E+00 0. -1.
         -1    1    3    3    0  502  0.19113330589E+03  0.95696960997E+02 -0.27536971777E+03  0.34859479403E+03  0.00000000000E+00 0.  1.
         13    1    5    5    0    0  0.97785769036E+02  0.71512742609E+02 -0.24465102377E+03  0.27300229378E+03  0.00000000000E+00 0. -1.
        -13    1    5    5    0    0 -0.18237082795E+02  0.40003868967E+02 -0.89282485585E+02  0.99520163552E+02  0.00000000000E+00 0.  1.
          1    1    6    6  503    0 -0.34347621506E+03 -0.21199168905E+03  0.31226469195E+03  0.51031913974E+03  0.00000000000E+00 0. -1.
         -1    1    6    6    0  503 -0.40861771940E+02 -0.62290856156E+02  0.30832368544E+02  0.80625492971E+02  0.00000000000E+00 0.  1.
<mgrwt>
<rscale>  0 0.15484091E+04</rscale>
<asrwt>0</asrwt>
<pdfrwt beam="1">  1        2 0.17198675E+00 0.15484091E+04</pdfrwt>
<pdfrwt beam="2">  1       -2 0.82487802E-01 0.15484091E+04</pdfrwt>
<totfact> 0.26379825E+01</totfact>
</mgrwt>
</event>
<event>
12    3  0.4773567E-008  0.1508054E+04  0.7818608E-02  0.8879115E-01
         -1   -1    0    0    0  501 -0.00000000000E+00  0.00000000000E+00  0.71298819406E+03  0.71298819406E+03  0.00000000000E+00 0.  1.
          1   -1    0    0  501    0  0.00000000000E+00 -0.00000000000E+00 -0.79742743964E+03  0.79742743964E+03  0.00000000000E+00 0. -1.
         23    2    1    2    0    0 -0.12484277282E+03  0.36791864635E+03 -0.30685051891E+03  0.50353497063E+03  0.91871526783E+02 0.  0.
        254    2    1    2    0    0  0.12484277282E+03 -0.36791864635E+03  0.22241127333E+03  0.10068806631E+04  0.90188250172E+03 0.  0.
         23    2    4    4    0    0  0.26380295318E+02  0.21466300553E+03 -0.16905993407E+03  0.29235994798E+03  0.10058305998E+03 0.  0.
         23    2    4    4    0    0  0.98462477501E+02 -0.58258165188E+03  0.39147120740E+03  0.71452071509E+03  0.90520193858E+02 0.  0.
          2    1    3    3  502    0 -0.54419021577E+02  0.15133037973E+03 -0.18538910335E+03  0.24542093102E+03  0.00000000000E+00 0. -1.
         -2    1    3    3    0  502 -0.70423751243E+02  0.21658826661E+03 -0.12146141555E+03  0.25811403961E+03  0.00000000000E+00 0.  1.
         13    1    5    5    0    0  0.64142226183E+02  0.15684013257E+03 -0.11876094204E+03  0.20692320730E+03  0.00000000000E+00 0.  1.
        -13    1    5    5    0    0 -0.37761930865E+02  0.57822872954E+02 -0.50298992030E+02  0.85436740684E+02  0.00000000000E+00 0. -1.
          4    1    6    6  503    0 -0.15567397183E+02 -0.69909565390E+02  0.34562519048E+02  0.79525209280E+02  0.00000000000E+00 0. -1.
         -4    1    6    6    0  503  0.11402987468E+03 -0.51267208648E+03  0.35690868835E+03  0.63499550581E+03  0.00000000000E+00 0.  1.
<mgrwt>
<rscale>  0 0.15080535E+04</rscale>
<asrwt>0</asrwt>
<pdfrwt beam="1">  1        1 0.12268115E+00 0.15080535E+04</pdfrwt>
<pdfrwt beam="2">  1       -1 0.10969049E+00 0.15080535E+04</pdfrwt>
<totfact> 0.16512123E+01</totfact>
</mgrwt>
</event>
<event>
12    3  0.4773567E-008  0.1717930E+04  0.7818608E-02  0.8751204E-01
          3   -1    0    0  501    0  0.00000000000E+00  0.00000000000E+00  0.25173582801E+04  0.25173582801E+04  0.00000000000E+00 0. -1.
         -3   -1    0    0    0  501 -0.00000000000E+00 -0.00000000000E+00 -0.29309331688E+03  0.29309331688E+03  0.00000000000E+00 0.  1.
         23    2    1    2    0    0 -0.45219376761E+03 -0.43254735342E+03  0.72652775923E+03  0.96323324819E+03  0.91647635384E+02 0.  0.
        254    2    1    2    0    0  0.45219376761E+03  0.43254735342E+03  0.14977372039E+04  0.18472183487E+04  0.88171564547E+03 0.  0.
         23    2    4    4    0    0  0.36628176937E+02  0.54961741556E+03  0.11718446175E+04  0.12986180325E+04  0.98833495921E+02 0.  0.
         23    2    4    4    0    0  0.41556559067E+03 -0.11707006214E+03  0.32589258642E+03  0.54860031624E+03  0.91412086152E+02 0.  0.
          1    1    3    3  502    0 -0.17962097044E+03 -0.22423544665E+03  0.37012853624E+03  0.46855134393E+03  0.00000000000E+00 0. -1.
         -1    1    3    3    0  502 -0.27257279716E+03 -0.20831190678E+03  0.35639922299E+03  0.49468190426E+03  0.00000000000E+00 0.  1.
         13    1    5    5    0    0 -0.12183392610E+01  0.41008728203E+03  0.78542158446E+03  0.88603618920E+03  0.00000000000E+00 0. -1.
        -13    1    5    5    0    0  0.37846516198E+02  0.13953013353E+03  0.38642303305E+03  0.41258184330E+03  0.00000000000E+00 0.  1.
          3    1    6    6  503    0  0.27167483597E+03 -0.57207220187E+02  0.25656877340E+03  0.37803097495E+03  0.00000000000E+00 0. -1.
         -3    1    6    6    0  503  0.14389075470E+03 -0.59862841950E+02  0.69323813026E+02  0.17056934129E+03  0.00000000000E+00 0.  1.
<mgrwt>
<rscale>  0 0.17179300E+04</rscale>
<asrwt>0</asrwt>
<pdfrwt beam="1">  1        3 0.38728587E+00 0.17179300E+04</pdfrwt>
<pdfrwt beam="2">  1       -3 0.45091281E-01 0.17179300E+04</pdfrwt>
<totfact> 0.15917341E-01</totfact>
</mgrwt>
</event>
<event>
12    3  0.4773567E-008  0.1771148E+04  0.7818608E-02  0.8721795E-01
         -1   -1    0    0    0  501 -0.00000000000E+00  0.00000000000E+00  0.16886364997E+04  0.16886364997E+04  0.00000000000E+00 0.  1.
          1   -1    0    0  501    0  0.00000000000E+00 -0.00000000000E+00 -0.46442268353E+03  0.46442268353E+03  0.00000000000E+00 0. -1.
         23    2    1    2    0    0  0.60529563472E+02 -0.21751567062E+03  0.12044718541E+04  0.12290653037E+04  0.94192241739E+02 0.  0.
        254    2    1    2    0    0 -0.60529563472E+02  0.21751567062E+03  0.19741962090E+02  0.92399387955E+03  0.89576673826E+03 0.  0.
         23    2    4    4    0    0 -0.19706531333E+03  0.51524228780E+03  0.11484653853E+03  0.57091528119E+03  0.91897649697E+02 0.  0.
         23    2    4    4    0    0  0.13653574986E+03 -0.29772661718E+03 -0.95104576442E+02  0.35307859837E+03  0.91304252885E+02 0.  0.
          4    1    3    3  502    0  0.35117432882E+02 -0.13193368527E+03  0.94162441983E+03  0.95147058778E+03  0.00000000000E+00 0.  1.
         -4    1    3    3    0  502  0.25412130591E+02 -0.85581985350E+02  0.26284743428E+03  0.27759471592E+03  0.00000000000E+00 0. -1.
         13    1    5    5    0    0 -0.15360429555E+03  0.30205439897E+03  0.41943673906E+02  0.34145338090E+03  0.00000000000E+00 0. -1.
        -13    1    5    5    0    0 -0.43461017786E+02  0.21318788884E+03  0.72902864626E+02  0.22946190029E+03  0.00000000000E+00 0.  1.
          3    1    6    6  503    0  0.47070562058E+02 -0.32438922568E+02  0.70898627563E+00  0.57170133561E+02  0.00000000000E+00 0. -1.
         -3    1    6    6    0  503  0.89465187801E+02 -0.26528769462E+03 -0.95813562718E+02  0.29590846481E+03  0.00000000000E+00 0.  1.
<mgrwt>
<rscale>  0 0.17711478E+04</rscale>
<asrwt>0</asrwt>
<pdfrwt beam="1">  1        1 0.71449644E-01 0.17711478E+04</pdfrwt>
<pdfrwt beam="2">  1       -1 0.25979023E+00 0.17711478E+04</pdfrwt>
<totfact> 0.27936765E+00</totfact>
</mgrwt>
</event>
<event>
12    3  0.4773567E-008  0.1455162E+04  0.7818608E-02  0.8914830E-01
          1   -1    0    0  501    0  0.00000000000E+00  0.00000000000E+00  0.15182713344E+04  0.15182713344E+04  0.00000000000E+00 0. -1.
         -1   -1    0    0    0  501 -0.00000000000E+00 -0.00000000000E+00 -0.34866879633E+03  0.34866879633E+03  0.00000000000E+00 0.  1.
         23    2    1    2    0    0  0.42292952394E+02 -0.28220804881E+03 -0.74385484368E+02  0.30821301058E+03  0.89621331015E+02 0.  0.
        254    2    1    2    0    0 -0.42292952394E+02  0.28220804881E+03  0.12439880225E+04  0.15587271202E+04  0.89481504152E+03 0.  0.
         23    2    4    4    0    0 -0.31698888693E+03  0.41640009777E+03  0.42596539318E+03  0.68077590979E+03  0.90212678170E+02 0.  0.
         23    2    4    4    0    0  0.27469593454E+03 -0.13419204897E+03  0.81802262929E+03  0.87795121040E+03  0.90398801713E+02 0.  0.
          4    1    3    3  502    0  0.55306021160E+02 -0.94863142363E+02 -0.42414374703E+02  0.11771470145E+03  0.00000000000E+00 0. -1.
         -4    1    3    3    0  502 -0.13013068766E+02 -0.18734490644E+03 -0.31971109664E+02  0.19049830913E+03  0.00000000000E+00 0.  1.
         13    1    5    5    0    0 -0.29892327744E+03  0.40234134200E+03  0.42611935423E+03  0.65788402118E+03  0.00000000000E+00 0. -1.
        -13    1    5    5    0    0 -0.18065609494E+02  0.14058755776E+02 -0.15396104597E+00  0.22891888615E+02  0.00000000000E+00 0.  1.
          4    1    6    6  503    0  0.90432824481E+02 -0.12585377503E+02  0.32839101718E+03  0.34084768979E+03  0.00000000000E+00 0. -1.
         -4    1    6    6    0  503  0.18426311006E+03 -0.12160667146E+03  0.48963161211E+03  0.53710352061E+03  0.00000000000E+00 0.  1.
<mgrwt>
<rscale>  0 0.14551616E+04</rscale>
<asrwt>0</asrwt>
<pdfrwt beam="1">  1        1 0.23358020E+00 0.14551616E+04</pdfrwt>
<pdfrwt beam="2">  1       -1 0.53641354E-01 0.14551616E+04</pdfrwt>
<totfact> 0.21631522E+01</totfact>
</mgrwt>
</event>
<event>
12    3  0.4773567E-008  0.2068317E+04  0.7818608E-02  0.8575330E-01
          1   -1    0    0  501    0  0.00000000000E+00  0.00000000000E+00  0.44243791196E+04  0.44243791196E+04  0.00000000000E+00 0. -1.
         -1   -1    0    0    0  501 -0.00000000000E+00 -0.00000000000E+00 -0.24172505740E+03  0.24172505740E+03  0.00000000000E+00 0.  1.
         23    2    1    2    0    0  0.24435194384E+03  0.34269947793E+03  0.71320434372E+02  0.43610211210E+03  0.89149555152E+02 0.  0.
        254    2    1    2    0    0 -0.24435194384E+03 -0.34269947793E+03  0.41113336278E+04  0.42300020649E+04  0.90150011930E+03 0.  0.
         23    2    4    4    0    0 -0.41061299668E+03 -0.56187833231E+03  0.27816682275E+04  0.28689232239E+04  0.93445403236E+02 0.  0.
         23    2    4    4    0    0  0.16626105283E+03  0.21917885438E+03  0.13296654003E+04  0.13610788410E+04  0.94039495363E+02 0.  0.
          4    1    3    3  502    0  0.12066395502E+03  0.10022144132E+03  0.41613773968E+02  0.16228318929E+03  0.00000000000E+00 0. -1.
         -4    1    3    3    0  502  0.12368798883E+03  0.24247803661E+03  0.29706660404E+02  0.27381892281E+03  0.00000000000E+00 0.  1.
         13    1    5    5    0    0 -0.32893308409E+03 -0.50156738863E+03  0.23274773911E+04  0.24035219627E+04  0.00000000000E+00 0. -1.
        -13    1    5    5    0    0 -0.81679912586E+02 -0.60310943684E+02  0.45419083635E+03  0.46540126114E+03  0.00000000000E+00 0.  1.
          3    1    6    6  503    0  0.95884294065E+02  0.19313385396E+03  0.99887902079E+03  0.10218873625E+04  0.00000000000E+00 0. -1.
         -3    1    6    6    0  503  0.70376758766E+02  0.26045000424E+02  0.33078637956E+03  0.33919147856E+03  0.00000000000E+00 0.  1.
<mgrwt>
<rscale>  0 0.20683165E+04</rscale>
<asrwt>0</asrwt>
<pdfrwt beam="1">  1        1 0.68067365E+00 0.20683165E+04</pdfrwt>
<pdfrwt beam="2">  1       -1 0.37188474E-01 0.20683165E+04</pdfrwt>
<totfact> 0.24936231E-01</totfact>
</mgrwt>
</event>
<event>
12    3  0.4773567E-008  0.1953634E+04  0.7818608E-02  0.8628610E-01
         -2   -1    0    0    0  501 -0.00000000000E+00  0.00000000000E+00  0.28406626920E+03  0.28406626920E+03  0.00000000000E+00 0. -1.
          2   -1    0    0  501    0  0.00000000000E+00 -0.00000000000E+00 -0.33589762296E+04  0.33589762296E+04  0.00000000000E+00 0.  1.
         23    2    1    2    0    0 -0.33853006625E+03  0.35767969567E+03 -0.11894639114E+03  0.51469135005E+03  0.90672881295E+02 0.  0.
        254    2    1    2    0    0  0.33853006625E+03 -0.35767969567E+03 -0.29559635692E+04  0.31283511487E+04  0.89795485225E+03 0.  0.
         23    2    4    4    0    0 -0.14553602311E+03 -0.43724720764E+03 -0.19448954670E+04  0.20008113611E+04  0.90894831017E+02 0.  0.
         23    2    4    4    0    0  0.48406608936E+03  0.79567511967E+02 -0.10110681022E+04  0.11275397877E+04  0.91849320302E+02 0.  0.
          4    1    3    3  502    0 -0.15474795810E+03  0.12704769139E+03 -0.86164223787E+02  0.21797320910E+03  0.00000000000E+00 0.  1.
         -4    1    3    3    0  502 -0.18378210815E+03  0.23063200428E+03 -0.32782167349E+02  0.29671814095E+03  0.00000000000E+00 0. -1.
         13    1    5    5    0    0 -0.62710466393E+02 -0.19635417630E+03 -0.10659623989E+04  0.10857087091E+04  0.00000000000E+00 0. -1.
        -13    1    5    5    0    0 -0.82825556715E+02 -0.24089303133E+03 -0.87893306811E+03  0.91510265195E+03  0.00000000000E+00 0.  1.
          1    1    6    6  503    0  0.19167480023E+03  0.34762160554E+02 -0.30361838508E+03  0.36073780036E+03  0.00000000000E+00 0. -1.
         -1    1    6    6    0  503  0.29239128913E+03  0.44805351414E+02 -0.70744971712E+03  0.76680198730E+03  0.00000000000E+00 0.  1.
<mgrwt>
<rscale>  0 0.19536344E+04</rscale>
<asrwt>0</asrwt>
<pdfrwt beam="1">  1        2 0.51676559E+00 0.19536344E+04</pdfrwt>
<pdfrwt beam="2">  1       -2 0.43702502E-01 0.19536344E+04</pdfrwt>
<totfact> 0.47310670E+00</totfact>
</mgrwt>
</event>
<event>
12    3  0.4773567E-008  0.2788421E+04  0.7818608E-02  0.8306872E-01
          2   -1    0    0  501    0  0.00000000000E+00  0.00000000000E+00  0.22245959894E+04  0.22245959894E+04  0.00000000000E+00 0. -1.
         -2   -1    0    0    0  501 -0.00000000000E+00 -0.00000000000E+00 -0.87378719857E+03  0.87378719857E+03  0.00000000000E+00 0.  1.
         23    2    1    2    0    0  0.10922226531E+04  0.31929807452E+03  0.11615458872E+04  0.16305504269E+04  0.12084809651E+03 0.  0.
        254    2    1    2    0    0 -0.10922226531E+04 -0.31929807452E+03  0.18926290369E+03  0.14678327610E+04  0.90764033805E+03 0.  0.
         23    2    4    4    0    0 -0.10932887224E+04 -0.39736192438E+03  0.39313368369E+03  0.12313539342E+04  0.92204601188E+02 0.  0.
         23    2    4    4    0    0  0.10660692715E+01  0.78063849858E+02 -0.20387078000E+03  0.23647882686E+03  0.90905662398E+02 0.  0.
          4    1    3    3  502    0  0.10904580354E+04  0.30866503081E+03  0.11536999699E+04  0.16172187387E+04  0.00000000000E+00 0. -1.
         -4    1    3    3    0  502  0.17646177327E+01  0.10633043710E+02  0.78459172810E+01  0.13331688275E+02  0.00000000000E+00 0.  1.
         13    1    5    5    0    0 -0.19080783424E+03 -0.10741942472E+03  0.77230563422E+02  0.23218768775E+03  0.00000000000E+00 0.  1.
        -13    1    5    5    0    0 -0.90248088817E+03 -0.28994249966E+03  0.31590312027E+03  0.99916624643E+03  0.00000000000E+00 0. -1.
          2    1    6    6  503    0  0.40752563576E+02  0.63837965263E+02 -0.10973415141E+03  0.13333282129E+03  0.00000000000E+00 0. -1.
         -2    1    6    6    0  503 -0.39686494305E+02  0.14225884594E+02 -0.94136628591E+02  0.10314600557E+03  0.00000000000E+00 0.  1.
<mgrwt>
<rscale>  0 0.27884214E+04</rscale>
<asrwt>0</asrwt>
<pdfrwt beam="1">  1        2 0.34224554E+00 0.27884214E+04</pdfrwt>
<pdfrwt beam="2">  1       -2 0.13442880E+00 0.27884214E+04</pdfrwt>
<totfact> 0.17372432E+00</totfact>
</mgrwt>
</event>
<event>
12    3  0.4773567E-008  0.2818430E+04  0.7818608E-02  0.8297569E-01
         -2   -1    0    0    0  501 -0.00000000000E+00  0.00000000000E+00  0.14375799428E+04  0.14375799428E+04  0.00000000000E+00 0.  1.
          2   -1    0    0  501    0  0.00000000000E+00 -0.00000000000E+00 -0.13814098223E+04  0.13814098223E+04  0.00000000000E+00 0. -1.
         23    2    1    2    0    0  0.69658286036E+03  0.13017900245E+03  0.10628661021E+04  0.12806651271E+04  0.90799574223E+02 0.  0.
        254    2    1    2    0    0 -0.69658286036E+03 -0.13017900245E+03 -0.10066959816E+04  0.15383246381E+04  0.92240535484E+03 0.  0.
         23    2    4    4    0    0 -0.87361870481E+03 -0.25241332120E+03 -0.89455860564E+03  0.12788473181E+04  0.91067217395E+02 0.  0.
         23    2    4    4    0    0  0.17703584445E+03  0.12223431875E+03 -0.11213737598E+03  0.25947731992E+03  0.92036783730E+02 0.  0.
          3    1    3    3  502    0  0.18034474685E+02 -0.18712195113E+01  0.88320374290E+01  0.20168009936E+02  0.00000000000E+00 0. -1.
         -3    1    3    3    0  502  0.67854838568E+03  0.13205022196E+03  0.10540340647E+04  0.12604971171E+04  0.00000000000E+00 0.  1.
         13    1    5    5    0    0 -0.79171421284E+03 -0.20618138599E+03 -0.82496389970E+03  0.11618466313E+04  0.00000000000E+00 0. -1.
        -13    1    5    5    0    0 -0.81904491974E+02 -0.46231935214E+02 -0.69594705942E+02  0.11700068690E+03  0.00000000000E+00 0.  1.
          1    1    6    6  503    0  0.17350312097E+03  0.10142797055E+03 -0.70830202551E+02  0.21309125695E+03  0.00000000000E+00 0. -1.
         -1    1    6    6    0  503  0.35327234800E+01  0.20806348200E+02 -0.41307173430E+02  0.46386062965E+02  0.00000000000E+00 0.  1.
<mgrwt>
<rscale>  0 0.28184301E+04</rscale>
<asrwt>0</asrwt>
<pdfrwt beam="1">  1        2 0.21252459E+00 0.28184301E+04</pdfrwt>
<pdfrwt beam="2">  1       -2 0.22116615E+00 0.28184301E+04</pdfrwt>
<totfact> 0.12521195E+00</totfact>
</mgrwt>
</event>
<event>
12    3  0.4773567E-008  0.1887123E+04  0.7818608E-02  0.8661293E-01
         -2   -1    0    0    0  501 -0.00000000000E+00  0.00000000000E+00  0.22643860149E+03  0.22643860149E+03  0.00000000000E+00 0.  1.
          2   -1    0    0  501    0  0.00000000000E+00 -0.00000000000E+00 -0.39317866801E+04  0.39317866801E+04  0.00000000000E+00 0. -1.
         23    2    1    2    0    0 -0.32653531604E+02 -0.16855877478E+03 -0.29879774679E+04  0.29942975409E+04  0.91269387588E+02 0.  0.
        254    2    1    2    0    0  0.32653531604E+02  0.16855877478E+03 -0.71737061064E+03  0.11639277406E+04  0.90034930927E+03 0.  0.
         23    2    4    4    0    0  0.25109819788E+03  0.17311778974E+02  0.11097586140E+03  0.28893125100E+03  0.88406014053E+02 0.  0.
         23    2    4    4    0    0 -0.21844466628E+03  0.15124699581E+03 -0.82834647204E+03  0.87499648962E+03  0.94166093403E+02 0.  0.
          4    1    3    3  502    0 -0.21666387856E+02 -0.17525654451E+03 -0.29014020082E+04  0.29067710440E+04  0.00000000000E+00 0. -1.
         -4    1    3    3    0  502 -0.10987143747E+02  0.66977697272E+01 -0.86575459678E+02  0.87526496934E+02  0.00000000000E+00 0.  1.
         13    1    5    5    0    0  0.14146785292E+03  0.50472003782E+02  0.80484715518E+02  0.17040647291E+03  0.00000000000E+00 0. -1.
        -13    1    5    5    0    0  0.10963034496E+03 -0.33160224808E+02  0.30491145881E+02  0.11852477809E+03  0.00000000000E+00 0.  1.
          1    1    6    6  503    0 -0.11938176560E+03  0.66577317551E+02 -0.28281611280E+03  0.31411701455E+03  0.00000000000E+00 0.  1.
         -1    1    6    6    0  503 -0.99062900675E+02  0.84669678259E+02 -0.54553035924E+03  0.56087947507E+03  0.00000000000E+00 0. -1.
<mgrwt>
<rscale>  0 0.18871230E+04</rscale>
<asrwt>0</asrwt>
<pdfrwt beam="1">  1        2 0.60489022E+00 0.18871230E+04</pdfrwt>
<pdfrwt beam="2">  1       -2 0.34836710E-01 0.18871230E+04</pdfrwt>
<totfact> 0.28453161E+00</totfact>
</mgrwt>
</event>
<event>
12    3  0.4773567E-008  0.1092242E+04  0.7818608E-02  0.9212786E-01
          2   -1    0    0  501    0  0.00000000000E+00  0.00000000000E+00  0.65738471535E+03  0.65738471535E+03  0.00000000000E+00 0. -1.
         -2   -1    0    0    0  501 -0.00000000000E+00 -0.00000000000E+00 -0.45368897846E+03  0.45368897846E+03  0.00000000000E+00 0.  1.
         23    2    1    2    0    0  0.21737378960E+02 -0.91461048650E+02  0.16302014560E+03  0.20895277095E+03  0.90818806170E+02 0.  0.
        254    2    1    2    0    0 -0.21737378960E+02  0.91461048650E+02  0.40675591295E+02  0.90212092286E+03  0.89628679488E+03 0.  0.
         23    2    4    4    0    0 -0.42937728356E+03  0.72460347477E+02  0.15149347127E+03  0.46976466086E+03  0.90073365439E+02 0.  0.
         23    2    4    4    0    0  0.40763990460E+03  0.19000701173E+02 -0.11081787998E+03  0.43235626200E+03  0.90111133086E+02 0.  0.
          2    1    3    3  502    0  0.14282900790E+02  0.51415502098E+01  0.79795556816E+02  0.81226643911E+02  0.00000000000E+00 0.  1.
         -2    1    3    3    0  502  0.74544781701E+01 -0.96602598860E+02  0.83224588782E+02  0.12772612704E+03  0.00000000000E+00 0. -1.
         13    1    5    5    0    0 -0.79388150011E+02 -0.34937224352E+01  0.61530624877E+02  0.10050225001E+03  0.00000000000E+00 0. -1.
        -13    1    5    5    0    0 -0.34998913354E+03  0.75954069912E+02  0.89962846398E+02  0.36926241085E+03  0.00000000000E+00 0.  1.
          4    1    6    6  503    0  0.16360787636E+03 -0.30443455769E+02 -0.21352816175E+02  0.16778046360E+03  0.00000000000E+00 0. -1.
         -4    1    6    6    0  503  0.24403202823E+03  0.49444156942E+02 -0.89465063804E+02  0.26457579840E+03  0.00000000000E+00 0.  1.
<mgrwt>
<rscale>  0 0.10922421E+04</rscale>
<asrwt>0</asrwt>
<pdfrwt beam="1">  1        2 0.10113611E+00 0.10922421E+04</pdfrwt>
<pdfrwt beam="2">  1       -2 0.69798304E-01 0.10922421E+04</pdfrwt>
<totfact> 0.82436344E+01</totfact>
</mgrwt>
</event>
<event>
12    3  0.4773567E-008  0.2883910E+04  0.7818608E-02  0.8277681E-01
         -2   -1    0    0    0  501 -0.00000000000E+00  0.00000000000E+00  0.21017011525E+04  0.21017011525E+04  0.00000000000E+00 0.  1.
          2   -1    0    0  501    0  0.00000000000E+00 -0.00000000000E+00 -0.98931022319E+03  0.98931022319E+03  0.00000000000E+00 0. -1.
         23    2    1    2    0    0  0.11326478843E+04  0.42741523779E+03  0.10064185687E+04  0.15778671065E+04  0.10588321397E+03 0.  0.
        254    2    1    2    0    0 -0.11326478843E+04 -0.42741523779E+03  0.10597236062E+03  0.15131442692E+04  0.90155444805E+03 0.  0.
         23    2    4    4    0    0 -0.11376201679E+04 -0.57225965315E+03 -0.55228216292E+02  0.12777966394E+04  0.89740395535E+02 0.  0.
         23    2    4    4    0    0  0.49722836098E+01  0.14484441536E+03  0.16120057691E+03  0.23534762982E+03  0.91641980557E+02 0.  0.
          3    1    3    3  502    0  0.30757498570E+03  0.67034726767E+02  0.26925262715E+03  0.41423785878E+03  0.00000000000E+00 0. -1.
         -3    1    3    3    0  502  0.82507289862E+03  0.36038051102E+03  0.73716594151E+03  0.11636292477E+04  0.00000000000E+00 0.  1.
         13    1    5    5    0    0 -0.14064140827E+03 -0.39898888893E+02  0.89308812118E+00  0.14619413347E+03  0.00000000000E+00 0.  1.
        -13    1    5    5    0    0 -0.99697875966E+03 -0.53236076426E+03 -0.56121304413E+02  0.11316025059E+04  0.00000000000E+00 0. -1.
          3    1    6    6  503    0 -0.24590843554E+02  0.13250448590E+03  0.14941376957E+03  0.20121287958E+03  0.00000000000E+00 0. -1.
         -3    1    6    6    0  503  0.29563127164E+02  0.12339929458E+02  0.11786807337E+02  0.34134750240E+02  0.00000000000E+00 0.  1.
<mgrwt>
<rscale>  0 0.28839101E+04</rscale>
<asrwt>0</asrwt>
<pdfrwt beam="1">  1        2 0.15220157E+00 0.28839101E+04</pdfrwt>
<pdfrwt beam="2">  1       -2 0.32333864E+00 0.28839101E+04</pdfrwt>
<totfact> 0.50492329E-01</totfact>
</mgrwt>
</event>
<event>
12    3  0.4773567E-008  0.1666866E+04  0.7818608E-02  0.8780491E-01
          3   -1    0    0  501    0  0.00000000000E+00  0.00000000000E+00  0.10085146370E+04  0.10085146370E+04  0.00000000000E+00 0. -1.
         -3   -1    0    0    0  501 -0.00000000000E+00 -0.00000000000E+00 -0.68874639022E+03  0.68874639022E+03  0.00000000000E+00 0.  1.
         23    2    1    2    0    0 -0.10607829719E+03 -0.26101949268E+03  0.63431981652E+03  0.70081787101E+03  0.96955030850E+02 0.  0.
        254    2    1    2    0    0  0.10607829719E+03  0.26101949268E+03 -0.31455156976E+03  0.99644315619E+03  0.90253669886E+03 0.  0.
         23    2    4    4    0    0 -0.11666147374E+02  0.40844982655E+03 -0.54400096330E+03  0.68660894577E+03  0.92344120242E+02 0.  0.
         23    2    4    4    0    0  0.11774444456E+03 -0.14743033386E+03  0.22944939354E+03  0.30983421042E+03  0.88038379025E+02 0.  0.
          1    1    3    3  502    0 -0.39356870916E+02 -0.36685569165E+02  0.20391502053E+03  0.21089364588E+03  0.00000000000E+00 0. -1.
         -1    1    3    3    0  502 -0.66721426272E+02 -0.22433392352E+03  0.43040479598E+03  0.48992422513E+03  0.00000000000E+00 0.  1.
         13    1    5    5    0    0 -0.81628440485E+01  0.26898577712E+03 -0.42603850588E+03  0.50391347353E+03  0.00000000000E+00 0. -1.
        -13    1    5    5    0    0 -0.35033033250E+01  0.13946404942E+03 -0.11796245742E+03  0.18269547224E+03  0.00000000000E+00 0.  1.
          1    1    6    6  503    0  0.49454230986E+02 -0.35077856039E+02  0.13486907047E+03  0.14787103542E+03  0.00000000000E+00 0. -1.
         -1    1    6    6    0  503  0.68290213576E+02 -0.11235247782E+03  0.94580323071E+02  0.16196317500E+03  0.00000000000E+00 0.  1.
<mgrwt>
<rscale>  0 0.16668663E+04</rscale>
<asrwt>0</asrwt>
<pdfrwt beam="1">  1        3 0.15515610E+00 0.16668663E+04</pdfrwt>
<pdfrwt beam="2">  1       -3 0.10596098E+00 0.16668663E+04</pdfrwt>
<totfact> 0.56397381E-01</totfact>
</mgrwt>
</event>
<event>
12    3  0.4773567E-008  0.1924233E+04  0.7818608E-02  0.8642887E-01
          1   -1    0    0  501    0  0.00000000000E+00  0.00000000000E+00  0.10190421762E+04  0.10190421762E+04  0.00000000000E+00 0. -1.
         -1   -1    0    0    0  501 -0.00000000000E+00 -0.00000000000E+00 -0.90837074120E+03  0.90837074120E+03  0.00000000000E+00 0.  1.
         23    2    1    2    0    0  0.31469263057E+03  0.37380330705E+02  0.74760473386E+03  0.81720553392E+03  0.92104862633E+02 0.  0.
        254    2    1    2    0    0 -0.31469263057E+03 -0.37380330705E+02 -0.63693329889E+03  0.11102073834E+04  0.85231899319E+03 0.  0.
         23    2    4    4    0    0 -0.17556474691E+03 -0.68667871195E+02  0.17979362625E+03  0.27621136097E+03  0.91808011606E+02 0.  0.
         23    2    4    4    0    0 -0.13912788366E+03  0.31287540490E+02 -0.81672692513E+03  0.83399602248E+03  0.90393678241E+02 0.  0.
          1    1    3    3  502    0  0.19854997735E+03 -0.18008785078E+02  0.49703460322E+03  0.53552759653E+03  0.00000000000E+00 0. -1.
         -1    1    3    3    0  502  0.11614265322E+03  0.55389115783E+02  0.25057013064E+03  0.28167793739E+03  0.00000000000E+00 0.  1.
         13    1    5    5    0    0 -0.62889309182E+02  0.45156060802E+01  0.17330667385E+02  0.65389662330E+02  0.00000000000E+00 0.  1.
        -13    1    5    5    0    0 -0.11267543773E+03 -0.73183477275E+02  0.16246295886E+03  0.21082169864E+03  0.00000000000E+00 0. -1.
          4    1    6    6  503    0 -0.12179864574E+03  0.49864292371E+02 -0.52807923812E+03  0.54423252336E+03  0.00000000000E+00 0. -1.
         -4    1    6    6    0  503 -0.17329237921E+02 -0.18576751880E+02 -0.28864768702E+03  0.28976349911E+03  0.00000000000E+00 0.  1.
<mgrwt>
<rscale>  0 0.19242329E+04</rscale>
<asrwt>0</asrwt>
<pdfrwt beam="1">  1        1 0.15677572E+00 0.19242329E+04</pdfrwt>
<pdfrwt beam="2">  1       -1 0.13974934E+00 0.19242329E+04</pdfrwt>
<totfact> 0.57502204E+00</totfact>
</mgrwt>
</event>
<event>
12    3  0.4773567E-008  0.1551340E+04  0.7818608E-02  0.8851012E-01
         -1   -1    0    0    0  501 -0.00000000000E+00  0.00000000000E+00  0.18838377147E+04  0.18838377147E+04  0.00000000000E+00 0.  1.
          1   -1    0    0  501    0  0.00000000000E+00 -0.00000000000E+00 -0.31938193525E+03  0.31938193525E+03  0.00000000000E+00 0. -1.
         23    2    1    2    0    0 -0.20238420862E+03  0.63490008603E+02 -0.13881773742E+03  0.27016258552E+03  0.93418998626E+02 0.  0.
        254    2    1    2    0    0  0.20238420862E+03 -0.63490008603E+02  0.17032735169E+04  0.19330570644E+04  0.88914486559E+03 0.  0.
         23    2    4    4    0    0  0.38945206646E+03 -0.36280074726E+03  0.11507321375E+04  0.12712224450E+04  0.92329615866E+02 0.  0.
         23    2    4    4    0    0 -0.18706785785E+03  0.29931073866E+03  0.55254137935E+03  0.66183461947E+03  0.90231845396E+02 0.  0.
          2    1    3    3  502    0 -0.64494771087E+02  0.41227477230E+02 -0.98576379376E+02  0.12480618153E+03  0.00000000000E+00 0. -1.
         -2    1    3    3    0  502 -0.13788943753E+03  0.22262531373E+02 -0.40241358041E+02  0.14535640400E+03  0.00000000000E+00 0.  1.
         13    1    5    5    0    0  0.11434521645E+03 -0.16656822170E+03  0.44922639335E+03  0.49256893273E+03  0.00000000000E+00 0. -1.
        -13    1    5    5    0    0  0.27510685001E+03 -0.19623252556E+03  0.70150574417E+03  0.77865351224E+03  0.00000000000E+00 0.  1.
          2    1    6    6  503    0 -0.11083078854E+02 -0.42860065908E+01  0.92096342719E+01  0.15034023174E+02  0.00000000000E+00 0.  1.
         -2    1    6    6    0  503 -0.17598477899E+03  0.30359674525E+03  0.54333174508E+03  0.64680059630E+03  0.00000000000E+00 0. -1.
<mgrwt>
<rscale>  0 0.15513397E+04</rscale>
<asrwt>0</asrwt>
<pdfrwt beam="1">  1        1 0.49135684E-01 0.15513397E+04</pdfrwt>
<pdfrwt beam="2">  1       -1 0.28982118E+00 0.15513397E+04</pdfrwt>
<totfact> 0.29969233E+00</totfact>
</mgrwt>
</event>
<event>
12    3  0.4773567E-008  0.1232077E+04  0.7818608E-02  0.9085234E-01
         -2   -1    0    0    0  501 -0.00000000000E+00  0.00000000000E+00  0.40446964666E+03  0.40446964666E+03  0.00000000000E+00 0.  1.
          2   -1    0    0  501    0  0.00000000000E+00 -0.00000000000E+00 -0.93827441798E+03  0.93827441798E+03  0.00000000000E+00 0. -1.
         23    2    1    2    0    0  0.18820772652E+03 -0.89400632340E+02 -0.34051625524E+03  0.40985514313E+03  0.92818623576E+02 0.  0.
        254    2    1    2    0    0 -0.18820772652E+03  0.89400632340E+02 -0.19328851608E+03  0.93288892151E+03  0.88854187749E+03 0.  0.
         23    2    4    4    0    0 -0.27537971483E+03  0.40719836272E+03 -0.28968722808E+03  0.57773233695E+03  0.90617156739E+02 0.  0.
         23    2    4    4    0    0  0.87171988314E+02 -0.31779773038E+03  0.96398712001E+02  0.35515658456E+03  0.90824748282E+02 0.  0.
          4    1    3    3  502    0  0.17077225984E+03 -0.39554648402E+02 -0.26177205574E+03  0.31504340036E+03  0.00000000000E+00 0. -1.
         -4    1    3    3    0  502  0.17435466681E+02 -0.49845983939E+02 -0.78744199497E+02  0.94811742773E+02  0.00000000000E+00 0.  1.
         13    1    5    5    0    0 -0.27983027797E+03  0.37897999118E+03 -0.27676205767E+03  0.54637720922E+03  0.00000000000E+00 0.  1.
        -13    1    5    5    0    0  0.44505631431E+01  0.28218371539E+02 -0.12925170412E+02  0.31355127727E+02  0.00000000000E+00 0. -1.
          4    1    6    6  503    0  0.67387544347E+01 -0.16490002082E+03  0.19966694582E+02  0.16624107968E+03  0.00000000000E+00 0. -1.
         -4    1    6    6    0  503  0.80433233880E+02 -0.15289770956E+03  0.76432017419E+02  0.18891550489E+03  0.00000000000E+00 0.  1.
<mgrwt>
<rscale>  0 0.12320771E+04</rscale>
<asrwt>0</asrwt>
<pdfrwt beam="1">  1        2 0.14434991E+00 0.12320771E+04</pdfrwt>
<pdfrwt beam="2">  1       -2 0.62226100E-01 0.12320771E+04</pdfrwt>
<totfact> 0.65249944E+01</totfact>
</mgrwt>
</event>
<event>
12    3  0.4773567E-008  0.1898029E+04  0.7818608E-02  0.8655838E-01
         -1   -1    0    0    0  501 -0.00000000000E+00  0.00000000000E+00  0.67320561453E+03  0.67320561453E+03  0.00000000000E+00 0.  1.
          1   -1    0    0  501    0  0.00000000000E+00 -0.00000000000E+00 -0.13378213724E+04  0.13378213724E+04  0.00000000000E+00 0. -1.
         23    2    1    2    0    0  0.24017130932E+03  0.27187415281E+03  0.41603265471E+03  0.56110889861E+03  0.10080780491E+03 0.  0.
        254    2    1    2    0    0 -0.24017130932E+03 -0.27187415281E+03 -0.10806484126E+04  0.14499180883E+04  0.89602659471E+03 0.  0.
         23    2    4    4    0    0 -0.45909527087E+03 -0.11392088192E+02 -0.97739591643E+03  0.10840345259E+04  0.94497769949E+02 0.  0.
         23    2    4    4    0    0  0.21892396155E+03 -0.26048206461E+03 -0.10325249613E+03  0.36588356238E+03  0.86203806958E+02 0.  0.
          3    1    3    3  502    0  0.23480287390E+03  0.21524419371E+03  0.36752574115E+03  0.48635133692E+03  0.00000000000E+00 0.  1.
         -3    1    3    3    0  502  0.53684354133E+01  0.56629959099E+02  0.48506913565E+02  0.74757561691E+02  0.00000000000E+00 0. -1.
         13    1    5    5    0    0 -0.20614329247E+03 -0.52110371837E+02 -0.43801571093E+03  0.48689661213E+03  0.00000000000E+00 0. -1.
        -13    1    5    5    0    0 -0.25295197840E+03  0.40718283645E+02 -0.53938020550E+03  0.59713791378E+03  0.00000000000E+00 0.  1.
          2    1    6    6  503    0 -0.47619678275E+00  0.58452389823E+01 -0.28007962130E+01  0.64990800551E+01  0.00000000000E+00 0. -1.
         -2    1    6    6    0  503  0.21940015834E+03 -0.26632730360E+03 -0.10045169992E+03  0.35938448232E+03  0.00000000000E+00 0.  1.
<mgrwt>
<rscale>  0 0.18980294E+04</rscale>
<asrwt>0</asrwt>
<pdfrwt beam="1">  1        1 0.20581867E+00 0.18980294E+04</pdfrwt>
<pdfrwt beam="2">  1       -1 0.10357010E+00 0.18980294E+04</pdfrwt>
<totfact> 0.69924585E+00</totfact>
</mgrwt>
</event>
<event>
12    3  0.4773567E-008  0.1850410E+04  0.7818608E-02  0.8679942E-01
         -2   -1    0    0    0  501 -0.00000000000E+00  0.00000000000E+00  0.14075635645E+04  0.14075635645E+04  0.00000000000E+00 0.  1.
          2   -1    0    0  501    0  0.00000000000E+00 -0.00000000000E+00 -0.60814638496E+03  0.60814638496E+03  0.00000000000E+00 0. -1.
         23    2    1    2    0    0 -0.65862628084E+03  0.12199265364E+03  0.72409237974E+02  0.67994996577E+03  0.91750056337E+02 0.  0.
        254    2    1    2    0    0  0.65862628084E+03 -0.12199265364E+03  0.72700794155E+03  0.13357599837E+04  0.89835594369E+03 0.  0.
         23    2    4    4    0    0  0.15763671094E+03  0.32672301894E+03  0.48967541540E+03  0.61682385941E+03  0.95354063110E+02 0.  0.
         23    2    4    4    0    0  0.50098956991E+03 -0.44871567258E+03  0.23733252615E+03  0.71893612427E+03  0.90587630697E+02 0.  0.
          4    1    3    3  502    0 -0.57761320872E+03  0.75733357980E+02  0.68600990284E+02  0.58658218203E+03  0.00000000000E+00 0. -1.
         -4    1    3    3    0  502 -0.81013072120E+02  0.46259295664E+02  0.38082476903E+01  0.93367783738E+02  0.00000000000E+00 0.  1.
         13    1    5    5    0    0  0.80846171953E+02  0.10233080896E+03  0.11770158461E+03  0.17567401914E+03  0.00000000000E+00 0.  1.
        -13    1    5    5    0    0  0.76790538984E+02  0.22439220998E+03  0.37197383079E+03  0.44114984027E+03  0.00000000000E+00 0. -1.
          2    1    6    6  503    0  0.45321286762E+03 -0.43276126353E+03  0.23229287932E+03  0.66831444423E+03  0.00000000000E+00 0. -1.
         -2    1    6    6    0  503  0.47776702285E+02 -0.15954409051E+02  0.50396468312E+01  0.50621680035E+02  0.00000000000E+00 0.  1.
<mgrwt>
<rscale>  0 0.18504104E+04</rscale>
<asrwt>0</asrwt>
<pdfrwt beam="1">  1        2 0.93560982E-01 0.18504104E+04</pdfrwt>
<pdfrwt beam="2">  1       -2 0.21654824E+00 0.18504104E+04</pdfrwt>
<totfact> 0.47659670E+00</totfact>
</mgrwt>
</event>
<event>
12    3  0.4773567E-008  0.1864706E+04  0.7818608E-02  0.8672627E-01
         -2   -1    0    0    0  501 -0.00000000000E+00  0.00000000000E+00  0.88279570228E+03  0.88279570228E+03  0.00000000000E+00 0.  1.
          2   -1    0    0  501    0  0.00000000000E+00 -0.00000000000E+00 -0.98469260499E+03  0.98469260499E+03  0.00000000000E+00 0. -1.
         23    2    1    2    0    0  0.29470655514E+03 -0.57840339852E+03  0.25450155201E+03  0.70319231829E+03  0.91136992847E+02 0.  0.
        254    2    1    2    0    0 -0.29470655514E+03  0.57840339852E+03 -0.35639845472E+03  0.11642959890E+04  0.89842242089E+03 0.  0.
         23    2    4    4    0    0 -0.35107097753E+03  0.98622255443E+02  0.19772120741E+03  0.42401643042E+03  0.87858277208E+02 0.  0.
         23    2    4    4    0    0  0.56364422397E+02  0.47978114308E+03 -0.55411966213E+03  0.74027955856E+03  0.87168408813E+02 0.  0.
          3    1    3    3  502    0  0.20021672748E+03 -0.36924560997E+03  0.11857632838E+03  0.43645091831E+03  0.00000000000E+00 0. -1.
         -3    1    3    3    0  502  0.94489827652E+02 -0.20915778856E+03  0.13592522363E+03  0.26674139998E+03  0.00000000000E+00 0.  1.
         13    1    5    5    0    0 -0.21417061305E+03  0.16324500786E+02  0.12490827918E+03  0.24847055968E+03  0.00000000000E+00 0. -1.
        -13    1    5    5    0    0 -0.13690036448E+03  0.82297754658E+02  0.72812928229E+02  0.17554587074E+03  0.00000000000E+00 0.  1.
          2    1    6    6  503    0 -0.17242627917E+02  0.76047191897E+02 -0.62865975920E+02  0.10016293996E+03  0.00000000000E+00 0. -1.
         -2    1    6    6    0  503  0.73607050314E+02  0.40373395118E+03 -0.49125368621E+03  0.64011661860E+03  0.00000000000E+00 0.  1.
<mgrwt>
<rscale>  0 0.18647063E+04</rscale>
<asrwt>0</asrwt>
<pdfrwt beam="1">  1        2 0.15149117E+00 0.18647063E+04</pdfrwt>
<pdfrwt beam="2">  1       -2 0.13581472E+00 0.18647063E+04</pdfrwt>
<totfact> 0.94016445E+00</totfact>
</mgrwt>
</event>
<event>
12    3  0.4773567E-008  0.1486795E+04  0.7818608E-02  0.8893282E-01
          2   -1    0    0  501    0  0.00000000000E+00  0.00000000000E+00  0.63887750078E+03  0.63887750078E+03  0.00000000000E+00 0. -1.
         -2   -1    0    0    0  501 -0.00000000000E+00 -0.00000000000E+00 -0.86501696443E+03  0.86501696443E+03  0.00000000000E+00 0.  1.
         23    2    1    2    0    0 -0.44004924415E+03  0.13638898796E+03 -0.96063700200E+02  0.48422840280E+03  0.11403340857E+03 0.  0.
        254    2    1    2    0    0  0.44004924415E+03 -0.13638898796E+03 -0.13007576345E+03  0.10196660624E+04  0.90030765923E+03 0.  0.
         23    2    4    4    0    0  0.30857817844E+03  0.11834689059E+03 -0.45918058484E+03  0.57390872207E+03  0.96425790377E+02 0.  0.
         23    2    4    4    0    0  0.13147106570E+03 -0.25473587855E+03  0.32910482139E+03  0.44575734034E+03  0.90634508133E+02 0.  0.
          2    1    3    3  502    0 -0.34390707419E+03  0.10304834152E+03 -0.24547866250E+02  0.35985223927E+03  0.00000000000E+00 0. -1.
         -2    1    3    3    0  502 -0.96142169958E+02  0.33340646442E+02 -0.71515833951E+02  0.12437616353E+03  0.00000000000E+00 0.  1.
         13    1    5    5    0    0  0.29726342164E+03  0.11405355391E+03 -0.38897721132E+03  0.50266989758E+03  0.00000000000E+00 0. -1.
        -13    1    5    5    0    0  0.11314756802E+02  0.42933366817E+01 -0.70203373517E+02  0.71238824489E+02  0.00000000000E+00 0.  1.
          4    1    6    6  503    0  0.87328092304E+02 -0.21002198620E+03  0.30008898830E+03  0.37654857760E+03  0.00000000000E+00 0. -1.
         -4    1    6    6    0  503  0.44142973400E+02 -0.44713892349E+02  0.29015833086E+02  0.69208762735E+02  0.00000000000E+00 0.  1.
<mgrwt>
<rscale>  0 0.14867950E+04</rscale>
<asrwt>0</asrwt>
<pdfrwt beam="1">  1        2 0.98288847E-01 0.14867950E+04</pdfrwt>
<pdfrwt beam="2">  1       -2 0.13307953E+00 0.14867950E+04</pdfrwt>
<totfact> 0.18170888E+01</totfact>
</mgrwt>
</event>
<event>
12    3  0.4773567E-008  0.1529662E+04  0.7818608E-02  0.8864964E-01
          2   -1    0    0  501    0  0.00000000000E+00  0.00000000000E+00  0.17000570101E+04  0.17000570101E+04  0.00000000000E+00 0. -1.
         -2   -1    0    0    0  501 -0.00000000000E+00 -0.00000000000E+00 -0.34408631336E+03  0.34408631336E+03  0.00000000000E+00 0.  1.
         23    2    1    2    0    0  0.88394863000E+02  0.43979541212E+03  0.13263404499E+03  0.47701916318E+03  0.93390769449E+02 0.  0.
        254    2    1    2    0    0 -0.88394863000E+02 -0.43979541212E+03  0.12233366517E+04  0.15671241603E+04  0.87068473853E+03 0.  0.
         23    2    4    4    0    0 -0.11280375470E+02 -0.29815567754E+03 -0.17270858285E+02  0.31268186429E+03  0.91910885067E+02 0.  0.
         23    2    4    4    0    0 -0.77114487531E+02 -0.14163973459E+03  0.12406075100E+04  0.12544422960E+04  0.92249777365E+02 0.  0.
          1    1    3    3  502    0  0.72288911089E+01  0.48566156136E+02 -0.14551245112E+02  0.51211982219E+02  0.00000000000E+00 0. -1.
         -1    1    3    3    0  502  0.81165971892E+02  0.39122925599E+03  0.14718529010E+03  0.42580718096E+03  0.00000000000E+00 0.  1.
         13    1    5    5    0    0  0.18799457444E+02 -0.76950473881E+02 -0.39170579580E+02  0.88369278232E+02  0.00000000000E+00 0.  1.
        -13    1    5    5    0    0 -0.30079832914E+02 -0.22120520366E+03  0.21899721295E+02  0.22431258606E+03  0.00000000000E+00 0. -1.
          1    1    6    6  503    0 -0.91795029068E+02 -0.10691511641E+03  0.80805875380E+03  0.82025369190E+03  0.00000000000E+00 0. -1.
         -1    1    6    6    0  503  0.14680541537E+02 -0.34724618175E+02  0.43254875623E+03  0.43418860409E+03  0.00000000000E+00 0.  1.
<mgrwt>
<rscale>  0 0.15296619E+04</rscale>
<asrwt>0</asrwt>
<pdfrwt beam="1">  1        2 0.26154723E+00 0.15296619E+04</pdfrwt>
<pdfrwt beam="2">  1       -2 0.52936357E-01 0.15296619E+04</pdfrwt>
<totfact> 0.31812837E+01</totfact>
</mgrwt>
</event>
<event>
12    3  0.4773567E-008  0.1108373E+04  0.7818608E-02  0.9197070E-01
         -2   -1    0    0    0  501 -0.00000000000E+00  0.00000000000E+00  0.21161316699E+03  0.21161316699E+03  0.00000000000E+00 0.  1.
          2   -1    0    0  501    0  0.00000000000E+00 -0.00000000000E+00 -0.14513389656E+04  0.14513389656E+04  0.00000000000E+00 0. -1.
         23    2    1    2    0    0  0.82351950048E+02 -0.21435515486E+03 -0.33159618179E+03  0.41372389211E+03  0.92094815450E+02 0.  0.
        254    2    1    2    0    0 -0.82351950048E+02  0.21435515486E+03 -0.90812961686E+03  0.12492282405E+04  0.82652393782E+03 0.  0.
         23    2    4    4    0    0 -0.28654768600E+03 -0.13007961156E+03 -0.99163730875E+02  0.34210674012E+03  0.90406274231E+02 0.  0.
         23    2    4    4    0    0  0.20419573595E+03  0.34443476643E+03 -0.80896588598E+03  0.90712150039E+03  0.90068889701E+02 0.  0.
          1    1    3    3  502    0  0.78073113101E+02 -0.95469484018E+02 -0.21051726729E+03  0.24398228049E+03  0.00000000000E+00 0. -1.
         -1    1    3    3    0  502  0.42788369473E+01 -0.11888567085E+03 -0.12107891450E+03  0.16974161162E+03  0.00000000000E+00 0.  1.
         13    1    5    5    0    0 -0.75179741965E+02  0.58283126537E+01 -0.13424177990E+02  0.76590935397E+02  0.00000000000E+00 0. -1.
        -13    1    5    5    0    0 -0.21136794403E+03 -0.13590792422E+03 -0.85739552885E+02  0.26551580472E+03  0.00000000000E+00 0.  1.
          4    1    6    6  503    0  0.60816978483E+02  0.13675330455E+03 -0.21702432480E+03  0.26362801204E+03  0.00000000000E+00 0. -1.
         -4    1    6    6    0  503  0.14337875747E+03  0.20768146187E+03 -0.59194156118E+03  0.64349348836E+03  0.00000000000E+00 0.  1.
<mgrwt>
<rscale>  0 0.11083726E+04</rscale>
<asrwt>0</asrwt>
<pdfrwt beam="1">  1        2 0.22328292E+00 0.11083726E+04</pdfrwt>
<pdfrwt beam="2">  1       -2 0.32555872E-01 0.11083726E+04</pdfrwt>
<totfact> 0.11793253E+02</totfact>
</mgrwt>
</event>
<event>
12    3  0.4773567E-008  0.1485011E+04  0.7818608E-02  0.8894482E-01
          2   -1    0    0  501    0  0.00000000000E+00  0.00000000000E+00  0.13323638868E+04  0.13323638868E+04  0.00000000000E+00 0. -1.
         -2   -1    0    0    0  501 -0.00000000000E+00 -0.00000000000E+00 -0.41378677679E+03  0.41378677679E+03  0.00000000000E+00 0.  1.
         23    2    1    2    0    0  0.64761445014E+02  0.31910915228E+03 -0.64843932712E+02  0.34735604974E+03  0.10211167344E+03 0.  0.
        254    2    1    2    0    0 -0.64761445014E+02 -0.31910915228E+03  0.98342104275E+03  0.13987946139E+04  0.93993868346E+03 0.  0.
         23    2    4    4    0    0 -0.47622946126E+03 -0.73370391779E+02  0.36493496891E+03  0.61130779921E+03  0.91334438596E+02 0.  0.
         23    2    4    4    0    0  0.41146801625E+03 -0.24573876050E+03  0.61848607384E+03  0.78748681467E+03  0.88977485641E+02 0.  0.
          2    1    3    3  502    0 -0.11780300621E+02 -0.21265427296E+00 -0.76424693705E+01  0.14043790181E+02  0.00000000000E+00 0. -1.
         -2    1    3    3    0  502  0.76541745635E+02  0.31932180655E+03 -0.57201463341E+02  0.33331225956E+03  0.00000000000E+00 0.  1.
         13    1    5    5    0    0 -0.42160720025E+03 -0.88543332552E+02  0.29924453927E+03  0.52453774633E+03  0.00000000000E+00 0. -1.
        -13    1    5    5    0    0 -0.54622261008E+02  0.15172940773E+02  0.65690429641E+02  0.86770052874E+02  0.00000000000E+00 0.  1.
          2    1    6    6  503    0  0.30131708026E+03 -0.14828003934E+03  0.47735961798E+03  0.58365328561E+03  0.00000000000E+00 0. -1.
         -2    1    6    6    0  503  0.11015093599E+03 -0.97458721165E+02  0.14112645586E+03  0.20383352907E+03  0.00000000000E+00 0.  1.
<mgrwt>
<rscale>  0 0.14850112E+04</rscale>
<asrwt>0</asrwt>
<pdfrwt beam="1">  1        2 0.20497906E+00 0.14850112E+04</pdfrwt>
<pdfrwt beam="2">  1       -2 0.63659505E-01 0.14850112E+04</pdfrwt>
<totfact> 0.34956455E+01</totfact>
</mgrwt>
</event>
<event>
12    3  0.4773567E-008  0.2728714E+04  0.7818608E-02  0.8325748E-01
          2   -1    0    0  501    0  0.00000000000E+00  0.00000000000E+00  0.11751782827E+04  0.11751782827E+04  0.00000000000E+00 0. -1.
         -2   -1    0    0    0  501 -0.00000000000E+00 -0.00000000000E+00 -0.15839893675E+04  0.15839893675E+04  0.00000000000E+00 0.  1.
         23    2    1    2    0    0 -0.42695854946E+03 -0.79320698396E+03  0.63103836064E+03  0.11063691583E+04  0.11988485962E+03 0.  0.
        254    2    1    2    0    0  0.42695854946E+03  0.79320698396E+03 -0.10398494454E+04  0.16527984919E+04  0.91596127833E+03 0.  0.
         23    2    4    4    0    0  0.57712913926E+03  0.16421459036E+03 -0.66044491697E+03  0.89759840557E+03  0.97215915684E+02 0.  0.
         23    2    4    4    0    0 -0.15017058980E+03  0.62899239360E+03 -0.37940452847E+03  0.75520008636E+03  0.90535832541E+02 0.  0.
          1    1    3    3  502    0 -0.34469742994E+03 -0.67479098512E+03  0.57691697701E+03  0.95236148083E+03  0.00000000000E+00 0. -1.
         -1    1    3    3    0  502 -0.82261119522E+02 -0.11841599884E+03  0.54121383630E+02  0.15400767751E+03  0.00000000000E+00 0.  1.
         13    1    5    5    0    0  0.75840613510E+02  0.38969638686E+02 -0.54189175453E+02  0.10102919446E+03  0.00000000000E+00 0. -1.
        -13    1    5    5    0    0  0.50128852575E+03  0.12524495168E+03 -0.60625574152E+03  0.79656921111E+03  0.00000000000E+00 0.  1.
          4    1    6    6  503    0 -0.31243746041E+02  0.31678613947E+03 -0.20080959663E+03  0.37636966393E+03  0.00000000000E+00 0. -1.
         -4    1    6    6    0  503 -0.11892684376E+03  0.31220625413E+03 -0.17859493184E+03  0.37883042244E+03  0.00000000000E+00 0.  1.
<mgrwt>
<rscale>  0 0.27287139E+04</rscale>
<asrwt>0</asrwt>
<pdfrwt beam="1">  1        2 0.18079666E+00 0.27287139E+04</pdfrwt>
<pdfrwt beam="2">  1       -2 0.24369067E+00 0.27287139E+04</pdfrwt>
<totfact> 0.12057871E+00</totfact>
</mgrwt>
</event>
<event>
12    3  0.4773567E-008  0.1749344E+04  0.7818608E-02  0.8733711E-01
         -2   -1    0    0    0  501 -0.00000000000E+00  0.00000000000E+00  0.68427487530E+03  0.68427487530E+03  0.00000000000E+00 0.  1.
          2   -1    0    0  501    0  0.00000000000E+00 -0.00000000000E+00 -0.11180467846E+04  0.11180467846E+04  0.00000000000E+00 0. -1.
         23    2    1    2    0    0 -0.60655979495E+03  0.13394369160E+03 -0.37158233264E+03  0.72959185867E+03  0.91515861618E+02 0.  0.
        254    2    1    2    0    0  0.60655979495E+03 -0.13394369160E+03 -0.62189576669E+02  0.10727298012E+04  0.87236803337E+03 0.  0.
         23    2    4    4    0    0 -0.22186602186E+01  0.10696639690E+03  0.28822461993E+03  0.32444488404E+03  0.10365480561E+03 0.  0.
         23    2    4    4    0    0  0.60877845517E+03 -0.24091008850E+03 -0.35041419659E+03  0.74828491720E+03  0.92148412459E+02 0.  0.
          1    1    3    3  502    0 -0.27636569689E+02  0.27169434026E+02 -0.16621360584E+02  0.42169037897E+02  0.00000000000E+00 0. -1.
         -1    1    3    3    0  502 -0.57892322526E+03  0.10677425758E+03 -0.35496097206E+03  0.68742282077E+03  0.00000000000E+00 0.  1.
         13    1    5    5    0    0 -0.28828178408E+02  0.76889084713E+02  0.26633799744E+03  0.27870939004E+03  0.00000000000E+00 0. -1.
        -13    1    5    5    0    0  0.26609518190E+02  0.30077312190E+02  0.21886622485E+02  0.45735493991E+02  0.00000000000E+00 0.  1.
          4    1    6    6  503    0  0.18560222949E+03 -0.43275668654E+02 -0.67245621190E+02  0.20209637468E+03  0.00000000000E+00 0.  1.
         -4    1    6    6    0  503  0.42317622568E+03 -0.19763441985E+03 -0.28316857540E+03  0.54618854253E+03  0.00000000000E+00 0. -1.
<mgrwt>
<rscale>  0 0.17493442E+04</rscale>
<asrwt>0</asrwt>
<pdfrwt beam="1">  1        2 0.17200720E+00 0.17493442E+04</pdfrwt>
<pdfrwt beam="2">  1       -2 0.10527306E+00 0.17493442E+04</pdfrwt>
<totfact> 0.14706627E+01</totfact>
</mgrwt>
</event>
<event>
12    3  0.4773567E-008  0.1754885E+04  0.7818608E-02  0.8730666E-01
          2   -1    0    0  501    0  0.00000000000E+00  0.00000000000E+00  0.57733841624E+03  0.57733841624E+03  0.00000000000E+00 0. -1.
         -2   -1    0    0    0  501 -0.00000000000E+00 -0.00000000000E+00 -0.13335421012E+04  0.13335421012E+04  0.00000000000E+00 0.  1.
         23    2    1    2    0    0 -0.19483774987E+03 -0.28695906477E+03  0.30975988344E+03  0.47353460338E+03  0.89311710193E+02 0.  0.
        254    2    1    2    0    0  0.19483774987E+03  0.28695906477E+03 -0.10659635684E+04  0.14373459141E+04  0.89965420795E+03 0.  0.
         23    2    4    4    0    0  0.53879681381E+03  0.13816414954E+03 -0.75189662557E+03  0.93971131475E+03  0.91200223350E+02 0.  0.
         23    2    4    4    0    0 -0.34395906394E+03  0.14879491523E+03 -0.31406694284E+03  0.49763459932E+03  0.92489920477E+02 0.  0.
          4    1    3    3  502    0 -0.16350750694E+03 -0.22298229336E+03  0.28753047079E+03  0.39891049072E+03  0.00000000000E+00 0. -1.
         -4    1    3    3    0  502 -0.31330242929E+02 -0.63976771412E+02  0.22229412651E+02  0.74624112652E+02  0.00000000000E+00 0.  1.
         13    1    5    5    0    0  0.46114592864E+03  0.13177566341E+03 -0.68946543314E+03  0.83987080939E+03  0.00000000000E+00 0. -1.
        -13    1    5    5    0    0  0.77650885173E+02  0.63884861210E+01 -0.62431192433E+02  0.99840505366E+02  0.00000000000E+00 0.  1.
          2    1    6    6  503    0 -0.17414251395E+03  0.11049990780E+03 -0.21232183017E+03  0.29600068303E+03  0.00000000000E+00 0.  1.
         -2    1    6    6    0  503 -0.16981654999E+03  0.38295007430E+02 -0.10174511267E+03  0.20163391629E+03  0.00000000000E+00 0. -1.
<mgrwt>
<rscale>  0 0.17548847E+04</rscale>
<asrwt>0</asrwt>
<pdfrwt beam="1">  1        2 0.88821296E-01 0.17548847E+04</pdfrwt>
<pdfrwt beam="2">  1       -2 0.20516032E+00 0.17548847E+04</pdfrwt>
<totfact> 0.60526355E+00</totfact>
</mgrwt>
</event>
<event>
12    3  0.4773567E-008  0.1538600E+04  0.7818608E-02  0.8859182E-01
          2   -1    0    0  501    0  0.00000000000E+00  0.00000000000E+00  0.36796930757E+04  0.36796930757E+04  0.00000000000E+00 0. -1.
         -2   -1    0    0    0  501 -0.00000000000E+00 -0.00000000000E+00 -0.16083483730E+03  0.16083483730E+03  0.00000000000E+00 0.  1.
         23    2    1    2    0    0  0.17895732252E+03 -0.36639190922E+03  0.44717581409E+03  0.61374561243E+03  0.10221894951E+03 0.  0.
        254    2    1    2    0    0 -0.17895732252E+03  0.36639190922E+03  0.30716824243E+04  0.32267823006E+04  0.90034568083E+03 0.  0.
         23    2    4    4    0    0  0.11358159464E+03  0.54935646966E+03  0.23962625196E+04  0.24629557613E+04  0.96869550177E+02 0.  0.
         23    2    4    4    0    0 -0.29253891716E+03 -0.18296456044E+03  0.67541990473E+03  0.76382653931E+03  0.90464833062E+02 0.  0.
          1    1    3    3  502    0  0.29432353232E+02 -0.49646901854E+02  0.12570286448E+03  0.13831951568E+03  0.00000000000E+00 0. -1.
         -1    1    3    3    0  502  0.14952496929E+03 -0.31674500737E+03  0.32147294961E+03  0.47542609675E+03  0.00000000000E+00 0.  1.
         13    1    5    5    0    0  0.10116917666E+03  0.53290028211E+03  0.23570332285E+04  0.24186408483E+04  0.00000000000E+00 0.  1.
        -13    1    5    5    0    0  0.12412417976E+02  0.16456187552E+02  0.39229291121E+02  0.44314912959E+02  0.00000000000E+00 0. -1.
          2    1    6    6  503    0 -0.66843189299E+02 -0.14962226933E+02  0.80288620539E+02  0.10553739990E+03  0.00000000000E+00 0. -1.
         -2    1    6    6    0  503 -0.22569572786E+03 -0.16800233350E+03  0.59513128419E+03  0.65828913941E+03  0.00000000000E+00 0.  1.
<mgrwt>
<rscale>  0 0.15386005E+04</rscale>
<asrwt>0</asrwt>
<pdfrwt beam="1">  1        2 0.56610656E+00 0.15386005E+04</pdfrwt>
<pdfrwt beam="2">  1       -2 0.24743824E-01 0.15386005E+04</pdfrwt>
<totfact> 0.86463810E+00</totfact>
</mgrwt>
</event>
<event>
12    3  0.4853696E-008  0.1659528E+04  0.7818608E-02  0.8784790E-01
          2   -1    0    0  501    0  0.00000000000E+00  0.00000000000E+00  0.93851568528E+03  0.93851568528E+03  0.00000000000E+00 0. -1.
         -2   -1    0    0    0  501 -0.00000000000E+00 -0.00000000000E+00 -0.73361381167E+03  0.73361381167E+03  0.00000000000E+00 0.  1.
         23    2    1    2    0    0  0.36278393869E+03  0.77422788229E+02  0.52256524753E+03  0.64755525902E+03  0.92988715709E+02 0.  0.
        254    2    1    2    0    0 -0.36278393869E+03 -0.77422788229E+02 -0.31766337393E+03  0.10245742379E+04  0.90068633585E+03 0.  0.
         23    2    4    4    0    0  0.27192105321E+03  0.11643223858E+02  0.29914073578E+02  0.28927996628E+03  0.93335005493E+02 0.  0.
         23    2    4    4    0    0 -0.63470499190E+03 -0.89066012087E+02 -0.34757744751E+03  0.73529427165E+03  0.95207156499E+02 0.  0.
          4    1    3    3  502    0  0.35878501286E+03  0.67321518822E+02  0.47668376498E+03  0.60040510003E+03  0.00000000000E+00 0. -1.
         -4    1    3    3    0  502  0.39989258293E+01  0.10101269406E+02  0.45881482554E+02  0.47150158990E+02  0.00000000000E+00 0.  1.
         13    1    5    5    0    0  0.28379805908E+02  0.26618772023E+00  0.35448725814E+02  0.45410311616E+02  0.00000000000E+00 0. -1.
        -13    1    5    5    0    0  0.24354124731E+03  0.11377036138E+02 -0.55346522351E+01  0.24386965466E+03  0.00000000000E+00 0.  1.
          2    1    6    6  503    0 -0.25004399310E+03 -0.38124883292E+02 -0.19067151899E+03  0.31675090113E+03  0.00000000000E+00 0. -1.
         -2    1    6    6    0  503 -0.38466099881E+03 -0.50941128795E+02 -0.15690592852E+03  0.41854337052E+03  0.00000000000E+00 0.  1.
<mgrwt>
<rscale>  0 0.16595277E+04</rscale>
<asrwt>0</asrwt>
<pdfrwt beam="1">  1        2 0.14438703E+00 0.16595277E+04</pdfrwt>
<pdfrwt beam="2">  1       -2 0.11286366E+00 0.16595277E+04</pdfrwt>
<totfact> 0.16280390E+01</totfact>
</mgrwt>
</event>
<event>
12    3  0.4773567E-008  0.1176166E+04  0.7818608E-02  0.9133978E-01
         -2   -1    0    0    0  501 -0.00000000000E+00  0.00000000000E+00  0.10380642018E+04  0.10380642018E+04  0.00000000000E+00 0.  1.
          2   -1    0    0  501    0  0.00000000000E+00 -0.00000000000E+00 -0.33316009007E+03  0.33316009007E+03  0.00000000000E+00 0. -1.
         23    2    1    2    0    0 -0.23310741595E+03 -0.44066800564E+02  0.94067832063E+02  0.27061081478E+03  0.90002809757E+02 0.  0.
        254    2    1    2    0    0  0.23310741595E+03  0.44066800564E+02  0.61083627967E+03  0.11006134771E+04  0.88427830184E+03 0.  0.
         23    2    4    4    0    0  0.55244155778E+02 -0.30472360917E+03 -0.49680980283E+02  0.32668645105E+03  0.91364340774E+02 0.  0.
         23    2    4    4    0    0  0.17786326017E+03  0.34879040973E+03  0.66051725995E+03  0.77392702604E+03  0.96901505140E+02 0.  0.
          1    1    3    3  502    0 -0.11814063241E+03  0.92263863548E+01  0.10818982402E+02  0.11899321666E+03  0.00000000000E+00 0. -1.
         -1    1    3    3    0  502 -0.11496678354E+03 -0.53293186919E+02  0.83248849661E+02  0.15161759812E+03  0.00000000000E+00 0.  1.
         13    1    5    5    0    0  0.29098176371E+02 -0.36191052945E+02 -0.31819055748E+02  0.56293414269E+02  0.00000000000E+00 0.  1.
        -13    1    5    5    0    0  0.26145979406E+02 -0.26853255622E+03 -0.17861924536E+02  0.27039303678E+03  0.00000000000E+00 0. -1.
          3    1    6    6  503    0  0.10397938361E+03  0.29110899315E+03  0.49043912380E+03  0.57972984421E+03  0.00000000000E+00 0. -1.
         -3    1    6    6    0  503  0.73883876563E+02  0.57681416579E+02  0.17007813615E+03  0.19419718183E+03  0.00000000000E+00 0.  1.
<mgrwt>
<rscale>  0 0.11761659E+04</rscale>
<asrwt>0</asrwt>
<pdfrwt beam="1">  1        2 0.51255399E-01 0.11761659E+04</pdfrwt>
<pdfrwt beam="2">  1       -2 0.15970218E+00 0.11761659E+04</pdfrwt>
<totfact> 0.24404661E+01</totfact>
</mgrwt>
</event>
<event>
12    3  0.4773567E-008  0.2021966E+04  0.7818608E-02  0.8596419E-01
         -1   -1    0    0    0  501 -0.00000000000E+00  0.00000000000E+00  0.12241341486E+04  0.12241341486E+04  0.00000000000E+00 0.  1.
          1   -1    0    0  501    0  0.00000000000E+00 -0.00000000000E+00 -0.83494682616E+03  0.83494682616E+03  0.00000000000E+00 0. -1.
         23    2    1    2    0    0  0.64541886317E+03  0.20756480766E+03  0.60618006778E+03  0.91501052632E+03  0.10070417264E+03 0.  0.
        254    2    1    2    0    0 -0.64541886317E+03 -0.20756480766E+03 -0.21699274536E+03  0.11440704484E+04  0.89563535051E+03 0.  0.
         23    2    4    4    0    0 -0.61758691947E+03  0.10852310174E+03  0.14903317196E+03  0.65078111745E+03  0.90079463640E+02 0.  0.
         23    2    4    4    0    0 -0.27831943697E+02 -0.31608790940E+03 -0.36602591732E+03  0.49328933097E+03  0.93130061387E+02 0.  0.
          2    1    3    3  502    0  0.48960537566E+02  0.43593566923E+02  0.42545289429E+02  0.78151359351E+02  0.00000000000E+00 0. -1.
         -2    1    3    3    0  502  0.59645832560E+03  0.16397124074E+03  0.56363477835E+03  0.83685916697E+03  0.00000000000E+00 0.  1.
         13    1    5    5    0    0 -0.38924607025E+03  0.87267208982E+02  0.54020025529E+02  0.40254966417E+03  0.00000000000E+00 0. -1.
        -13    1    5    5    0    0 -0.22834084922E+03  0.21255892759E+02  0.95013146431E+02  0.24823145328E+03  0.00000000000E+00 0.  1.
          4    1    6    6  503    0 -0.23356142953E+02 -0.24994637133E+03 -0.33869419368E+03  0.42158327147E+03  0.00000000000E+00 0. -1.
         -4    1    6    6    0  503 -0.44758007438E+01 -0.66141538073E+02 -0.27331723646E+02  0.71706059496E+02  0.00000000000E+00 0.  1.
<mgrwt>
<rscale>  0 0.20219663E+04</rscale>
<asrwt>0</asrwt>
<pdfrwt beam="1">  1        1 0.12845336E+00 0.20219663E+04</pdfrwt>
<pdfrwt beam="2">  1       -1 0.18832833E+00 0.20219663E+04</pdfrwt>
<totfact> 0.34669601E+00</totfact>
</mgrwt>
</event>
<event>
12    3  0.4773567E-008  0.1704736E+04  0.7818608E-02  0.8758668E-01
          2   -1    0    0  501    0  0.00000000000E+00  0.00000000000E+00  0.15308896977E+04  0.15308896977E+04  0.00000000000E+00 0.  1.
         -2   -1    0    0    0  501 -0.00000000000E+00 -0.00000000000E+00 -0.47458093411E+03  0.47458093411E+03  0.00000000000E+00 0. -1.
         23    2    1    2    0    0 -0.39472424739E+03 -0.73869893914E+02 -0.15254692815E+03  0.43921472382E+03  0.91515111453E+02 0.  0.
        254    2    1    2    0    0  0.39472424739E+03  0.73869893914E+02  0.12088556917E+04  0.15662559080E+04  0.91135146521E+03 0.  0.
         23    2    4    4    0    0  0.59961514784E+03  0.29642269396E+03  0.75852096037E+03  0.10158698161E+04  0.96086923400E+02 0.  0.
         23    2    4    4    0    0 -0.20489090045E+03 -0.22255280004E+03  0.45033473138E+03  0.55038609193E+03  0.92808674240E+02 0.  0.
          3    1    3    3  502    0 -0.16598569992E+03 -0.62155646100E+01 -0.10344259649E+03  0.19567896307E+03  0.00000000000E+00 0. -1.
         -3    1    3    3    0  502 -0.22873854747E+03 -0.67654329304E+02 -0.49104331663E+02  0.24353576075E+03  0.00000000000E+00 0.  1.
         13    1    5    5    0    0  0.44978411485E+03  0.26677689488E+03  0.58113727876E+03  0.78179038007E+03  0.00000000000E+00 0. -1.
        -13    1    5    5    0    0  0.14983103299E+03  0.29645799081E+02  0.17738368161E+03  0.23407943598E+03  0.00000000000E+00 0.  1.
          3    1    6    6  503    0 -0.66565013293E+01 -0.49425330483E+02  0.10451870329E+03  0.11580730392E+03  0.00000000000E+00 0.  1.
         -3    1    6    6    0  503 -0.19823439912E+03 -0.17312746956E+03  0.34581602809E+03  0.43457878802E+03  0.00000000000E+00 0. -1.
<mgrwt>
<rscale>  0 0.17047358E+04</rscale>
<asrwt>0</asrwt>
<pdfrwt beam="1">  1        2 0.23552149E+00 0.17047358E+04</pdfrwt>
<pdfrwt beam="2">  1       -2 0.73012452E-01 0.17047358E+04</pdfrwt>
<totfact> 0.19654967E+01</totfact>
</mgrwt>
</event>
<event>
12    3  0.4773567E-008  0.1349040E+04  0.7818608E-02  0.8991555E-01
         -1   -1    0    0    0  501 -0.00000000000E+00  0.00000000000E+00  0.48556152278E+03  0.48556152278E+03  0.00000000000E+00 0.  1.
          1   -1    0    0  501    0  0.00000000000E+00 -0.00000000000E+00 -0.93701249432E+03  0.93701249432E+03  0.00000000000E+00 0. -1.
         23    2    1    2    0    0 -0.31743876199E+03  0.16017051170E+03 -0.21115609816E+03  0.42360088979E+03  0.91808799198E+02 0.  0.
        254    2    1    2    0    0  0.31743876199E+03 -0.16017051170E+03 -0.24029487338E+03  0.99897312731E+03  0.90209961893E+03 0.  0.
         23    2    4    4    0    0 -0.12497667096E+02 -0.20828888793E+03  0.28840346061E+03  0.36743101890E+03  0.91041446834E+02 0.  0.
         23    2    4    4    0    0  0.32993642909E+03  0.48118376230E+02 -0.52869833399E+03  0.63154210841E+03  0.90277798816E+02 0.  0.
          3    1    3    3  502    0 -0.78314629050E+02  0.59471072931E+02 -0.17605791911E+02  0.99899717455E+02  0.00000000000E+00 0. -1.
         -3    1    3    3    0  502 -0.23912413294E+03  0.10069943876E+03 -0.19355030625E+03  0.32370117234E+03  0.00000000000E+00 0.  1.
         13    1    5    5    0    0 -0.36428853959E+02 -0.40767073777E+02  0.10160056193E+03  0.11537629691E+03  0.00000000000E+00 0.  1.
        -13    1    5    5    0    0  0.23931186863E+02 -0.16752181415E+03  0.18680289869E+03  0.25205472199E+03  0.00000000000E+00 0. -1.
          3    1    6    6  503    0  0.15692383752E+03  0.65962631734E+02 -0.23438596480E+03  0.28967730333E+03  0.00000000000E+00 0. -1.
         -3    1    6    6    0  503  0.17301259156E+03 -0.17844255504E+02 -0.29431236919E+03  0.34186480508E+03  0.00000000000E+00 0.  1.
<mgrwt>
<rscale>  0 0.13490400E+04</rscale>
<asrwt>0</asrwt>
<pdfrwt beam="1">  1        1 0.14415577E+00 0.13490400E+04</pdfrwt>
<pdfrwt beam="2">  1       -1 0.74701773E-01 0.13490400E+04</pdfrwt>
<totfact> 0.29970718E+01</totfact>
</mgrwt>
</event>
<event>
12    3  0.4773567E-008  0.2312343E+04  0.7818608E-02  0.8473070E-01
          1   -1    0    0  501    0  0.00000000000E+00  0.00000000000E+00  0.13910088762E+04  0.13910088762E+04  0.00000000000E+00 0. -1.
         -1   -1    0    0    0  501 -0.00000000000E+00 -0.00000000000E+00 -0.96098042502E+03  0.96098042502E+03  0.00000000000E+00 0.  1.
         23    2    1    2    0    0  0.25411994083E+03  0.42136481305E+03  0.10474426329E+04  0.11608683567E+04  0.91400341080E+02 0.  0.
        254    2    1    2    0    0 -0.25411994083E+03 -0.42136481305E+03 -0.61741418177E+03  0.11911209445E+04  0.89187643907E+03 0.  0.
         23    2    4    4    0    0 -0.56787000315E+03 -0.26387481121E+03 -0.27429100419E+03  0.69120664024E+03  0.10210194937E+03 0.  0.
         23    2    4    4    0    0  0.31375006232E+03 -0.15749000184E+03 -0.34312317757E+03  0.49991430425E+03  0.94544139547E+02 0.  0.
          2    1    3    3  502    0  0.13617350761E+03  0.28798100569E+03  0.73878498913E+03  0.80453685060E+03  0.00000000000E+00 0. -1.
         -2    1    3    3    0  502  0.11794643322E+03  0.13338380736E+03  0.30865764378E+03  0.35633150610E+03  0.00000000000E+00 0.  1.
         13    1    5    5    0    0 -0.36122822990E+03 -0.17528856961E+03 -0.22775830929E+03  0.46161213607E+03  0.00000000000E+00 0. -1.
        -13    1    5    5    0    0 -0.20664177324E+03 -0.88586241592E+02 -0.46532694900E+02  0.22959450417E+03  0.00000000000E+00 0.  1.
          3    1    6    6  503    0  0.17613235140E+03 -0.91804288368E+02 -0.12824478714E+03  0.23642622105E+03  0.00000000000E+00 0. -1.
         -3    1    6    6    0  503  0.13761771092E+03 -0.65685713474E+02 -0.21487839043E+03  0.26348808320E+03  0.00000000000E+00 0.  1.
<mgrwt>
<rscale>  0 0.23123428E+04</rscale>
<asrwt>0</asrwt>
<pdfrwt beam="1">  1        1 0.21400137E+00 0.23123428E+04</pdfrwt>
<pdfrwt beam="2">  1       -1 0.14784314E+00 0.23123428E+04</pdfrwt>
<totfact> 0.25536220E+00</totfact>
</mgrwt>
</event>
<event>
12    3  0.4773567E-008  0.1282993E+04  0.7818608E-02  0.9043162E-01
         -1   -1    0    0    0  501 -0.00000000000E+00  0.00000000000E+00  0.64681678534E+03  0.64681678534E+03  0.00000000000E+00 0.  1.
          1   -1    0    0  501    0  0.00000000000E+00 -0.00000000000E+00 -0.63621962326E+03  0.63621962326E+03  0.00000000000E+00 0. -1.
         23    2    1    2    0    0  0.20703536007E+03  0.35103712778E+02 -0.23913683631E+03  0.33164659941E+03  0.93312000563E+02 0.  0.
        254    2    1    2    0    0 -0.20703536007E+03 -0.35103712778E+02  0.24973399838E+03  0.95138980919E+03  0.89368875348E+03 0.  0.
         23    2    4    4    0    0 -0.28562255267E+03 -0.27234378000E+02 -0.27829177088E+03  0.40999194299E+03  0.91242148378E+02 0.  0.
         23    2    4    4    0    0  0.78587192593E+02 -0.78693347778E+01  0.52802576926E+03  0.54139786619E+03  0.89791777155E+02 0.  0.
          2    1    3    3  502    0  0.20847696924E+03  0.26879758132E+02 -0.24394159328E+03  0.32201346095E+03  0.00000000000E+00 0. -1.
         -2    1    3    3    0  502 -0.14416091621E+01  0.82239546458E+01  0.48047569758E+01  0.96331384600E+01  0.00000000000E+00 0.  1.
         13    1    5    5    0    0 -0.33121168482E+02  0.83194848571E+01 -0.22870422246E+01  0.34226542216E+02  0.00000000000E+00 0. -1.
        -13    1    5    5    0    0 -0.25250138419E+03 -0.35553862857E+02 -0.27600472865E+03  0.37576540077E+03  0.00000000000E+00 0.  1.
          3    1    6    6  503    0  0.63224029139E+02 -0.30028141700E+02  0.19319251815E+03  0.20548069550E+03  0.00000000000E+00 0. -1.
         -3    1    6    6    0  503  0.15363163454E+02  0.22158806922E+02  0.33483325112E+03  0.33591717070E+03  0.00000000000E+00 0.  1.
<mgrwt>
<rscale>  0 0.12829926E+04</rscale>
<asrwt>0</asrwt>
<pdfrwt beam="1">  1        1 0.97879942E-01 0.12829926E+04</pdfrwt>
<pdfrwt beam="2">  1       -1 0.99510275E-01 0.12829926E+04</pdfrwt>
<totfact> 0.29825898E+01</totfact>
</mgrwt>
</event>
<event>
12    3  0.4773567E-008  0.2560366E+04  0.7818608E-02  0.8381790E-01
         -1   -1    0    0    0  501 -0.00000000000E+00  0.00000000000E+00  0.46831637931E+03  0.46831637931E+03  0.00000000000E+00 0.  1.
          1   -1    0    0  501    0  0.00000000000E+00 -0.00000000000E+00 -0.34994896849E+04  0.34994896849E+04  0.00000000000E+00 0. -1.
         23    2    1    2    0    0 -0.70203897634E+03 -0.76787781505E+03 -0.19376561513E+04  0.22011409343E+04  0.89526469448E+02 0.  0.
        254    2    1    2    0    0  0.70203897634E+03  0.76787781505E+03 -0.10935171543E+04  0.17666651300E+04  0.91805819612E+03 0.  0.
         23    2    4    4    0    0  0.48600220766E+03  0.57408124177E+03 -0.14613954757E+03  0.77152604585E+03  0.90156830392E+02 0.  0.
         23    2    4    4    0    0  0.21603676868E+03  0.19379657328E+03 -0.94737760674E+03  0.99513908410E+03  0.92457934777E+02 0.  0.
          4    1    3    3  502    0 -0.49889188665E+03 -0.59860142530E+03 -0.14787239247E+04  0.16714787544E+04  0.00000000000E+00 0. -1.
         -4    1    3    3    0  502 -0.20314708970E+03 -0.16927638975E+03 -0.45893222654E+03  0.52966217982E+03  0.00000000000E+00 0.  1.
         13    1    5    5    0    0  0.48214605686E+03  0.56949325626E+03 -0.13418187157E+03  0.75815048884E+03  0.00000000000E+00 0. -1.
        -13    1    5    5    0    0  0.38561507958E+01  0.45879855099E+01 -0.11957676003E+02  0.13375557012E+02  0.00000000000E+00 0.  1.
          1    1    6    6  503    0  0.22502299484E+03  0.19103700411E+03 -0.91639742566E+03  0.96276410761E+03  0.00000000000E+00 0. -1.
         -1    1    6    6    0  503 -0.89862261599E+01  0.27595691691E+01 -0.30980181086E+02  0.32374976490E+02  0.00000000000E+00 0.  1.
<mgrwt>
<rscale>  0 0.25603659E+04</rscale>
<asrwt>0</asrwt>
<pdfrwt beam="1">  1        1 0.53838303E+00 0.25603659E+04</pdfrwt>
<pdfrwt beam="2">  1       -1 0.72048673E-01 0.25603659E+04</pdfrwt>
<totfact> 0.42997877E-01</totfact>
</mgrwt>
</event>
<event>
12    3  0.4773567E-008  0.1771292E+04  0.7818608E-02  0.8721717E-01
         -2   -1    0    0    0  501 -0.00000000000E+00  0.00000000000E+00  0.40108450830E+03  0.40108450830E+03  0.00000000000E+00 0.  1.
          2   -1    0    0  501    0  0.00000000000E+00 -0.00000000000E+00 -0.19556191514E+04  0.19556191514E+04  0.00000000000E+00 0. -1.
         23    2    1    2    0    0  0.16372913075E+03  0.68864050188E+02 -0.14153143296E+04  0.14295149567E+04  0.94068453571E+02 0.  0.
        254    2    1    2    0    0 -0.16372913075E+03 -0.68864050188E+02 -0.13922031346E+03  0.92718870304E+03  0.89930368046E+03 0.  0.
         23    2    4    4    0    0 -0.23304940127E+03  0.37790866669E+03 -0.75386701175E+02  0.46114991506E+03  0.99242660436E+02 0.  0.
         23    2    4    4    0    0  0.69320270521E+02 -0.44677271688E+03 -0.63833612281E+02  0.46603878798E+03  0.93307349085E+02 0.  0.
          3    1    3    3  502    0  0.51515827428E+02 -0.22468661018E+02 -0.37537562721E+03  0.37955972218E+03  0.00000000000E+00 0. -1.
         -3    1    3    3    0  502  0.11221330332E+03  0.91332711206E+02 -0.10399387024E+04  0.10499552345E+04  0.00000000000E+00 0.  1.
         13    1    5    5    0    0 -0.10718186512E+03  0.15228459508E+03 -0.80174912121E+02  0.20274754411E+03  0.00000000000E+00 0. -1.
        -13    1    5    5    0    0 -0.12586753615E+03  0.22562407161E+03  0.47882109459E+01  0.25840237094E+03  0.00000000000E+00 0.  1.
          4    1    6    6  503    0  0.11383818302E+02 -0.34976408254E+00 -0.15285543098E+00  0.11390215925E+02  0.00000000000E+00 0. -1.
         -4    1    6    6    0  503  0.57936452219E+02 -0.44642295280E+03 -0.63680756850E+02  0.45464857205E+03  0.00000000000E+00 0.  1.
<mgrwt>
<rscale>  0 0.17712917E+04</rscale>
<asrwt>0</asrwt>
<pdfrwt beam="1">  1        2 0.30086448E+00 0.17712917E+04</pdfrwt>
<pdfrwt beam="2">  1       -2 0.61705309E-01 0.17712917E+04</pdfrwt>
<totfact> 0.16329564E+01</totfact>
</mgrwt>
</event>
<event>
12    3  0.4773567E-008  0.1802493E+04  0.7818608E-02  0.8704975E-01
         -1   -1    0    0    0  501 -0.00000000000E+00  0.00000000000E+00  0.12996220743E+04  0.12996220743E+04  0.00000000000E+00 0.  1.
          1   -1    0    0  501    0  0.00000000000E+00 -0.00000000000E+00 -0.62498580637E+03  0.62498580637E+03  0.00000000000E+00 0. -1.
         23    2    1    2    0    0 -0.34384186970E+03 -0.26404397365E+03  0.73761185802E+03  0.86110630395E+03  0.97397958036E+02 0.  0.
        254    2    1    2    0    0  0.34384186970E+03  0.26404397365E+03 -0.62975590058E+02  0.10635015767E+04  0.96908370507E+03 0.  0.
         23    2    4    4    0    0  0.52258560136E+03  0.19985564902E+02 -0.35018667827E+03  0.63634035399E+03  0.93825385268E+02 0.  0.
         23    2    4    4    0    0 -0.17874373167E+03  0.24405840875E+03  0.28721108821E+03  0.42716122276E+03  0.91992785318E+02 0.  0.
          3    1    3    3  502    0 -0.17365165656E+03 -0.73193712011E+02  0.32495573225E+03  0.37564404058E+03  0.00000000000E+00 0. -1.
         -3    1    3    3    0  502 -0.17019021314E+03 -0.19085026164E+03  0.41265612577E+03  0.48546226337E+03  0.00000000000E+00 0.  1.
         13    1    5    5    0    0  0.51263261187E+02  0.36499689378E+01 -0.44618856415E+01  0.51586361029E+02  0.00000000000E+00 0. -1.
        -13    1    5    5    0    0  0.47132234018E+03  0.16335595964E+02 -0.34572479262E+03  0.58475399296E+03  0.00000000000E+00 0.  1.
          2    1    6    6  503    0 -0.15923008952E+02  0.93185877313E+01 -0.43641311800E+01  0.18958479167E+02  0.00000000000E+00 0. -1.
         -2    1    6    6    0  503 -0.16282072271E+03  0.23473982102E+03  0.29157521939E+03  0.40820274360E+03  0.00000000000E+00 0.  1.
<mgrwt>
<rscale>  0 0.18024931E+04</rscale>
<asrwt>0</asrwt>
<pdfrwt beam="1">  1        1 0.96151663E-01 0.18024931E+04</pdfrwt>
<pdfrwt beam="2">  1       -1 0.19994186E+00 0.18024931E+04</pdfrwt>
<totfact> 0.45855969E+00</totfact>
</mgrwt>
</event>
<event>
12    3  0.4773567E-008  0.1607611E+04  0.7818608E-02  0.8815886E-01
          4   -1    0    0  501    0  0.00000000000E+00  0.00000000000E+00  0.13313426682E+04  0.13313426682E+04  0.00000000000E+00 0. -1.
         -4   -1    0    0    0  501 -0.00000000000E+00 -0.00000000000E+00 -0.48530190088E+03  0.48530190088E+03  0.00000000000E+00 0.  1.
         23    2    1    2    0    0  0.46998245542E+03  0.28090895679E+02  0.61372018372E+03  0.77933266342E+03  0.95049090180E+02 0.  0.
        254    2    1    2    0    0 -0.46998245542E+03 -0.28090895679E+02  0.23232058357E+03  0.10373119056E+04  0.89463429914E+03 0.  0.
         23    2    4    4    0    0 -0.41436856847E+03 -0.14103524601E+03  0.53541836540E+03  0.69732686379E+03  0.89440917898E+02 0.  0.
         23    2    4    4    0    0 -0.55613886953E+02  0.11294435033E+03 -0.30309778183E+03  0.33998504185E+03  0.88725603024E+02 0.  0.
          4    1    3    3  502    0  0.40879562527E+03 -0.61592908167E+01  0.54339899194E+03  0.68002519406E+03  0.00000000000E+00 0. -1.
         -4    1    3    3    0  502  0.61186830153E+02  0.34250186496E+02  0.70321191777E+02  0.99307469367E+02  0.00000000000E+00 0.  1.
         13    1    5    5    0    0 -0.12275337513E+03 -0.52267086823E+02  0.10439697299E+03  0.16940769593E+03  0.00000000000E+00 0. -1.
        -13    1    5    5    0    0 -0.29161519334E+03 -0.88768159190E+02  0.43102139241E+03  0.52791916786E+03  0.00000000000E+00 0.  1.
          3    1    6    6  503    0  0.12665405052E+02  0.34184533059E+02 -0.28514376284E+02  0.46282442033E+02  0.00000000000E+00 0. -1.
         -3    1    6    6    0  503 -0.68279292005E+02  0.78759817274E+02 -0.27458340555E+03  0.29370259981E+03  0.00000000000E+00 0.  1.
<mgrwt>
<rscale>  0 0.16076108E+04</rscale>
<asrwt>0</asrwt>
<pdfrwt beam="1">  1        4 0.20482195E+00 0.16076108E+04</pdfrwt>
<pdfrwt beam="2">  1       -4 0.74661832E-01 0.16076108E+04</pdfrwt>
<totfact> 0.38030611E-01</totfact>
</mgrwt>
</event>
<event>
12    3  0.4773567E-008  0.1749868E+04  0.7818608E-02  0.8733423E-01
          2   -1    0    0  501    0  0.00000000000E+00  0.00000000000E+00  0.32279675273E+04  0.32279675273E+04  0.00000000000E+00 0. -1.
         -2   -1    0    0    0  501 -0.00000000000E+00 -0.00000000000E+00 -0.23714907925E+03  0.23714907925E+03  0.00000000000E+00 0.  1.
         23    2    1    2    0    0 -0.33308629054E+03  0.38530861748E+03  0.32171668313E+03  0.60942853832E+03  0.92153738213E+02 0.  0.
        254    2    1    2    0    0  0.33308629054E+03 -0.38530861748E+03  0.26691017649E+04  0.28556880682E+04  0.87831708616E+03 0.  0.
         23    2    4    4    0    0  0.35345168908E+03 -0.22061290996E+03  0.26279945491E+04  0.26623701285E+04  0.90891135435E+02 0.  0.
         23    2    4    4    0    0 -0.20365398541E+02 -0.16469570752E+03  0.41107215882E+02  0.19331793978E+03  0.90236340293E+02 0.  0.
          2    1    3    3  502    0 -0.49339665544E+01 -0.51791134905E+01  0.74209117182E+01  0.10307141856E+02  0.00000000000E+00 0. -1.
         -2    1    3    3    0  502 -0.32815232398E+03  0.39048773098E+03  0.31429577141E+03  0.59912139647E+03  0.00000000000E+00 0.  1.
         13    1    5    5    0    0  0.35340757225E+03 -0.21376848472E+03  0.26171860545E+04  0.26495767061E+04  0.00000000000E+00 0.  1.
        -13    1    5    5    0    0  0.44116832946E-01 -0.68444252457E+01  0.10808494521E+02  0.12793422413E+02  0.00000000000E+00 0. -1.
          4    1    6    6  503    0  0.19388497622E+01 -0.12140312219E+03 -0.11096949145E+02  0.12192464679E+03  0.00000000000E+00 0.  1.
         -4    1    6    6    0  503 -0.22304248303E+02 -0.43292585333E+02  0.52204165027E+02  0.71393292986E+02  0.00000000000E+00 0. -1.
<mgrwt>
<rscale>  0 0.17498680E+04</rscale>
<asrwt>0</asrwt>
<pdfrwt beam="1">  1        2 0.49661036E+00 0.17498680E+04</pdfrwt>
<pdfrwt beam="2">  1       -2 0.36484476E-01 0.17498680E+04</pdfrwt>
<totfact> 0.83865569E+00</totfact>
</mgrwt>
</event>
<event>
12    3  0.4773567E-008  0.1674430E+04  0.7818608E-02  0.8776084E-01
         -1   -1    0    0    0  501 -0.00000000000E+00  0.00000000000E+00  0.57889324472E+03  0.57889324472E+03  0.00000000000E+00 0.  1.
          1   -1    0    0  501    0  0.00000000000E+00 -0.00000000000E+00 -0.12108081725E+04  0.12108081725E+04  0.00000000000E+00 0. -1.
         23    2    1    2    0    0  0.36456056654E+03  0.21148100956E+02 -0.72214201655E+03  0.81472300078E+03  0.94513634311E+02 0.  0.
        254    2    1    2    0    0 -0.36456056654E+03 -0.21148100956E+02  0.90227088789E+02  0.97497841642E+03  0.89949448919E+03 0.  0.
         23    2    4    4    0    0 -0.65493956189E+03 -0.85590808184E+00  0.10340437725E+03  0.66959559635E+03  0.93376844591E+02 0.  0.
         23    2    4    4    0    0  0.29037899535E+03 -0.20292192875E+02 -0.13177288457E+02  0.30538282007E+03  0.91396344751E+02 0.  0.
          2    1    3    3  502    0  0.33205766514E+03  0.36604415567E+02 -0.68935564534E+03  0.76603745468E+03  0.00000000000E+00 0. -1.
         -2    1    3    3    0  502  0.32502901405E+02 -0.15456314610E+02 -0.32786371214E+02  0.48685546094E+02  0.00000000000E+00 0.  1.
         13    1    5    5    0    0 -0.55264744263E+03  0.41150699850E+01  0.12081318439E+03  0.56571366889E+03  0.00000000000E+00 0. -1.
        -13    1    5    5    0    0 -0.10229211926E+03 -0.49709780668E+01 -0.17408807147E+02  0.10388192746E+03  0.00000000000E+00 0.  1.
          2    1    6    6  503    0  0.22784039988E+03  0.76401664436E+01 -0.40688632839E+02  0.23157112256E+03  0.00000000000E+00 0. -1.
         -2    1    6    6    0  503  0.62538595465E+02 -0.27932359318E+02  0.27511344382E+02  0.73811697512E+02  0.00000000000E+00 0.  1.
<mgrwt>
<rscale>  0 0.16744297E+04</rscale>
<asrwt>0</asrwt>
<pdfrwt beam="1">  1        1 0.18627818E+00 0.16744297E+04</pdfrwt>
<pdfrwt beam="2">  1       -1 0.89060500E-01 0.16744297E+04</pdfrwt>
<totfact> 0.12371766E+01</totfact>
</mgrwt>
</event>
<event>
12    3  0.4773567E-008  0.1830615E+04  0.7818608E-02  0.8690186E-01
         -2   -1    0    0    0  501 -0.00000000000E+00  0.00000000000E+00  0.62208705527E+03  0.62208705527E+03  0.00000000000E+00 0.  1.
          2   -1    0    0  501    0  0.00000000000E+00 -0.00000000000E+00 -0.13467378019E+04  0.13467378019E+04  0.00000000000E+00 0. -1.
         23    2    1    2    0    0  0.50389918679E+03 -0.39732689284E+03 -0.55485245600E+03  0.85311374086E+03  0.90325836180E+02 0.  0.
        254    2    1    2    0    0 -0.50389918679E+03  0.39732689284E+03 -0.16979829066E+03  0.11157111163E+04  0.89677019653E+03 0.  0.
         23    2    4    4    0    0 -0.60036138077E+03 -0.73769908364E+02 -0.12094761234E+03  0.62396313684E+03  0.93946177664E+02 0.  0.
         23    2    4    4    0    0  0.96462193976E+02  0.47109680121E+03 -0.48850678314E+02  0.49174797950E+03  0.90512626743E+02 0.  0.
          1    1    3    3  502    0  0.50151535809E+03 -0.39452278068E+03 -0.55845690663E+03  0.84796226062E+03  0.00000000000E+00 0.  1.
         -1    1    3    3    0  502  0.23838286990E+01 -0.28041121648E+01  0.36044506264E+01  0.51514802356E+01  0.00000000000E+00 0. -1.
         13    1    5    5    0    0 -0.27454822886E+02  0.15338129626E+02  0.10743575817E+01  0.31467121958E+02  0.00000000000E+00 0. -1.
        -13    1    5    5    0    0 -0.57290655788E+03 -0.89108037989E+02 -0.12202196993E+03  0.59249601488E+03  0.00000000000E+00 0.  1.
          2    1    6    6  503    0  0.60758909065E+02  0.26505666525E+03 -0.72158520641E+02  0.28134237670E+03  0.00000000000E+00 0. -1.
         -2    1    6    6    0  503  0.35703284911E+02  0.20604013596E+03  0.23307842327E+02  0.21040560281E+03  0.00000000000E+00 0.  1.
<mgrwt>
<rscale>  0 0.18306154E+04</rscale>
<asrwt>0</asrwt>
<pdfrwt beam="1">  1        2 0.20719043E+00 0.18306154E+04</pdfrwt>
<pdfrwt beam="2">  1       -2 0.95705701E-01 0.18306154E+04</pdfrwt>
<totfact> 0.13398085E+01</totfact>
</mgrwt>
</event>
<event>
12    3  0.4773567E-008  0.4013354E+04  0.7818608E-02  0.8001858E-01
         -2   -1    0    0    0  501 -0.00000000000E+00  0.00000000000E+00  0.14218130166E+04  0.14218130166E+04  0.00000000000E+00 0.  1.
          2   -1    0    0  501    0  0.00000000000E+00 -0.00000000000E+00 -0.28321253185E+04  0.28321253185E+04  0.00000000000E+00 0. -1.
         23    2    1    2    0    0  0.12984908450E+04 -0.50101445458E+03 -0.20575115364E+04  0.24858412530E+04  0.94652280364E+02 0.  0.
        254    2    1    2    0    0 -0.12984908450E+04  0.50101445458E+03  0.64719923449E+03  0.17680970821E+04  0.87761408623E+03 0.  0.
         23    2    4    4    0    0  0.30715318282E+02  0.56037276855E+02  0.30585829714E+03  0.32226786566E+03  0.78890253735E+02 0.  0.
         23    2    4    4    0    0 -0.13292061633E+04  0.44497717773E+03  0.34134093735E+03  0.14458292164E+04  0.95471327490E+02 0.  0.
          1    1    3    3  502    0  0.11854490142E+04 -0.45264918364E+03 -0.19193959477E+04  0.23009262163E+04  0.00000000000E+00 0. -1.
         -1    1    3    3    0  502  0.11304183080E+03 -0.48365270944E+02 -0.13811558873E+03  0.18491503669E+03  0.00000000000E+00 0.  1.
         13    1    5    5    0    0 -0.75743955576E+01  0.59994348592E+02  0.15009082191E+03  0.16181454864E+03  0.00000000000E+00 0. -1.
        -13    1    5    5    0    0  0.38289713839E+02 -0.39570717377E+01  0.15576747523E+03  0.16045331702E+03  0.00000000000E+00 0.  1.
          2    1    6    6  503    0 -0.32395983157E+03  0.90427949366E+02  0.44098020729E+02  0.33922237829E+03  0.00000000000E+00 0. -1.
         -2    1    6    6    0  503 -0.10052463317E+04  0.35454922836E+03  0.29724291662E+03  0.11066068382E+04  0.00000000000E+00 0.  1.
<mgrwt>
<rscale>  0 0.40133540E+04</rscale>
<asrwt>0</asrwt>
<pdfrwt beam="1">  1        2 0.43571159E+00 0.40133540E+04</pdfrwt>
<pdfrwt beam="2">  1       -2 0.21874046E+00 0.40133540E+04</pdfrwt>
<totfact> 0.17533453E-01</totfact>
</mgrwt>
</event>
<event>
12    3  0.4773567E-008  0.1999672E+04  0.7818608E-02  0.8606774E-01
          2   -1    0    0  501    0  0.00000000000E+00  0.00000000000E+00  0.23235752328E+04  0.23235752328E+04  0.00000000000E+00 0. -1.
         -2   -1    0    0    0  501 -0.00000000000E+00 -0.00000000000E+00 -0.43023009366E+03  0.43023009366E+03  0.00000000000E+00 0.  1.
         23    2    1    2    0    0  0.59080193101E+03 -0.41805658429E+03  0.12031792071E+04  0.14070471777E+04  0.91232267236E+02 0.  0.
        254    2    1    2    0    0 -0.59080193101E+03  0.41805658429E+03  0.69016593206E+03  0.13467581488E+04  0.90200347455E+03 0.  0.
         23    2    4    4    0    0 -0.29031522626E+03 -0.12296584241E+03 -0.95583112085E+02  0.34235270840E+03  0.93089830993E+02 0.  0.
         23    2    4    4    0    0 -0.30048670475E+03  0.54102242670E+03  0.78574904414E+03  0.10044054404E+04  0.91821578673E+02 0.  0.
          3    1    3    3  502    0  0.56370472347E+02 -0.49404202059E+02  0.18349510076E+03  0.19821417038E+03  0.00000000000E+00 0. -1.
         -3    1    3    3    0  502  0.53443145867E+03 -0.36865238223E+03  0.10196841063E+04  0.12088330073E+04  0.00000000000E+00 0.  1.
         13    1    5    5    0    0 -0.13839862228E+02 -0.14679743849E+02  0.15382336748E+02  0.25370316312E+02  0.00000000000E+00 0.  1.
        -13    1    5    5    0    0 -0.27647536403E+03 -0.10828609856E+03 -0.11096544883E+03  0.31698239209E+03  0.00000000000E+00 0. -1.
          4    1    6    6  503    0 -0.25096313449E+03  0.42725537864E+03  0.56777320574E+03  0.75358879146E+03  0.00000000000E+00 0. -1.
         -4    1    6    6    0  503 -0.49523570258E+02  0.11376704806E+03  0.21797583840E+03  0.25081664889E+03  0.00000000000E+00 0.  1.
<mgrwt>
<rscale>  0 0.19996720E+04</rscale>
<asrwt>0</asrwt>
<pdfrwt beam="1">  1        2 0.35747311E+00 0.19996720E+04</pdfrwt>
<pdfrwt beam="2">  1       -2 0.66189247E-01 0.19996720E+04</pdfrwt>
<totfact> 0.85759939E+00</totfact>
</mgrwt>
</event>
<event>
12    3  0.4773567E-008  0.2784345E+04  0.7818608E-02  0.8308145E-01
          2   -1    0    0  501    0  0.00000000000E+00  0.00000000000E+00  0.24963519557E+04  0.24963519557E+04  0.00000000000E+00 0. -1.
         -2   -1    0    0    0  501 -0.00000000000E+00 -0.00000000000E+00 -0.77639084531E+03  0.77639084531E+03  0.00000000000E+00 0.  1.
         23    2    1    2    0    0 -0.78725938790E+02  0.12028206829E+04  0.41685761967E+03  0.12786641525E+04  0.90754454137E+02 0.  0.
        254    2    1    2    0    0  0.78725938790E+02 -0.12028206829E+04  0.13031034908E+04  0.19940786486E+04  0.90845780330E+03 0.  0.
         23    2    4    4    0    0 -0.11901052219E+03 -0.76748953495E+03  0.22948121330E+03  0.81508397331E+03  0.92176817329E+02 0.  0.
         23    2    4    4    0    0  0.19773646098E+03 -0.43533114799E+03  0.10736222775E+04  0.11789946753E+04  0.93545353943E+02 0.  0.
          4    1    3    3  502    0 -0.31487927266E+02  0.32168488584E+03  0.71162775334E+02  0.33096343595E+03  0.00000000000E+00 0. -1.
         -4    1    3    3    0  502 -0.47238011524E+02  0.88113579709E+03  0.34569484433E+03  0.94770071650E+03  0.00000000000E+00 0.  1.
         13    1    5    5    0    0 -0.12160803664E+02 -0.56518226115E+02  0.43821833976E+02  0.72543422596E+02  0.00000000000E+00 0.  1.
        -13    1    5    5    0    0 -0.10684971852E+03 -0.71097130883E+03  0.18565937932E+03  0.74254055072E+03  0.00000000000E+00 0. -1.
          3    1    6    6  503    0  0.16705285671E+03 -0.34725099398E+03  0.94113485250E+03  0.10169683969E+04  0.00000000000E+00 0. -1.
         -3    1    6    6    0  503  0.30683604270E+02 -0.88080154009E+02  0.13248742496E+03  0.16202627834E+03  0.00000000000E+00 0.  1.
<mgrwt>
<rscale>  0 0.27843454E+04</rscale>
<asrwt>0</asrwt>
<pdfrwt beam="1">  1        2 0.38405414E+00 0.27843454E+04</pdfrwt>
<pdfrwt beam="2">  1       -2 0.11944475E+00 0.27843454E+04</pdfrwt>
<totfact> 0.16367972E+00</totfact>
</mgrwt>
</event>
<event>
12    3  0.4773567E-008  0.2011060E+04  0.7818608E-02  0.8601467E-01
         -2   -1    0    0    0  501 -0.00000000000E+00  0.00000000000E+00  0.85654617977E+03  0.85654617977E+03  0.00000000000E+00 0. -1.
          2   -1    0    0  501    0  0.00000000000E+00 -0.00000000000E+00 -0.11804274672E+04  0.11804274672E+04  0.00000000000E+00 0.  1.
         23    2    1    2    0    0  0.52955206626E+03  0.49643842970E+03  0.20443009439E+03  0.75902500948E+03  0.86317994431E+02 0.  0.
        254    2    1    2    0    0 -0.52955206626E+03 -0.49643842970E+03 -0.52831138182E+03  0.12779486375E+04  0.90948518326E+03 0.  0.
         23    2    4    4    0    0 -0.31137068575E+03 -0.20598443471E+03 -0.75018167398E+03  0.84284855667E+03  0.90773642752E+02 0.  0.
         23    2    4    4    0    0 -0.21818138051E+03 -0.29045399500E+03  0.22187029216E+03  0.43510008084E+03  0.90105581353E+02 0.  0.
          2    1    3    3  502    0  0.22324357904E+03  0.16684460988E+03  0.48955567763E+02  0.28296902135E+03  0.00000000000E+00 0. -1.
         -2    1    3    3    0  502  0.30630848722E+03  0.32959381982E+03  0.15547452662E+03  0.47605598813E+03  0.00000000000E+00 0.  1.
         13    1    5    5    0    0 -0.26212154673E+03 -0.20000490170E+03 -0.69094594088E+03  0.76558210479E+03  0.00000000000E+00 0.  1.
        -13    1    5    5    0    0 -0.49249139023E+02 -0.59795330085E+01 -0.59235733096E+02  0.77266451872E+02  0.00000000000E+00 0. -1.
          2    1    6    6  503    0 -0.12936736692E+03 -0.12777077196E+03  0.15209720777E+03  0.23705452200E+03  0.00000000000E+00 0.  1.
         -2    1    6    6    0  503 -0.88814013589E+02 -0.16268322304E+03  0.69773084385E+02  0.19804555883E+03  0.00000000000E+00 0. -1.
<mgrwt>
<rscale>  0 0.20110601E+04</rscale>
<asrwt>0</asrwt>
<pdfrwt beam="1">  1        2 0.18160422E+00 0.20110601E+04</pdfrwt>
<pdfrwt beam="2">  1       -2 0.13177634E+00 0.20110601E+04</pdfrwt>
<totfact> 0.75802863E+00</totfact>
</mgrwt>
</event>
<event>
12    3  0.4773567E-008  0.1190975E+04  0.7818608E-02  0.9120793E-01
         -1   -1    0    0    0  501 -0.00000000000E+00  0.00000000000E+00  0.45306016421E+03  0.45306016421E+03  0.00000000000E+00 0.  1.
          1   -1    0    0  501    0  0.00000000000E+00 -0.00000000000E+00 -0.78268922543E+03  0.78268922543E+03  0.00000000000E+00 0. -1.
         23    2    1    2    0    0  0.12402146048E+03 -0.12025174450E+03 -0.25175972919E+03  0.31698877793E+03  0.85188727970E+02 0.  0.
        254    2    1    2    0    0 -0.12402146048E+03  0.12025174450E+03 -0.77869332019E+02  0.91876061171E+03  0.89900813348E+03 0.  0.
         23    2    4    4    0    0 -0.16875536189E+03 -0.35786116300E+02  0.37793520366E+03  0.42552400152E+03  0.92068666865E+02 0.  0.
         23    2    4    4    0    0  0.44733901407E+02  0.15603786080E+03 -0.45580453568E+03  0.49323661019E+03  0.95789576429E+02 0.  0.
          2    1    3    3  502    0  0.65798727576E+02 -0.78727646591E+02 -0.21112648486E+03  0.23473795496E+03  0.00000000000E+00 0. -1.
         -2    1    3    3    0  502  0.58222732906E+02 -0.41524097905E+02 -0.40633244332E+02  0.82250822967E+02  0.00000000000E+00 0.  1.
         13    1    5    5    0    0 -0.43170349623E+02 -0.44949453902E+02  0.75350075354E+02  0.97784284773E+02  0.00000000000E+00 0.  1.
        -13    1    5    5    0    0 -0.12558501227E+03  0.91633376016E+01  0.30258512831E+03  0.32773971675E+03  0.00000000000E+00 0. -1.
          4    1    6    6  503    0 -0.16253402839E+02  0.99907109659E+02 -0.30212217666E+03  0.31862738943E+03  0.00000000000E+00 0. -1.
         -4    1    6    6    0  503  0.60987304246E+02  0.56130751137E+02 -0.15368235902E+03  0.17460922076E+03  0.00000000000E+00 0.  1.
<mgrwt>
<rscale>  0 0.11909749E+04</rscale>
<asrwt>0</asrwt>
<pdfrwt beam="1">  1        1 0.12041373E+00 0.11909749E+04</pdfrwt>
<pdfrwt beam="2">  1       -1 0.69701564E-01 0.11909749E+04</pdfrwt>
<totfact> 0.47214970E+01</totfact>
</mgrwt>
</event>
<event>
12    3  0.4773567E-008  0.2351113E+04  0.7818608E-02  0.8458036E-01
          1   -1    0    0  501    0  0.00000000000E+00  0.00000000000E+00  0.11938994618E+04  0.11938994618E+04  0.00000000000E+00 0. -1.
         -1   -1    0    0    0  501 -0.00000000000E+00 -0.00000000000E+00 -0.11574950484E+04  0.11574950484E+04  0.00000000000E+00 0.  1.
         23    2    1    2    0    0  0.60016643302E+03  0.23730358149E+03  0.77827185064E+03  0.10152180653E+04  0.91912510435E+02 0.  0.
        254    2    1    2    0    0 -0.60016643302E+03 -0.23730358149E+03 -0.74186743725E+03  0.13361764449E+04  0.90470296799E+03 0.  0.
         23    2    4    4    0    0 -0.79146951917E+03 -0.19248022796E+03 -0.75432379142E+03  0.11139324108E+04  0.91478934729E+02 0.  0.
         23    2    4    4    0    0  0.19130308615E+03 -0.44823353530E+02  0.12456354177E+02  0.22224403412E+03  0.10310793445E+03 0.  0.
          3    1    3    3  502    0  0.56796387979E+03  0.23936898405E+03  0.75861368292E+03  0.97743296403E+03  0.00000000000E+00 0. -1.
         -3    1    3    3    0  502  0.32202553233E+02 -0.20654025600E+01  0.19658167729E+02  0.37785101309E+02  0.00000000000E+00 0.  1.
         13    1    5    5    0    0 -0.11254952409E+02 -0.76640599503E+01 -0.31877616464E+02  0.34664018810E+02  0.00000000000E+00 0. -1.
        -13    1    5    5    0    0 -0.78021456677E+03 -0.18481616801E+03 -0.72244617496E+03  0.10792683920E+04  0.00000000000E+00 0.  1.
          2    1    6    6  503    0  0.56612950889E+01 -0.32011010440E+02  0.15770335462E+02  0.36131129681E+02  0.00000000000E+00 0. -1.
         -2    1    6    6    0  503  0.18564179106E+03 -0.12812343090E+02 -0.33139812846E+01  0.18611290443E+03  0.00000000000E+00 0.  1.
<mgrwt>
<rscale>  0 0.23511127E+04</rscale>
<asrwt>0</asrwt>
<pdfrwt beam="1">  1        1 0.18367684E+00 0.23511127E+04</pdfrwt>
<pdfrwt beam="2">  1       -1 0.17807616E+00 0.23511127E+04</pdfrwt>
<totfact> 0.20876356E+00</totfact>
</mgrwt>
</event>
<event>
12    3  0.4773567E-008  0.1217896E+04  0.7818608E-02  0.9097335E-01
          2   -1    0    0  501    0  0.00000000000E+00  0.00000000000E+00  0.10022848352E+04  0.10022848352E+04  0.00000000000E+00 0. -1.
         -2   -1    0    0    0  501 -0.00000000000E+00 -0.00000000000E+00 -0.36997216117E+03  0.36997216117E+03  0.00000000000E+00 0.  1.
         23    2    1    2    0    0  0.26654185854E+03 -0.83035509941E+02  0.19770394167E+03  0.35379159002E+03  0.90234042102E+02 0.  0.
        254    2    1    2    0    0 -0.26654185854E+03  0.83035509941E+02  0.43460873240E+03  0.10184654064E+04  0.87775143148E+03 0.  0.
         23    2    4    4    0    0  0.12225402706E+03  0.26871275309E+02 -0.20754749469E+03  0.26035565334E+03  0.95084126460E+02 0.  0.
         23    2    4    4    0    0 -0.38879588560E+03  0.56164234632E+02  0.64215622708E+03  0.75810975305E+03  0.89716864500E+02 0.  0.
          3    1    3    3  502    0  0.24484433200E+03 -0.88553041091E+02  0.14850940015E+03  0.29974227252E+03  0.00000000000E+00 0. -1.
         -3    1    3    3    0  502  0.21697526537E+02  0.55175311498E+01  0.49194541514E+02  0.54049317503E+02  0.00000000000E+00 0.  1.
         13    1    5    5    0    0  0.79040701201E+02  0.24366770129E+02 -0.19998473484E+03  0.21641410791E+03  0.00000000000E+00 0.  1.
        -13    1    5    5    0    0  0.43213325859E+02  0.25045051805E+01 -0.75627598446E+01  0.43941545426E+02  0.00000000000E+00 0. -1.
          4    1    6    6  503    0 -0.45196203648E+02 -0.10742693980E+02  0.38655156630E+02  0.60434455671E+02  0.00000000000E+00 0. -1.
         -4    1    6    6    0  503 -0.34359968195E+03  0.66906928613E+02  0.60350107045E+03  0.69767529738E+03  0.00000000000E+00 0.  1.
<mgrwt>
<rscale>  0 0.12178957E+04</rscale>
<asrwt>0</asrwt>
<pdfrwt beam="1">  1        2 0.15419767E+00 0.12178957E+04</pdfrwt>
<pdfrwt beam="2">  1       -2 0.56918795E-01 0.12178957E+04</pdfrwt>
<totfact> 0.71607725E+01</totfact>
</mgrwt>
</event>
<event>
12    3  0.4773567E-008  0.1839616E+04  0.7818608E-02  0.8685511E-01
          1   -1    0    0  501    0  0.00000000000E+00  0.00000000000E+00  0.18817841678E+04  0.18817841678E+04  0.00000000000E+00 0. -1.
         -1   -1    0    0    0  501 -0.00000000000E+00 -0.00000000000E+00 -0.44959839893E+03  0.44959839893E+03  0.00000000000E+00 0.  1.
         23    2    1    2    0    0 -0.10778309443E+03  0.21023237051E+03  0.13702439953E+04  0.13934470579E+04  0.91166065812E+02 0.  0.
        254    2    1    2    0    0  0.10778309443E+03 -0.21023237051E+03  0.61941773523E+02  0.93793550874E+03  0.90557793160E+03 0.  0.
         23    2    4    4    0    0  0.41019192840E+03  0.10760263663E+03  0.18804506301E+03  0.47260054177E+03  0.90302717676E+02 0.  0.
         23    2    4    4    0    0 -0.30240883398E+03 -0.31783500714E+03 -0.12610328949E+03  0.46533496697E+03  0.90357054169E+02 0.  0.
          3    1    3    3  502    0 -0.10740202437E+03  0.20402231954E+03  0.13672284314E+04  0.13865330451E+04  0.00000000000E+00 0. -1.
         -3    1    3    3    0  502 -0.38107006089E+00  0.62100509672E+01  0.30155639638E+01  0.69140128309E+01  0.00000000000E+00 0.  1.
         13    1    5    5    0    0  0.34892334800E+03  0.71813931501E+02  0.18540387372E+03  0.40159599093E+03  0.00000000000E+00 0. -1.
        -13    1    5    5    0    0  0.61268580402E+02  0.35788705127E+02  0.26411892892E+01  0.71004550841E+02  0.00000000000E+00 0.  1.
          2    1    6    6  503    0 -0.23541405766E+03 -0.29228314840E+03 -0.11666729827E+03  0.39301460007E+03  0.00000000000E+00 0. -1.
         -2    1    6    6    0  503 -0.66994776317E+02 -0.25551858739E+02 -0.94359912186E+01  0.72320366904E+02  0.00000000000E+00 0.  1.
<mgrwt>
<rscale>  0 0.18396164E+04</rscale>
<asrwt>0</asrwt>
<pdfrwt beam="1">  1        1 0.28950525E+00 0.18396164E+04</pdfrwt>
<pdfrwt beam="2">  1       -1 0.69168986E-01 0.18396164E+04</pdfrwt>
<totfact> 0.71280402E+00</totfact>
</mgrwt>
</event>
<event>
12    3  0.4773567E-008  0.1428240E+04  0.7818608E-02  0.8933627E-01
          2   -1    0    0  501    0  0.00000000000E+00  0.00000000000E+00  0.38331854885E+03  0.38331854885E+03  0.00000000000E+00 0. -1.
         -2   -1    0    0    0  501 -0.00000000000E+00 -0.00000000000E+00 -0.13304003335E+04  0.13304003335E+04  0.00000000000E+00 0.  1.
         23    2    1    2    0    0  0.16028827892E+03  0.34152425522E+03 -0.49726626784E+03  0.63106304274E+03  0.92928324671E+02 0.  0.
        254    2    1    2    0    0 -0.16028827892E+03 -0.34152425522E+03 -0.44981551685E+03  0.10826558396E+04  0.90965846264E+03 0.  0.
         23    2    4    4    0    0 -0.23374967427E+03 -0.53560655049E+03 -0.57431563669E+03  0.82409834742E+03  0.88240288556E+02 0.  0.
         23    2    4    4    0    0  0.73461395352E+02  0.19408229527E+03  0.12450011984E+03  0.25855749223E+03  0.91033966203E+02 0.  0.
          4    1    3    3  502    0  0.14164468722E+03  0.33915896769E+03 -0.48532983685E+03  0.60879969885E+03  0.00000000000E+00 0.  1.
         -4    1    3    3    0  502  0.18643591699E+02  0.23652875229E+01 -0.11936430990E+02  0.22263343893E+02  0.00000000000E+00 0. -1.
         13    1    5    5    0    0 -0.14877576120E+02 -0.86705583562E+01 -0.34821076011E+02  0.38846212016E+02  0.00000000000E+00 0. -1.
        -13    1    5    5    0    0 -0.21887209815E+03 -0.52693599213E+03 -0.53949456068E+03  0.78525213540E+03  0.00000000000E+00 0.  1.
          1    1    6    6  503    0  0.26564367925E+02  0.37582583176E+02  0.74738004561E+02  0.87771780927E+02  0.00000000000E+00 0. -1.
         -1    1    6    6    0  503  0.46897027427E+02  0.15649971210E+03  0.49762115276E+02  0.17078571130E+03  0.00000000000E+00 0.  1.
<mgrwt>
<rscale>  0 0.14282397E+04</rscale>
<asrwt>0</asrwt>
<pdfrwt beam="1">  1        2 0.58972084E-01 0.14282397E+04</pdfrwt>
<pdfrwt beam="2">  1       -2 0.20467698E+00 0.14282397E+04</pdfrwt>
<totfact> 0.10036710E+01</totfact>
</mgrwt>
</event>
<event>
12    3  0.4773567E-008  0.2748355E+04  0.7818608E-02  0.8319484E-01
          1   -1    0    0  501    0  0.00000000000E+00  0.00000000000E+00  0.80885709337E+03  0.80885709337E+03  0.00000000000E+00 0. -1.
         -1   -1    0    0    0  501 -0.00000000000E+00 -0.00000000000E+00 -0.23346070380E+04  0.23346070380E+04  0.00000000000E+00 0.  1.
         23    2    1    2    0    0  0.68022895074E+03 -0.78932486726E+03  0.42809829162E+01  0.10460958609E+04  0.92482711405E+02 0.  0.
        254    2    1    2    0    0 -0.68022895074E+03  0.78932486726E+03 -0.15300309275E+04  0.20973682704E+04  0.98600905225E+03 0.  0.
         23    2    4    4    0    0 -0.47924274330E+02  0.25193109195E+03  0.79536163639E+02  0.28418131736E+03  0.93096770361E+02 0.  0.
         23    2    4    4    0    0 -0.63230467641E+03  0.53739377532E+03 -0.16095670912E+04  0.18131869531E+04  0.91320491989E+02 0.  0.
          4    1    3    3  502    0  0.17712574417E+03 -0.22963691314E+03 -0.37171232493E+02  0.29238389431E+03  0.00000000000E+00 0.  1.
         -4    1    3    3    0  502  0.50310320657E+03 -0.55968795412E+03  0.41452215410E+02  0.75371196661E+03  0.00000000000E+00 0. -1.
         13    1    5    5    0    0 -0.35883171517E+02  0.71758030763E+02  0.64572342014E+02  0.10298739889E+03  0.00000000000E+00 0.  1.
        -13    1    5    5    0    0 -0.12041102812E+02  0.18017306119E+03  0.14963821625E+02  0.18119391847E+03  0.00000000000E+00 0. -1.
          2    1    6    6  503    0 -0.28462787111E+03  0.18761139169E+03 -0.62028892218E+03  0.70779192301E+03  0.00000000000E+00 0. -1.
         -2    1    6    6    0  503 -0.34767680530E+03  0.34978238362E+03 -0.98927816900E+03  0.11053950301E+04  0.00000000000E+00 0.  1.
<mgrwt>
<rscale>  0 0.27483548E+04</rscale>
<asrwt>0</asrwt>
<pdfrwt beam="1">  1        1 0.12443955E+00 0.27483548E+04</pdfrwt>
<pdfrwt beam="2">  1       -1 0.35917031E+00 0.27483548E+04</pdfrwt>
<totfact> 0.25498465E-01</totfact>
</mgrwt>
</event>
<event>
12    3  0.4773567E-008  0.1338143E+04  0.7818608E-02  0.8999853E-01
         -1   -1    0    0    0  501 -0.00000000000E+00  0.00000000000E+00  0.28413803407E+03  0.28413803407E+03  0.00000000000E+00 0.  1.
          1   -1    0    0  501    0  0.00000000000E+00 -0.00000000000E+00 -0.15754895341E+04  0.15754895341E+04  0.00000000000E+00 0. -1.
         23    2    1    2    0    0  0.17958832929E+03  0.33240336084E+03 -0.26424606056E+03  0.46882609028E+03  0.85017410508E+02 0.  0.
        254    2    1    2    0    0 -0.17958832929E+03 -0.33240336084E+03 -0.10271054395E+04  0.13908014779E+04  0.85827688123E+03 0.  0.
         23    2    4    4    0    0 -0.27042127026E+03 -0.52513714597E+03 -0.39312543632E+03  0.71535551590E+03  0.91045153399E+02 0.  0.
         23    2    4    4    0    0  0.90832940962E+02  0.19273378514E+03 -0.63398000318E+03  0.67544596203E+03  0.94338052227E+02 0.  0.
          1    1    3    3  502    0  0.14323547273E+03  0.31669591045E+03 -0.23429289484E+03  0.41917282941E+03  0.00000000000E+00 0. -1.
         -1    1    3    3    0  502  0.36352856567E+02  0.15707450389E+02 -0.29953165727E+02  0.49653260874E+02  0.00000000000E+00 0.  1.
         13    1    5    5    0    0 -0.13409913584E+03 -0.16551956995E+03 -0.13630928958E+03  0.25290221172E+03  0.00000000000E+00 0. -1.
        -13    1    5    5    0    0 -0.13632213442E+03 -0.35961757602E+03 -0.25681614674E+03  0.46245330418E+03  0.00000000000E+00 0.  1.
          1    1    6    6  503    0  0.12798652349E+02  0.28409812404E+02 -0.25218825265E+02  0.40086308018E+02  0.00000000000E+00 0. -1.
         -1    1    6    6    0  503  0.78034288613E+02  0.16432397273E+03 -0.60876117792E+03  0.63535965402E+03  0.00000000000E+00 0.  1.
<mgrwt>
<rscale>  0 0.13381427E+04</rscale>
<asrwt>0</asrwt>
<pdfrwt beam="1">  1        1 0.24238301E+00 0.13381427E+04</pdfrwt>
<pdfrwt beam="2">  1       -1 0.43713543E-01 0.13381427E+04</pdfrwt>
<totfact> 0.29380353E+01</totfact>
</mgrwt>
</event>
<event>
12    3  0.4773567E-008  0.2787633E+04  0.7818608E-02  0.8307118E-01
         -1   -1    0    0    0  501 -0.00000000000E+00  0.00000000000E+00  0.81899568018E+03  0.81899568018E+03  0.00000000000E+00 0.  1.
          1   -1    0    0  501    0  0.00000000000E+00 -0.00000000000E+00 -0.23720818594E+04  0.23720818594E+04  0.00000000000E+00 0. -1.
         23    2    1    2    0    0  0.14583865008E+03  0.12406924956E+04 -0.71119922845E+03  0.14400008485E+04  0.84919494391E+02 0.  0.
        254    2    1    2    0    0 -0.14583865008E+03 -0.12406924956E+04 -0.84188695076E+03  0.17510766911E+04  0.89269768657E+03 0.  0.
         23    2    4    4    0    0  0.29672523873E+03 -0.21022728233E+03 -0.58639311524E+02  0.37987917232E+03  0.92888315599E+02 0.  0.
         23    2    4    4    0    0 -0.44256388880E+03 -0.10304652133E+04 -0.78324763923E+03  0.13711975188E+04  0.94786178227E+02 0.  0.
          3    1    3    3  502    0  0.29554226475E+02  0.83946362062E+02 -0.39913195321E+02  0.97537209140E+02  0.00000000000E+00 0. -1.
         -3    1    3    3    0  502  0.11628442360E+03  0.11567461336E+04 -0.67128603313E+03  0.13424636394E+04  0.00000000000E+00 0.  1.
         13    1    5    5    0    0  0.25095687994E+03 -0.14447093007E+03 -0.72654104491E+02  0.29854618424E+03  0.00000000000E+00 0.  1.
        -13    1    5    5    0    0  0.45768358787E+02 -0.65756352261E+02  0.14014792967E+02  0.81332988084E+02  0.00000000000E+00 0. -1.
          3    1    6    6  503    0 -0.36735553099E+01  0.12847096709E+01 -0.85451450438E+00  0.39844300209E+01  0.00000000000E+00 0. -1.
         -3    1    6    6    0  503 -0.43889033349E+03 -0.10317499230E+04 -0.78239312473E+03  0.13672130887E+04  0.00000000000E+00 0.  1.
<mgrwt>
<rscale>  0 0.27876333E+04</rscale>
<asrwt>0</asrwt>
<pdfrwt beam="1">  1        1 0.36493567E+00 0.27876333E+04</pdfrwt>
<pdfrwt beam="2">  1       -1 0.12599934E+00 0.27876333E+04</pdfrwt>
<totfact> 0.78927092E-01</totfact>
</mgrwt>
</event>
<event>
12    3  0.4773567E-008  0.1494032E+04  0.7818608E-02  0.8888431E-01
          1   -1    0    0  501    0  0.00000000000E+00  0.00000000000E+00  0.61454362464E+03  0.61454362464E+03  0.00000000000E+00 0. -1.
         -1   -1    0    0    0  501 -0.00000000000E+00 -0.00000000000E+00 -0.90804456828E+03  0.90804456828E+03  0.00000000000E+00 0.  1.
         23    2    1    2    0    0 -0.17406698303E+03 -0.42379925563E+03  0.41063268151E+02  0.46867708625E+03  0.89815897988E+02 0.  0.
        254    2    1    2    0    0  0.17406698303E+03  0.42379925563E+03 -0.33456421179E+03  0.10539111067E+04  0.88819495906E+03 0.  0.
         23    2    4    4    0    0 -0.22440107158E+03  0.21139360212E+03 -0.47361332072E+03  0.57246211467E+03  0.91434125025E+02 0.  0.
         23    2    4    4    0    0  0.39846805462E+03  0.21240565351E+03  0.13904910893E+03  0.48144899200E+03  0.92550121611E+02 0.  0.
          3    1    3    3  502    0 -0.12251811033E+02 -0.25023839080E+02  0.25920900789E+02  0.38055124407E+02  0.00000000000E+00 0. -1.
         -3    1    3    3    0  502 -0.16181517200E+03 -0.39877541655E+03  0.15142367362E+02  0.43062196184E+03  0.00000000000E+00 0.  1.
         13    1    5    5    0    0 -0.28161131845E+02  0.81499333550E+02 -0.12633129729E+03  0.15295354651E+03  0.00000000000E+00 0. -1.
        -13    1    5    5    0    0 -0.19623993974E+03  0.12989426857E+03 -0.34728202343E+03  0.41950856816E+03  0.00000000000E+00 0.  1.
          3    1    6    6  503    0  0.50664326374E+02  0.33875920696E+02  0.53842959249E+02  0.81323528149E+02  0.00000000000E+00 0. -1.
         -3    1    6    6    0  503  0.34780372824E+03  0.17852973281E+03  0.85206149681E+02  0.40012546385E+03  0.00000000000E+00 0.  1.
<mgrwt>
<rscale>  0 0.14940321E+04</rscale>
<asrwt>0</asrwt>
<pdfrwt beam="1">  1        1 0.94545173E-01 0.14940321E+04</pdfrwt>
<pdfrwt beam="2">  1       -1 0.13969916E+00 0.14940321E+04</pdfrwt>
<totfact> 0.13496256E+01</totfact>
</mgrwt>
</event>
<event>
12    3  0.4773567E-008  0.2116293E+04  0.7818608E-02  0.8554100E-01
          2   -1    0    0  501    0  0.00000000000E+00  0.00000000000E+00  0.17998925310E+04  0.17998925310E+04  0.00000000000E+00 0.  1.
         -2   -1    0    0    0  501 -0.00000000000E+00 -0.00000000000E+00 -0.62207850664E+03  0.62207850664E+03  0.00000000000E+00 0. -1.
         23    2    1    2    0    0  0.32316881905E+03  0.49363353642E+03 -0.23591395822E+03  0.64169959494E+03  0.89503187567E+02 0.  0.
        254    2    1    2    0    0 -0.32316881905E+03 -0.49363353642E+03  0.14137279826E+04  0.17802714427E+04  0.90698811852E+03 0.  0.
         23    2    4    4    0    0  0.82455617568E+02 -0.54759811634E+03  0.11651893378E+04  0.12931227668E+04  0.88530622578E+02 0.  0.
         23    2    4    4    0    0 -0.40562443662E+03  0.53964579924E+02  0.24853864481E+03  0.48714867597E+03  0.89994527947E+02 0.  0.
          2    1    3    3  502    0  0.21922767228E+03  0.36384923706E+03 -0.20841972152E+03  0.47316574254E+03  0.00000000000E+00 0. -1.
         -2    1    3    3    0  502  0.10394114677E+03  0.12978429936E+03 -0.27494236702E+02  0.16853385240E+03  0.00000000000E+00 0.  1.
         13    1    5    5    0    0 -0.25016449001E+01 -0.12091844419E+02  0.67469286826E+01  0.14070962131E+02  0.00000000000E+00 0. -1.
        -13    1    5    5    0    0  0.84957262468E+02 -0.53550627192E+03  0.11584424091E+04  0.12790518046E+04  0.00000000000E+00 0.  1.
          4    1    6    6  503    0 -0.12325185478E+02  0.20585490805E+02  0.18469177407E+02  0.30278427020E+02  0.00000000000E+00 0. -1.
         -4    1    6    6    0  503 -0.39329925114E+03  0.33379089120E+02  0.23006946741E+03  0.45687024895E+03  0.00000000000E+00 0.  1.
<mgrwt>
<rscale>  0 0.21162934E+04</rscale>
<asrwt>0</asrwt>
<pdfrwt beam="1">  1        2 0.27690654E+00 0.21162934E+04</pdfrwt>
<pdfrwt beam="2">  1       -2 0.95704386E-01 0.21162934E+04</pdfrwt>
<totfact> 0.72753699E+00</totfact>
</mgrwt>
</event>
<event>
12    3  0.4773567E-008  0.1207853E+04  0.7818608E-02  0.9106010E-01
         -1   -1    0    0    0  501 -0.00000000000E+00  0.00000000000E+00  0.69392385823E+03  0.69392385823E+03  0.00000000000E+00 0.  1.
          1   -1    0    0  501    0  0.00000000000E+00 -0.00000000000E+00 -0.52560118784E+03  0.52560118784E+03  0.00000000000E+00 0. -1.
         23    2    1    2    0    0  0.19595426364E+02 -0.25041260584E+03  0.93447194412E+02  0.28309064932E+03  0.91200239537E+02 0.  0.
        254    2    1    2    0    0 -0.19595426364E+02  0.25041260584E+03  0.74875475980E+02  0.93643439674E+03  0.89900644525E+03 0.  0.
         23    2    4    4    0    0 -0.34449353967E+03 -0.15034210532E+03  0.13333253204E+03  0.40929639997E+03  0.92018647136E+02 0.  0.
         23    2    4    4    0    0  0.32489811331E+03  0.40075471116E+03 -0.58457056061E+02  0.52713799677E+03  0.91072046639E+02 0.  0.
          3    1    3    3  502    0  0.69824798241E+01 -0.19434884299E+03  0.28800257578E+02  0.19659522535E+03  0.00000000000E+00 0. -1.
         -3    1    3    3    0  502  0.12612946540E+02 -0.56063762858E+02  0.64646936834E+02  0.86495423973E+02  0.00000000000E+00 0.  1.
         13    1    5    5    0    0 -0.15355821417E+03 -0.43976094260E+02  0.99348037897E+02  0.18810649813E+03  0.00000000000E+00 0.  1.
        -13    1    5    5    0    0 -0.19093532550E+03 -0.10636601106E+03  0.33984494145E+02  0.22118990184E+03  0.00000000000E+00 0. -1.
          4    1    6    6  503    0  0.30122956901E+03  0.38298898781E+03 -0.75369415270E+02  0.49305209338E+03  0.00000000000E+00 0.  1.
         -4    1    6    6    0  503  0.23668544304E+02  0.17765723355E+02  0.16912359208E+02  0.34085903388E+02  0.00000000000E+00 0. -1.
<mgrwt>
<rscale>  0 0.12078530E+04</rscale>
<asrwt>0</asrwt>
<pdfrwt beam="1">  1        1 0.80861721E-01 0.12078530E+04</pdfrwt>
<pdfrwt beam="2">  1       -1 0.10675752E+00 0.12078530E+04</pdfrwt>
<totfact> 0.33512095E+01</totfact>
</mgrwt>
</event>
<event>
12    3  0.4902143E-008  0.1691308E+04  0.7818608E-02  0.8766337E-01
         -2   -1    0    0    0  501 -0.00000000000E+00  0.00000000000E+00  0.30023491870E+03  0.30023491870E+03  0.00000000000E+00 0.  1.
          2   -1    0    0  501    0  0.00000000000E+00 -0.00000000000E+00 -0.23819030398E+04  0.23819030398E+04  0.00000000000E+00 0. -1.
         23    2    1    2    0    0  0.19617941997E+03 -0.46882999240E+03 -0.12610651812E+04  0.13626456602E+04  0.90718672604E+02 0.  0.
        254    2    1    2    0    0 -0.19617941997E+03  0.46882999240E+03 -0.82060293993E+03  0.13194922983E+04  0.89965705333E+03 0.  0.
         23    2    4    4    0    0 -0.32715093567E+03  0.28534101332E+02 -0.77809593922E+03  0.84938560513E+03  0.90447144349E+02 0.  0.
         23    2    4    4    0    0  0.13097151570E+03  0.44029589107E+03 -0.42507000702E+02  0.47010669315E+03  0.90440301973E+02 0.  0.
          1    1    3    3  502    0  0.17686447117E+03 -0.44100399912E+03 -0.11029519675E+04  0.12009448826E+04  0.00000000000E+00 0. -1.
         -1    1    3    3    0  502  0.19314948806E+02 -0.27825993283E+02 -0.15811321369E+03  0.16170077765E+03  0.00000000000E+00 0.  1.
         13    1    5    5    0    0 -0.17248950367E+03  0.35719240563E+02 -0.51285480606E+03  0.54226243196E+03  0.00000000000E+00 0. -1.
        -13    1    5    5    0    0 -0.15466143200E+03 -0.71851392310E+01 -0.26524113317E+03  0.30712317317E+03  0.00000000000E+00 0.  1.
          2    1    6    6  503    0  0.47326203545E+02  0.22046606699E+03  0.21039536990E+02  0.22646791904E+03  0.00000000000E+00 0. -1.
         -2    1    6    6    0  503  0.83645312151E+02  0.21982982408E+03 -0.63546537691E+02  0.24363877411E+03  0.00000000000E+00 0.  1.
<mgrwt>
<rscale>  0 0.16913077E+04</rscale>
<asrwt>0</asrwt>
<pdfrwt beam="1">  1        2 0.36644663E+00 0.16913077E+04</pdfrwt>
<pdfrwt beam="2">  1       -2 0.46189986E-01 0.16913077E+04</pdfrwt>
<totfact> 0.17249221E+01</totfact>
</mgrwt>
</event>
<event>
12    3  0.4773567E-008  0.1367400E+04  0.7818608E-02  0.8977760E-01
         -2   -1    0    0    0  501 -0.00000000000E+00  0.00000000000E+00  0.18594496408E+03  0.18594496408E+03  0.00000000000E+00 0.  1.
          2   -1    0    0  501    0  0.00000000000E+00 -0.00000000000E+00 -0.25138934757E+04  0.25138934757E+04  0.00000000000E+00 0. -1.
         23    2    1    2    0    0  0.24428298171E+03  0.25744456909E+03 -0.93857271655E+03  0.10070280917E+04  0.85058521058E+02 0.  0.
        254    2    1    2    0    0 -0.24428298171E+03 -0.25744456909E+03 -0.13893757951E+04  0.16928103481E+04  0.89960540972E+03 0.  0.
         23    2    4    4    0    0  0.32738728269E+03 -0.29486638883E+02 -0.41689935451E+03  0.53831595909E+03  0.89034292703E+02 0.  0.
         23    2    4    4    0    0 -0.57167026440E+03 -0.22795793020E+03 -0.97247644058E+03  0.11544943890E+04  0.91515886746E+02 0.  0.
          1    1    3    3  502    0  0.21291825666E+03  0.24976590572E+03 -0.79925663265E+03  0.86401872463E+03  0.00000000000E+00 0. -1.
         -1    1    3    3    0  502  0.31364725049E+02  0.76786633654E+01 -0.13931608390E+03  0.14300936711E+03  0.00000000000E+00 0.  1.
         13    1    5    5    0    0  0.29754362869E+02 -0.10733587683E+02 -0.92059420861E+02  0.97342020647E+02  0.00000000000E+00 0.  1.
        -13    1    5    5    0    0  0.29763291982E+03 -0.18753051200E+02 -0.32483993365E+03  0.44097393844E+03  0.00000000000E+00 0. -1.
          1    1    6    6  503    0 -0.30952678321E+03 -0.11747070412E+03 -0.60629794830E+03  0.69079910101E+03  0.00000000000E+00 0. -1.
         -1    1    6    6    0  503 -0.26214348120E+03 -0.11048722608E+03 -0.36617849228E+03  0.46369528795E+03  0.00000000000E+00 0.  1.
<mgrwt>
<rscale>  0 0.13674002E+04</rscale>
<asrwt>0</asrwt>
<pdfrwt beam="1">  1        2 0.38675283E+00 0.13674002E+04</pdfrwt>
<pdfrwt beam="2">  1       -2 0.28606919E-01 0.13674002E+04</pdfrwt>
<totfact> 0.37502190E+01</totfact>
</mgrwt>
</event>
<event>
12    3  0.4773567E-008  0.2391803E+04  0.7818608E-02  0.8442579E-01
          1   -1    0    0  501    0  0.00000000000E+00  0.00000000000E+00  0.18102380828E+04  0.18102380828E+04  0.00000000000E+00 0. -1.
         -1   -1    0    0    0  501 -0.00000000000E+00 -0.00000000000E+00 -0.79005099924E+03  0.79005099924E+03  0.00000000000E+00 0.  1.
         23    2    1    2    0    0  0.37799527184E+03  0.55615918719E+03 -0.39495103077E+03  0.78582255819E+03  0.96629753271E+02 0.  0.
        254    2    1    2    0    0 -0.37799527184E+03 -0.55615918719E+03  0.14151381143E+04  0.18144665239E+04  0.91513901485E+03 0.  0.
         23    2    4    4    0    0 -0.30871791789E+03 -0.13678308563E+03  0.13253233423E+04  0.13705785578E+04  0.89371449547E+02 0.  0.
         23    2    4    4    0    0 -0.69277353955E+02 -0.41937610156E+03  0.89814772036E+02  0.44388796609E+03  0.91072316513E+02 0.  0.
          2    1    3    3  502    0 -0.96842824957E+00 -0.24990161718E+01  0.13784516281E+01  0.30138122026E+01  0.00000000000E+00 0. -1.
         -2    1    3    3    0  502  0.37896370009E+03  0.55865820336E+03 -0.39632948240E+03  0.78280874598E+03  0.00000000000E+00 0.  1.
         13    1    5    5    0    0 -0.74710400111E+02  0.31069081782E+01  0.34786425279E+03  0.35581011106E+03  0.00000000000E+00 0. -1.
        -13    1    5    5    0    0 -0.23400751778E+03 -0.13988999380E+03  0.97745908952E+03  0.10147684467E+04  0.00000000000E+00 0.  1.
          4    1    6    6  503    0  0.78589358586E+01 -0.49352342565E+01  0.12063026985E+02  0.15219593622E+02  0.00000000000E+00 0.  1.
         -4    1    6    6    0  503 -0.77136289813E+02 -0.41444086730E+03  0.77751745051E+02  0.42866837247E+03  0.00000000000E+00 0. -1.
<mgrwt>
<rscale>  0 0.23918030E+04</rscale>
<asrwt>0</asrwt>
<pdfrwt beam="1">  1        1 0.27849817E+00 0.23918030E+04</pdfrwt>
<pdfrwt beam="2">  1       -1 0.12154631E+00 0.23918030E+04</pdfrwt>
<totfact> 0.21565533E+00</totfact>
</mgrwt>
</event>
<event>
12    3  0.4773567E-008  0.2518178E+04  0.7818608E-02  0.8396538E-01
         -4   -1    0    0    0  501 -0.00000000000E+00  0.00000000000E+00  0.80433064024E+03  0.80433064024E+03  0.00000000000E+00 0.  1.
          4   -1    0    0  501    0  0.00000000000E+00 -0.00000000000E+00 -0.19709613112E+04  0.19709613112E+04  0.00000000000E+00 0. -1.
         23    2    1    2    0    0  0.10328633231E+04 -0.25855309151E+03 -0.78570919412E+03  0.13264941253E+04  0.92689704340E+02 0.  0.
        254    2    1    2    0    0 -0.10328633231E+04  0.25855309151E+03 -0.38092147687E+03  0.14487978262E+04  0.90568075182E+03 0.  0.
         23    2    4    4    0    0 -0.11420300550E+03 -0.20122965143E+03 -0.33316294261E+03  0.41650346691E+03  0.94561580659E+02 0.  0.
         23    2    4    4    0    0 -0.91866031764E+03  0.45978274293E+03 -0.47758534257E+02  0.10322943593E+04  0.89519923546E+02 0.  0.
          3    1    3    3  502    0  0.80413556764E+03 -0.22840082148E+03 -0.64922202553E+03  0.10584376150E+04  0.00000000000E+00 0. -1.
         -3    1    3    3    0  502  0.22872775549E+03 -0.30152270024E+02 -0.13648716859E+03  0.26805651029E+03  0.00000000000E+00 0.  1.
         13    1    5    5    0    0 -0.10295320134E+03 -0.91290260701E+02 -0.20959599183E+03  0.25072645085E+03  0.00000000000E+00 0. -1.
        -13    1    5    5    0    0 -0.11249804157E+02 -0.10993939073E+03 -0.12356695079E+03  0.16577701606E+03  0.00000000000E+00 0.  1.
          4    1    6    6  503    0 -0.86436479534E+03  0.45456970418E+03 -0.43263266076E+02  0.97756423092E+03  0.00000000000E+00 0. -1.
         -4    1    6    6    0  503 -0.54295522296E+02  0.52130387515E+01 -0.44952681813E+01  0.54730128361E+02  0.00000000000E+00 0.  1.
<mgrwt>
<rscale>  0 0.25181776E+04</rscale>
<asrwt>0</asrwt>
<pdfrwt beam="1">  1        4 0.30322482E+00 0.25181776E+04</pdfrwt>
<pdfrwt beam="2">  1       -4 0.12374317E+00 0.25181776E+04</pdfrwt>
<totfact> 0.25676536E-02</totfact>
</mgrwt>
</event>
<event>
12    3  0.4773567E-008  0.2184605E+04  0.7818608E-02  0.8524863E-01
         -1   -1    0    0    0  501 -0.00000000000E+00  0.00000000000E+00  0.15649190840E+04  0.15649190840E+04  0.00000000000E+00 0.  1.
          1   -1    0    0  501    0  0.00000000000E+00 -0.00000000000E+00 -0.76241919075E+03  0.76241919075E+03  0.00000000000E+00 0. -1.
         23    2    1    2    0    0 -0.77788741303E+03 -0.35519498561E+03  0.23257708120E+02  0.86019725419E+03  0.90144827788E+02 0.  0.
        254    2    1    2    0    0  0.77788741303E+03  0.35519498561E+03  0.77924218514E+03  0.14671410206E+04  0.90222618338E+03 0.  0.
         23    2    4    4    0    0  0.74512396349E+03  0.45079633517E+03  0.92117625824E+03  0.12703699588E+04  0.82747064208E+02 0.  0.
         23    2    4    4    0    0  0.32763449542E+02 -0.95601349562E+02 -0.14193407310E+03  0.19677106180E+03  0.91435813496E+02 0.  0.
          4    1    3    3  502    0 -0.52370039899E+03 -0.25385894369E+03 -0.24117196755E+02  0.58248442930E+03  0.00000000000E+00 0.  1.
         -4    1    3    3    0  502 -0.25418701404E+03 -0.10133604192E+03  0.47374904875E+02  0.27771282490E+03  0.00000000000E+00 0. -1.
         13    1    5    5    0    0  0.20683397059E+03  0.15168831176E+03  0.31565198749E+03  0.40672572149E+03  0.00000000000E+00 0.  1.
        -13    1    5    5    0    0  0.53828999290E+03  0.29910802341E+03  0.60552427076E+03  0.86364423729E+03  0.00000000000E+00 0. -1.
          1    1    6    6  503    0 -0.13777768496E+02 -0.47284842273E+02 -0.12233620702E+02  0.50747854034E+02  0.00000000000E+00 0. -1.
         -1    1    6    6    0  503  0.46541218038E+02 -0.48316507289E+02 -0.12970045240E+03  0.14602320776E+03  0.00000000000E+00 0.  1.
<mgrwt>
<rscale>  0 0.21846046E+04</rscale>
<asrwt>0</asrwt>
<pdfrwt beam="1">  1        1 0.11729526E+00 0.21846046E+04</pdfrwt>
<pdfrwt beam="2">  1       -1 0.24075678E+00 0.21846046E+04</pdfrwt>
<totfact> 0.17464759E+00</totfact>
</mgrwt>
</event>
<event>
12    3  0.4773567E-008  0.1502936E+04  0.7818608E-02  0.8882503E-01
          2   -1    0    0  501    0  0.00000000000E+00  0.00000000000E+00  0.11109878466E+04  0.11109878466E+04  0.00000000000E+00 0. -1.
         -2   -1    0    0    0  501 -0.00000000000E+00 -0.00000000000E+00 -0.50829043089E+03  0.50829043089E+03  0.00000000000E+00 0.  1.
         23    2    1    2    0    0 -0.14571985744E+03 -0.29152261420E+03  0.59052432803E+03  0.68083314031E+03  0.92709608463E+02 0.  0.
        254    2    1    2    0    0  0.14571985744E+03  0.29152261420E+03  0.12173087657E+02  0.93844513717E+03  0.87994964627E+03 0.  0.
         23    2    4    4    0    0  0.48585240399E+03  0.30664690785E+03  0.47071604805E+02  0.58353687869E+03  0.90634807095E+02 0.  0.
         23    2    4    4    0    0 -0.34013254655E+03 -0.15124293652E+02 -0.34898517148E+02  0.35490825848E+03  0.93931208635E+02 0.  0.
          1    1    3    3  502    0 -0.89552115704E+02 -0.25551886625E+03  0.49675243073E+03  0.56574945857E+03  0.00000000000E+00 0. -1.
         -1    1    3    3    0  502 -0.56167741738E+02 -0.36003747941E+02  0.93771897302E+02  0.11508368173E+03  0.00000000000E+00 0.  1.
         13    1    5    5    0    0  0.12343297256E+03  0.64186001285E+02 -0.25651588781E+02  0.14146923865E+03  0.00000000000E+00 0.  1.
        -13    1    5    5    0    0  0.36241943143E+03  0.24246090656E+03  0.72723193586E+02  0.44206764005E+03  0.00000000000E+00 0. -1.
          3    1    6    6  503    0 -0.25835912258E+03 -0.43681457725E+02 -0.50636475458E+02  0.26687367539E+03  0.00000000000E+00 0. -1.
         -3    1    6    6    0  503 -0.81773423969E+02  0.28557164074E+02  0.15737958310E+02  0.88034583087E+02  0.00000000000E+00 0.  1.
<mgrwt>
<rscale>  0 0.15029364E+04</rscale>
<asrwt>0</asrwt>
<pdfrwt beam="1">  1        2 0.17092121E+00 0.15029364E+04</pdfrwt>
<pdfrwt beam="2">  1       -2 0.78198528E-01 0.15029364E+04</pdfrwt>
<totfact> 0.30148341E+01</totfact>
</mgrwt>
</event>
<event>
12    3  0.4773567E-008  0.1859349E+04  0.7818608E-02  0.8675360E-01
          1   -1    0    0  501    0  0.00000000000E+00  0.00000000000E+00  0.76459111100E+03  0.76459111100E+03  0.00000000000E+00 0. -1.
         -1   -1    0    0    0  501 -0.00000000000E+00 -0.00000000000E+00 -0.11304008081E+04  0.11304008081E+04  0.00000000000E+00 0.  1.
         23    2    1    2    0    0 -0.23460830502E+03  0.56568585424E+03  0.22098058656E+03  0.65726305075E+03  0.90115236032E+02 0.  0.
        254    2    1    2    0    0  0.23460830502E+03 -0.56568585424E+03 -0.58679028363E+03  0.12377288683E+04  0.90144793085E+03 0.  0.
         23    2    4    4    0    0  0.75673970858E+02 -0.66054069062E+03 -0.62590490740E+02  0.67404105002E+03  0.91505266267E+02 0.  0.
         23    2    4    4    0    0  0.15893433416E+03  0.94854836375E+02 -0.52419979289E+03  0.56368781830E+03  0.93278995891E+02 0.  0.
          2    1    3    3  502    0 -0.18675664633E+03  0.41376673763E+03  0.12325844954E+03  0.47039728262E+03  0.00000000000E+00 0. -1.
         -2    1    3    3    0  502 -0.47851658692E+02  0.15191911661E+03  0.97722137023E+02  0.18686576812E+03  0.00000000000E+00 0.  1.
         13    1    5    5    0    0  0.73644389051E+02 -0.26683043528E+03 -0.39954195417E+02  0.27967537425E+03  0.00000000000E+00 0. -1.
        -13    1    5    5    0    0  0.20295818079E+01 -0.39371025533E+03 -0.22636295323E+02  0.39436567577E+03  0.00000000000E+00 0.  1.
          4    1    6    6  503    0  0.84783458653E+02  0.96369161043E+02 -0.38691786587E+03  0.40765265238E+03  0.00000000000E+00 0. -1.
         -4    1    6    6    0  503  0.74150875511E+02 -0.15143246679E+01 -0.13728192702E+03  0.15603516593E+03  0.00000000000E+00 0.  1.
<mgrwt>
<rscale>  0 0.18593487E+04</rscale>
<asrwt>0</asrwt>
<pdfrwt beam="1">  1        1 0.11762940E+00 0.18593487E+04</pdfrwt>
<pdfrwt beam="2">  1       -1 0.17390782E+00 0.18593487E+04</pdfrwt>
<totfact> 0.51393176E+00</totfact>
</mgrwt>
</event>
<event>
12    3  0.4773567E-008  0.1791585E+04  0.7818608E-02  0.8710787E-01
          2   -1    0    0  501    0  0.00000000000E+00  0.00000000000E+00  0.14627761034E+04  0.14627761034E+04  0.00000000000E+00 0. -1.
         -2   -1    0    0    0  501 -0.00000000000E+00 -0.00000000000E+00 -0.54857633190E+03  0.54857633190E+03  0.00000000000E+00 0.  1.
         23    2    1    2    0    0 -0.89923412080E+02 -0.65382290245E+03  0.23436254165E+03  0.70610236920E+03  0.89911884921E+02 0.  0.
        254    2    1    2    0    0  0.89923412080E+02  0.65382290245E+03  0.67983722989E+03  0.13052500661E+04  0.89773518824E+03 0.  0.
         23    2    4    4    0    0 -0.30593398503E+03  0.15327820646E+03  0.54012118612E+03  0.64582147382E+03  0.90910222622E+02 0.  0.
         23    2    4    4    0    0  0.39585739711E+03  0.50054469599E+03  0.13971604377E+03  0.65942859232E+03  0.89874490010E+02 0.  0.
          2    1    3    3  502    0  0.56362571764E+01 -0.25334141424E+03  0.71101726283E+02  0.26319022597E+03  0.00000000000E+00 0. -1.
         -2    1    3    3    0  502 -0.95559669256E+02 -0.40048148821E+03  0.16326081536E+03  0.44291214323E+03  0.00000000000E+00 0.  1.
         13    1    5    5    0    0 -0.31127446633E+03  0.15158369811E+03  0.51836329374E+03  0.62335376410E+03  0.00000000000E+00 0. -1.
        -13    1    5    5    0    0  0.53404813033E+01  0.16945083574E+01  0.21757892381E+02  0.22467709719E+02  0.00000000000E+00 0.  1.
          4    1    6    6  503    0  0.36164768612E+03  0.45904579025E+03  0.15288558932E+03  0.60405801861E+03  0.00000000000E+00 0. -1.
         -4    1    6    6    0  503  0.34209710988E+02  0.41498905738E+02 -0.13169545547E+02  0.55370573713E+02  0.00000000000E+00 0.  1.
<mgrwt>
<rscale>  0 0.17915852E+04</rscale>
<asrwt>0</asrwt>
<pdfrwt beam="1">  1        2 0.22504248E+00 0.17915852E+04</pdfrwt>
<pdfrwt beam="2">  1       -2 0.84396359E-01 0.17915852E+04</pdfrwt>
<totfact> 0.15416750E+01</totfact>
</mgrwt>
</event>
<event>
12    3  0.4773567E-008  0.2722824E+04  0.7818608E-02  0.8327637E-01
         -1   -1    0    0    0  501 -0.00000000000E+00  0.00000000000E+00  0.95959092113E+03  0.95959092113E+03  0.00000000000E+00 0.  1.
          1   -1    0    0  501    0  0.00000000000E+00 -0.00000000000E+00 -0.19314919148E+04  0.19314919148E+04  0.00000000000E+00 0. -1.
         23    2    1    2    0    0 -0.36163107743E+03  0.76909735295E+03 -0.13458816894E+04  0.15941940591E+04  0.88144209265E+02 0.  0.
        254    2    1    2    0    0  0.36163107743E+03 -0.76909735295E+03  0.37398069579E+03  0.12968887768E+04  0.90541215150E+03 0.  0.
         23    2    4    4    0    0  0.22525985677E+03  0.12171324077E+03 -0.80229370149E+02  0.28382187496E+03  0.92531015471E+02 0.  0.
         23    2    4    4    0    0  0.13637122067E+03 -0.89081059372E+03  0.45421006594E+03  0.10130669018E+04  0.88640509344E+02 0.  0.
          1    1    3    3  502    0 -0.17302893113E+03  0.36791890972E+03 -0.56201783755E+03  0.69366229886E+03  0.00000000000E+00 0. -1.
         -1    1    3    3    0  502 -0.18860214630E+03  0.40117844323E+03 -0.78386385187E+03  0.90053176023E+03  0.00000000000E+00 0.  1.
         13    1    5    5    0    0  0.19370947787E+02  0.41093730357E+02  0.73072147955E+01  0.46014385587E+02  0.00000000000E+00 0. -1.
        -13    1    5    5    0    0  0.20588890898E+03  0.80619510410E+02 -0.87536584945E+02  0.23780748937E+03  0.00000000000E+00 0.  1.
          3    1    6    6  503    0  0.78276282750E+02 -0.31620543469E+03  0.12981617808E+03  0.35066407495E+03  0.00000000000E+00 0. -1.
         -3    1    6    6    0  503  0.58094937919E+02 -0.57460515903E+03  0.32439388786E+03  0.66240282690E+03  0.00000000000E+00 0.  1.
<mgrwt>
<rscale>  0 0.27228236E+04</rscale>
<asrwt>0</asrwt>
<pdfrwt beam="1">  1        1 0.29715260E+00 0.27228236E+04</pdfrwt>
<pdfrwt beam="2">  1       -1 0.14762937E+00 0.27228236E+04</pdfrwt>
<totfact> 0.10525395E+00</totfact>
</mgrwt>
</event>
<event>
12    3  0.4773567E-008  0.3221091E+04  0.7818608E-02  0.8183269E-01
         -2   -1    0    0    0  501 -0.00000000000E+00  0.00000000000E+00  0.69609703855E+03  0.69609703855E+03  0.00000000000E+00 0.  1.
          2   -1    0    0  501    0  0.00000000000E+00 -0.00000000000E+00 -0.37262851208E+04  0.37262851208E+04  0.00000000000E+00 0. -1.
         23    2    1    2    0    0 -0.25521520517E+03 -0.12873795198E+03 -0.33945125046E+04  0.34077396302E+04  0.90917446007E+02 0.  0.
        254    2    1    2    0    0  0.25521520517E+03  0.12873795198E+03  0.36432442235E+03  0.10146425292E+04  0.90280613426E+03 0.  0.
         23    2    4    4    0    0  0.18437691820E+03  0.50880914264E+03  0.21702710789E+03  0.59003650950E+03  0.90336733354E+02 0.  0.
         23    2    4    4    0    0  0.70838286973E+02 -0.38007119066E+03  0.14729731446E+03  0.42460601967E+03  0.95507068993E+02 0.  0.
          2    1    3    3  502    0 -0.22100838255E+03 -0.10658365005E+03 -0.31756500851E+04  0.31851151067E+04  0.00000000000E+00 0. -1.
         -2    1    3    3    0  502 -0.34206822616E+02 -0.22154301929E+02 -0.21886241947E+03  0.22262452350E+03  0.00000000000E+00 0.  1.
         13    1    5    5    0    0  0.34748346901E+02  0.40639428124E+02  0.18581142588E+01  0.53501993601E+02  0.00000000000E+00 0.  1.
        -13    1    5    5    0    0  0.14962857130E+03  0.46816971451E+03  0.21516899363E+03  0.53653451590E+03  0.00000000000E+00 0. -1.
          4    1    6    6  503    0  0.69274957708E+02 -0.38407405678E+03  0.15145242888E+03  0.41862840213E+03  0.00000000000E+00 0. -1.
         -4    1    6    6    0  503  0.15633292656E+01  0.40028661225E+01 -0.41551144256E+01  0.59776175419E+01  0.00000000000E+00 0.  1.
<mgrwt>
<rscale>  0 0.32210905E+04</rscale>
<asrwt>0</asrwt>
<pdfrwt beam="1">  1        2 0.57327464E+00 0.32210905E+04</pdfrwt>
<pdfrwt beam="2">  1       -2 0.10709185E+00 0.32210905E+04</pdfrwt>
<totfact> 0.32833344E-01</totfact>
</mgrwt>
</event>
<event>
12    3  0.4773567E-008  0.1221150E+04  0.7818608E-02  0.9094543E-01
         -3   -1    0    0    0  501 -0.00000000000E+00  0.00000000000E+00  0.32632281288E+03  0.32632281288E+03  0.00000000000E+00 0.  1.
          3   -1    0    0  501    0  0.00000000000E+00 -0.00000000000E+00 -0.11424322044E+04  0.11424322044E+04  0.00000000000E+00 0. -1.
         23    2    1    2    0    0  0.70308830004E+02 -0.24877292444E+03 -0.26825684798E+03  0.38335694520E+03  0.90385349672E+02 0.  0.
        254    2    1    2    0    0 -0.70308830004E+02  0.24877292444E+03 -0.54785254351E+03  0.10853980721E+04  0.90061937903E+03 0.  0.
         23    2    4    4    0    0  0.23518683214E+03  0.16520853432E+03 -0.66932217315E+03  0.73405690998E+03  0.90778134947E+02 0.  0.
         23    2    4    4    0    0 -0.30549566215E+03  0.83564390118E+02  0.12146962965E+03  0.35134116208E+03  0.91515760156E+02 0.  0.
          4    1    3    3  502    0  0.75798043626E+02 -0.21786945615E+03 -0.26570125661E+03  0.35186588511E+03  0.00000000000E+00 0. -1.
         -4    1    3    3    0  502 -0.54892136217E+01 -0.30903468285E+02 -0.25555913706E+01  0.31491060088E+02  0.00000000000E+00 0.  1.
         13    1    5    5    0    0  0.75612969232E+02  0.60458217454E+02 -0.13098006089E+03  0.16287508564E+03  0.00000000000E+00 0.  1.
        -13    1    5    5    0    0  0.15957386291E+03  0.10475031686E+03 -0.53834211227E+03  0.57118182433E+03  0.00000000000E+00 0. -1.
          2    1    6    6  503    0 -0.12380122406E+03  0.27010169805E+01  0.12217404605E+02  0.12443192334E+03  0.00000000000E+00 0. -1.
         -2    1    6    6    0  503 -0.18169443809E+03  0.80863373138E+02  0.10925222504E+03  0.22690923874E+03  0.00000000000E+00 0.  1.
<mgrwt>
<rscale>  0 0.12211498E+04</rscale>
<asrwt>0</asrwt>
<pdfrwt beam="1">  1        3 0.17575880E+00 0.12211498E+04</pdfrwt>
<pdfrwt beam="2">  1       -3 0.50203509E-01 0.12211498E+04</pdfrwt>
<totfact> 0.21567183E+00</totfact>
</mgrwt>
</event>
<event>
12    3  0.4773567E-008  0.1186077E+04  0.7818608E-02  0.9125131E-01
          3   -1    0    0  501    0  0.00000000000E+00  0.00000000000E+00  0.20728812532E+03  0.20728812532E+03  0.00000000000E+00 0. -1.
         -3   -1    0    0    0  501 -0.00000000000E+00 -0.00000000000E+00 -0.16966469091E+04  0.16966469091E+04  0.00000000000E+00 0.  1.
         23    2    1    2    0    0 -0.10829194656E+03  0.13092601006E+03 -0.57898107653E+03  0.61014254729E+03  0.90476932083E+02 0.  0.
        254    2    1    2    0    0  0.10829194656E+03 -0.13092601006E+03 -0.91037770721E+03  0.12937924871E+04  0.90346149008E+03 0.  0.
         23    2    4    4    0    0  0.23286597789E+03  0.32187408827E+03 -0.59400381686E+03  0.72021756303E+03  0.89684509800E+02 0.  0.
         23    2    4    4    0    0 -0.12457403133E+03 -0.45280009832E+03 -0.31637389035E+03  0.57357492406E+03  0.91373610454E+02 0.  0.
          1    1    3    3  502    0 -0.44967241984E+02  0.58200742119E+02 -0.11694228602E+03  0.13814802748E+03  0.00000000000E+00 0. -1.
         -1    1    3    3    0  502 -0.63324704576E+02  0.72725267936E+02 -0.46203879050E+03  0.47199451982E+03  0.00000000000E+00 0.  1.
         13    1    5    5    0    0  0.26320292826E+02  0.19388605788E+01 -0.35325740630E+02  0.44095634091E+02  0.00000000000E+00 0. -1.
        -13    1    5    5    0    0  0.20654568506E+03  0.31993522769E+03 -0.55867807623E+03  0.67612192894E+03  0.00000000000E+00 0.  1.
          2    1    6    6  503    0 -0.97405644359E+02 -0.24742226019E+03 -0.13491322479E+03  0.29817312524E+03  0.00000000000E+00 0. -1.
         -2    1    6    6    0  503 -0.27168386971E+02 -0.20537783813E+03 -0.18146066556E+03  0.27540179882E+03  0.00000000000E+00 0.  1.
<mgrwt>
<rscale>  0 0.11860772E+04</rscale>
<asrwt>0</asrwt>
<pdfrwt beam="1">  1        3 0.31890482E-01 0.11860772E+04</pdfrwt>
<pdfrwt beam="2">  1       -3 0.26102260E+00 0.11860772E+04</pdfrwt>
<totfact> 0.15879191E+00</totfact>
</mgrwt>
</event>
<event>
12    3  0.4773567E-008  0.1202255E+04  0.7818608E-02  0.9110885E-01
          2   -1    0    0  501    0  0.00000000000E+00  0.00000000000E+00  0.18045970066E+04  0.18045970066E+04  0.00000000000E+00 0. -1.
         -2   -1    0    0    0  501 -0.00000000000E+00 -0.00000000000E+00 -0.20024100255E+03  0.20024100255E+03  0.00000000000E+00 0.  1.
         23    2    1    2    0    0  0.24691372002E+03  0.21655632239E+01  0.36039354742E+03  0.45031175315E+03  0.10920664453E+03 0.  0.
        254    2    1    2    0    0 -0.24691372002E+03 -0.21655632239E+01  0.12439624567E+04  0.15545262560E+04  0.89896507847E+03 0.  0.
         23    2    4    4    0    0 -0.55577405238E+03 -0.14123496633E+03  0.72488675690E+03  0.92841145116E+03  0.87492281484E+02 0.  0.
         23    2    4    4    0    0  0.30886033236E+03  0.13906940310E+03  0.51907569978E+03  0.62611480488E+03  0.88572924780E+02 0.  0.
          3    1    3    3  502    0  0.82162926860E+02  0.46483498513E+02  0.17159762914E+03  0.19584996428E+03  0.00000000000E+00 0. -1.
         -3    1    3    3    0  502  0.16475079316E+03 -0.44317935289E+02  0.18879591828E+03  0.25446178887E+03  0.00000000000E+00 0.  1.
         13    1    5    5    0    0 -0.54224356649E+03 -0.14007445492E+03  0.72324753553E+03  0.91473271285E+03  0.00000000000E+00 0. -1.
        -13    1    5    5    0    0 -0.13530485885E+02 -0.11605114068E+01  0.16392213704E+01  0.13678738308E+02  0.00000000000E+00 0.  1.
          2    1    6    6  503    0  0.13428837186E+03  0.14353744028E+02  0.18414162565E+03  0.22835834796E+03  0.00000000000E+00 0.  1.
         -2    1    6    6    0  503  0.17457196049E+03  0.12471565907E+03  0.33493407413E+03  0.39775645692E+03  0.00000000000E+00 0. -1.
<mgrwt>
<rscale>  0 0.12022551E+04</rscale>
<asrwt>0</asrwt>
<pdfrwt beam="1">  1        2 0.27763030E+00 0.12022551E+04</pdfrwt>
<pdfrwt beam="2">  1       -2 0.30806309E-01 0.12022551E+04</pdfrwt>
<totfact> 0.82602847E+01</totfact>
</mgrwt>
</event>
<event>
12    3  0.4773567E-008  0.1821543E+04  0.7818608E-02  0.8694927E-01
          1   -1    0    0  501    0  0.00000000000E+00  0.00000000000E+00  0.25956176427E+04  0.25956176427E+04  0.00000000000E+00 0. -1.
         -1   -1    0    0    0  501 -0.00000000000E+00 -0.00000000000E+00 -0.31957877753E+03  0.31957877753E+03  0.00000000000E+00 0.  1.
         23    2    1    2    0    0 -0.64752248385E+03 -0.18955257873E+03  0.10381420113E+04  0.12418923433E+04  0.96655106754E+02 0.  0.
        254    2    1    2    0    0  0.64752248385E+03  0.18955257873E+03  0.12378968539E+04  0.16733040769E+04  0.90130037486E+03 0.  0.
         23    2    4    4    0    0  0.51840561598E+03 -0.14192590341E+03  0.11804779499E+04  0.13003073622E+04  0.91562553779E+02 0.  0.
         23    2    4    4    0    0  0.12911686787E+03  0.33147848215E+03  0.57418904009E+02  0.37299671471E+03  0.96335190645E+02 0.  0.
          3    1    3    3  502    0 -0.51491063806E+03 -0.11596372807E+03  0.84541194194E+03  0.99664532457E+03  0.00000000000E+00 0. -1.
         -3    1    3    3    0  502 -0.13261184579E+03 -0.73588850664E+02  0.19273006933E+03  0.24524701876E+03  0.00000000000E+00 0.  1.
         13    1    5    5    0    0  0.12132402011E+03 -0.74389824919E+02  0.32067836174E+03  0.35083895963E+03  0.00000000000E+00 0.  1.
        -13    1    5    5    0    0  0.39708159588E+03 -0.67536078496E+02  0.85979958817E+03  0.94946840259E+03  0.00000000000E+00 0. -1.
          1    1    6    6  503    0  0.76187389330E+02  0.16319321766E+03 -0.18283488582E+02  0.18102715414E+03  0.00000000000E+00 0. -1.
         -1    1    6    6    0  503  0.52929478537E+02  0.16828526449E+03  0.75702392590E+02  0.19196956057E+03  0.00000000000E+00 0.  1.
<mgrwt>
<rscale>  0 0.18215425E+04</rscale>
<asrwt>0</asrwt>
<pdfrwt beam="1">  1        1 0.39932578E+00 0.18215425E+04</pdfrwt>
<pdfrwt beam="2">  1       -1 0.49165967E-01 0.18215425E+04</pdfrwt>
<totfact> 0.45419783E+00</totfact>
</mgrwt>
</event>
<event>
12    3  0.4773567E-008  0.1535155E+04  0.7818608E-02  0.8861406E-01
         -2   -1    0    0    0  501 -0.00000000000E+00  0.00000000000E+00  0.46050292779E+03  0.46050292779E+03  0.00000000000E+00 0.  1.
          2   -1    0    0  501    0  0.00000000000E+00 -0.00000000000E+00 -0.12794165061E+04  0.12794165061E+04  0.00000000000E+00 0. -1.
         23    2    1    2    0    0  0.34871102885E+03  0.34555823691E+03 -0.14788360060E+03  0.52156130522E+03  0.95638690086E+02 0.  0.
        254    2    1    2    0    0 -0.34871102885E+03 -0.34555823691E+03 -0.67102997772E+03  0.12183581287E+04  0.89056466467E+03 0.  0.
         23    2    4    4    0    0 -0.28009895980E+03  0.15682898670E+03 -0.61653779007E+03  0.70023665084E+03  0.84627195643E+02 0.  0.
         23    2    4    4    0    0 -0.68612069044E+02 -0.50238722361E+03 -0.54492187652E+02  0.51812147783E+03  0.91541951092E+02 0.  0.
          1    1    3    3  502    0  0.15205292656E+02 -0.34570533344E+01  0.28166010583E+01  0.15845673985E+02  0.00000000000E+00 0. -1.
         -1    1    3    3    0  502  0.33350573619E+03  0.34901529025E+03 -0.15070020165E+03  0.50571563124E+03  0.00000000000E+00 0.  1.
         13    1    5    5    0    0 -0.93536803404E+02  0.73187526081E+02 -0.15360160428E+03  0.19416230428E+03  0.00000000000E+00 0.  1.
        -13    1    5    5    0    0 -0.18656215640E+03  0.83641460616E+02 -0.46293618579E+03  0.50607434656E+03  0.00000000000E+00 0. -1.
          3    1    6    6  503    0 -0.22607706319E+02 -0.29019753118E+03  0.11167622724E+02  0.29129097357E+03  0.00000000000E+00 0. -1.
         -3    1    6    6    0  503 -0.46004362725E+02 -0.21218969243E+03 -0.65659810376E+02  0.22683050426E+03  0.00000000000E+00 0.  1.
<mgrwt>
<rscale>  0 0.15351548E+04</rscale>
<asrwt>0</asrwt>
<pdfrwt beam="1">  1        2 0.19683330E+00 0.15351548E+04</pdfrwt>
<pdfrwt beam="2">  1       -2 0.70846606E-01 0.15351548E+04</pdfrwt>
<totfact> 0.29656660E+01</totfact>
</mgrwt>
</event>
<event>
12    3  0.4773567E-008  0.1627481E+04  0.7818608E-02  0.8803841E-01
         -1   -1    0    0    0  501 -0.00000000000E+00  0.00000000000E+00  0.10534324199E+04  0.10534324199E+04  0.00000000000E+00 0.  1.
          1   -1    0    0  501    0  0.00000000000E+00 -0.00000000000E+00 -0.62858631035E+03  0.62858631035E+03  0.00000000000E+00 0. -1.
         23    2    1    2    0    0  0.19215151061E+03  0.87966749018E+02  0.68322071847E+03  0.72093310324E+03  0.91069408883E+02 0.  0.
        254    2    1    2    0    0 -0.19215151061E+03 -0.87966749018E+02 -0.25837460890E+03  0.96108562702E+03  0.90125900383E+03 0.  0.
         23    2    4    4    0    0  0.13829275064E+03  0.19969696088E+03 -0.41293936731E+03  0.48763706763E+03  0.90924295876E+02 0.  0.
         23    2    4    4    0    0 -0.33044426125E+03 -0.28766370990E+03  0.15456475841E+03  0.47344855940E+03  0.91211041361E+02 0.  0.
          4    1    3    3  502    0  0.75952441658E+02 -0.48875896249E+01  0.16350096011E+03  0.18034751422E+03  0.00000000000E+00 0. -1.
         -4    1    3    3    0  502  0.11619906895E+03  0.92854338643E+02  0.51971975836E+03  0.54058558902E+03  0.00000000000E+00 0.  1.
         13    1    5    5    0    0  0.68628176706E+02  0.16940637664E+03 -0.30667481195E+03  0.35701230702E+03  0.00000000000E+00 0. -1.
        -13    1    5    5    0    0  0.69664573937E+02  0.30290584248E+02 -0.10626455536E+03  0.13062476060E+03  0.00000000000E+00 0.  1.
          2    1    6    6  503    0 -0.30392848145E+03 -0.26688716271E+03  0.16692365788E+03  0.43756689433E+03  0.00000000000E+00 0. -1.
         -2    1    6    6    0  503 -0.26515779802E+02 -0.20776547193E+02 -0.12358899472E+02  0.35881665067E+02  0.00000000000E+00 0.  1.
<mgrwt>
<rscale>  0 0.16274805E+04</rscale>
<asrwt>0</asrwt>
<pdfrwt beam="1">  1        1 0.96705587E-01 0.16274805E+04</pdfrwt>
<pdfrwt beam="2">  1       -1 0.16206653E+00 0.16274805E+04</pdfrwt>
<totfact> 0.86367098E+00</totfact>
</mgrwt>
</event>
<event>
12    3  0.4773567E-008  0.1448954E+04  0.7818608E-02  0.8919126E-01
          1   -1    0    0  501    0  0.00000000000E+00  0.00000000000E+00  0.10885070846E+04  0.10885070846E+04  0.00000000000E+00 0. -1.
         -1   -1    0    0    0  501 -0.00000000000E+00 -0.00000000000E+00 -0.48218989790E+03  0.48218989790E+03  0.00000000000E+00 0.  1.
         23    2    1    2    0    0  0.27110631972E+03 -0.78170348645E+00 -0.18756776423E+03  0.34177255339E+03  0.90153005617E+02 0.  0.
        254    2    1    2    0    0 -0.27110631972E+03  0.78170348645E+00  0.79388495088E+03  0.12289244291E+04  0.89805494790E+03 0.  0.
         23    2    4    4    0    0  0.19184731582E+03  0.10602218516E+03  0.69616287292E+03  0.73583160576E+03  0.93591185845E+02 0.  0.
         23    2    4    4    0    0 -0.46295363554E+03 -0.10524048168E+03  0.97722077961E+02  0.49309282330E+03  0.90494752472E+02 0.  0.
          4    1    3    3  502    0  0.88566467134E+02  0.34751963153E+02 -0.35501037347E+02  0.10154822350E+03  0.00000000000E+00 0. -1.
         -4    1    3    3    0  502  0.18253985259E+03 -0.35533666640E+02 -0.15206672688E+03  0.24022432989E+03  0.00000000000E+00 0.  1.
         13    1    5    5    0    0  0.14530300525E+03  0.11889906496E+03  0.59110633015E+03  0.62020693686E+03  0.00000000000E+00 0.  1.
        -13    1    5    5    0    0  0.46544310567E+02 -0.12876879799E+02  0.10505654277E+03  0.11562466890E+03  0.00000000000E+00 0. -1.
          1    1    6    6  503    0 -0.24733762252E+03 -0.14167292105E+02  0.30784732853E+02  0.24964837563E+03  0.00000000000E+00 0. -1.
         -1    1    6    6    0  503 -0.21561601302E+03 -0.91073189571E+02  0.66937345107E+02  0.24344444766E+03  0.00000000000E+00 0.  1.
<mgrwt>
<rscale>  0 0.14489543E+04</rscale>
<asrwt>0</asrwt>
<pdfrwt beam="1">  1        1 0.16746263E+00 0.14489543E+04</pdfrwt>
<pdfrwt beam="2">  1       -1 0.74183062E-01 0.14489543E+04</pdfrwt>
<totfact> 0.22986623E+01</totfact>
</mgrwt>
</event>
<event>
12    3  0.4773567E-008  0.1976844E+04  0.7818608E-02  0.8617524E-01
          1   -1    0    0  501    0  0.00000000000E+00  0.00000000000E+00  0.86042291464E+03  0.86042291464E+03  0.00000000000E+00 0. -1.
         -1   -1    0    0    0  501 -0.00000000000E+00 -0.00000000000E+00 -0.11354624024E+04  0.11354624024E+04  0.00000000000E+00 0.  1.
         23    2    1    2    0    0 -0.49559364052E+03 -0.27349761237E+03  0.43170396140E+03  0.71797896705E+03  0.93335343457E+02 0.  0.
        254    2    1    2    0    0  0.49559364052E+03  0.27349761237E+03 -0.70674344916E+03  0.12779063500E+04  0.90174516131E+03 0.  0.
         23    2    4    4    0    0 -0.14778890386E+03  0.25610333200E+03  0.13020818791E+02  0.30888192248E+03  0.88363021381E+02 0.  0.
         23    2    4    4    0    0  0.64338254438E+03  0.17394280375E+02 -0.71976426795E+03  0.96902442752E+03  0.81878448434E+02 0.  0.
          3    1    3    3  502    0 -0.49211981150E+03 -0.26223219299E+03  0.43316263982E+03  0.70610020851E+03  0.00000000000E+00 0. -1.
         -3    1    3    3    0  502 -0.34738290136E+01 -0.11265419376E+02 -0.14586784180E+01  0.11878758541E+02  0.00000000000E+00 0.  1.
         13    1    5    5    0    0 -0.61342230969E+02  0.17819701848E+03 -0.15406039371E+02  0.18908831996E+03  0.00000000000E+00 0. -1.
        -13    1    5    5    0    0 -0.86446672891E+02  0.77906313516E+02  0.28426858162E+02  0.11979360252E+03  0.00000000000E+00 0.  1.
          2    1    6    6  503    0  0.22026987106E+03  0.44540288234E+02 -0.25723621256E+03  0.34157447567E+03  0.00000000000E+00 0.  1.
         -2    1    6    6    0  503  0.42311267332E+03 -0.27146007858E+02 -0.46252805539E+03  0.62744995186E+03  0.00000000000E+00 0. -1.
<mgrwt>
<rscale>  0 0.19768438E+04</rscale>
<asrwt>0</asrwt>
<pdfrwt beam="1">  1        1 0.13237276E+00 0.19768438E+04</pdfrwt>
<pdfrwt beam="2">  1       -1 0.17468652E+00 0.19768438E+04</pdfrwt>
<totfact> 0.41480394E+00</totfact>
</mgrwt>
</event>
<event>
12    3  0.4773567E-008  0.1861326E+04  0.7818608E-02  0.8674350E-01
          2   -1    0    0  501    0  0.00000000000E+00  0.00000000000E+00  0.28083102630E+04  0.28083102630E+04  0.00000000000E+00 0. -1.
         -2   -1    0    0    0  501 -0.00000000000E+00 -0.00000000000E+00 -0.30841793932E+03  0.30841793932E+03  0.00000000000E+00 0.  1.
         23    2    1    2    0    0 -0.60237927328E+03  0.28603485735E+03  0.57287336277E+03  0.88419579822E+03  0.94559987963E+02 0.  0.
        254    2    1    2    0    0  0.60237927328E+03 -0.28603485735E+03  0.19270189610E+04  0.22325324041E+04  0.90891260918E+03 0.  0.
         23    2    4    4    0    0 -0.26210393807E+02  0.25160250260E+03  0.27901907284E+03  0.38667360560E+03  0.87601542246E+02 0.  0.
         23    2    4    4    0    0  0.62858966709E+03 -0.53763735995E+03  0.16479998881E+04  0.18458587985E+04  0.84333697308E+02 0.  0.
          2    1    3    3  502    0 -0.38149431374E+01  0.14172364028E+02  0.50790744354E+01  0.15530830319E+02  0.00000000000E+00 0. -1.
         -2    1    3    3    0  502 -0.59856433015E+03  0.27186249332E+03  0.56779428833E+03  0.86866496790E+03  0.00000000000E+00 0.  1.
         13    1    5    5    0    0 -0.35279462085E+02  0.25298764477E+03  0.25487102710E+03  0.36084155707E+03  0.00000000000E+00 0.  1.
        -13    1    5    5    0    0  0.90690682779E+01 -0.13851421761E+01  0.24148045745E+02  0.25832048536E+02  0.00000000000E+00 0. -1.
          1    1    6    6  503    0  0.24067620569E+03 -0.19090783120E+03  0.52692186759E+03  0.60993236555E+03  0.00000000000E+00 0. -1.
         -1    1    6    6    0  503  0.38791346140E+03 -0.34672952875E+03  0.11210780205E+04  0.12359264330E+04  0.00000000000E+00 0.  1.
<mgrwt>
<rscale>  0 0.18613256E+04</rscale>
<asrwt>0</asrwt>
<pdfrwt beam="1">  1        2 0.43204772E+00 0.18613256E+04</pdfrwt>
<pdfrwt beam="2">  1       -2 0.47448916E-01 0.18613256E+04</pdfrwt>
<totfact> 0.90594333E+00</totfact>
</mgrwt>
</event>
<event>
12    3  0.4773567E-008  0.3268276E+04  0.7818608E-02  0.8171015E-01
         -1   -1    0    0    0  501 -0.00000000000E+00  0.00000000000E+00  0.14617093774E+04  0.14617093774E+04  0.00000000000E+00 0.  1.
          1   -1    0    0  501    0  0.00000000000E+00 -0.00000000000E+00 -0.18269073950E+04  0.18269073950E+04  0.00000000000E+00 0. -1.
         23    2    1    2    0    0 -0.36957779215E+02  0.52579687446E+03 -0.15942329060E+04  0.16815495767E+04  0.90565942244E+02 0.  0.
        254    2    1    2    0    0  0.36957779215E+02 -0.52579687446E+03  0.12290348884E+04  0.16070671956E+04  0.89124069915E+03 0.  0.
         23    2    4    4    0    0  0.38195752744E+03 -0.43814364665E+03  0.43709366101E+03  0.73392823509E+03  0.98683219955E+02 0.  0.
         23    2    4    4    0    0 -0.34499974822E+03 -0.87653227808E+02  0.79194122734E+03  0.87313896053E+03  0.92156509307E+02 0.  0.
          4    1    3    3  502    0 -0.30411346415E+02  0.51965356995E+03 -0.15864533108E+04  0.16696702639E+04  0.00000000000E+00 0. -1.
         -4    1    3    3    0  502 -0.65464328003E+01  0.61433045132E+01 -0.77795951708E+01  0.11879312849E+02  0.00000000000E+00 0.  1.
         13    1    5    5    0    0  0.92338845572E+02 -0.16310329570E+03  0.10735425026E+03  0.21599556134E+03  0.00000000000E+00 0. -1.
        -13    1    5    5    0    0  0.28961868187E+03 -0.27504035095E+03  0.32973941075E+03  0.51793267375E+03  0.00000000000E+00 0.  1.
          1    1    6    6  503    0 -0.33775780652E+02 -0.18418803294E+02  0.16926964957E+03  0.17358649124E+03  0.00000000000E+00 0. -1.
         -1    1    6    6    0  503 -0.31122396757E+03 -0.69234424514E+02  0.62267157777E+03  0.69955246929E+03  0.00000000000E+00 0.  1.
<mgrwt>
<rscale>  0 0.32682764E+04</rscale>
<asrwt>0</asrwt>
<pdfrwt beam="1">  1        1 0.28106268E+00 0.32682764E+04</pdfrwt>
<pdfrwt beam="2">  1       -1 0.22487837E+00 0.32682764E+04</pdfrwt>
<totfact> 0.33172604E-01</totfact>
</mgrwt>
</event>
<event>
12    3  0.4773567E-008  0.2042684E+04  0.7818608E-02  0.8586921E-01
          1   -1    0    0  501    0  0.00000000000E+00  0.00000000000E+00  0.14232937427E+04  0.14232937427E+04  0.00000000000E+00 0. -1.
         -1   -1    0    0    0  501 -0.00000000000E+00 -0.00000000000E+00 -0.73290513328E+03  0.73290513328E+03  0.00000000000E+00 0.  1.
         23    2    1    2    0    0 -0.70136531098E+03  0.42043029469E+03  0.34911466240E+03  0.89399327088E+03  0.93102034009E+02 0.  0.
        254    2    1    2    0    0  0.70136531098E+03 -0.42043029469E+03  0.34127394700E+03  0.12622056051E+04  0.89889941064E+03 0.  0.
         23    2    4    4    0    0  0.15445551262E+02 -0.96367431492E+02 -0.25657966929E+03  0.29164991411E+03  0.98495171464E+02 0.  0.
         23    2    4    4    0    0  0.68591975972E+03 -0.32406286319E+03  0.59785361629E+03  0.97055569096E+03  0.95114387290E+02 0.  0.
          4    1    3    3  502    0 -0.38516839890E+03  0.19538936268E+03  0.14565571615E+03  0.45579303001E+03  0.00000000000E+00 0. -1.
         -4    1    3    3    0  502 -0.31619691209E+03  0.22504093201E+03  0.20345894625E+03  0.43820024087E+03  0.00000000000E+00 0.  1.
         13    1    5    5    0    0  0.16561754472E+02 -0.84143856596E+02 -0.88901559901E+02  0.12352314628E+03  0.00000000000E+00 0. -1.
        -13    1    5    5    0    0 -0.11162032101E+01 -0.12223574896E+02 -0.16767810939E+03  0.16812676783E+03  0.00000000000E+00 0.  1.
          3    1    6    6  503    0  0.27175170537E+03 -0.13357786155E+03  0.29838912422E+03  0.42512128142E+03  0.00000000000E+00 0. -1.
         -3    1    6    6    0  503  0.41416805435E+03 -0.19048500164E+03  0.29946449208E+03  0.54543440954E+03  0.00000000000E+00 0.  1.
<mgrwt>
<rscale>  0 0.20426838E+04</rscale>
<asrwt>0</asrwt>
<pdfrwt beam="1">  1        1 0.21896827E+00 0.20426838E+04</pdfrwt>
<pdfrwt beam="2">  1       -1 0.11275464E+00 0.20426838E+04</pdfrwt>
<totfact> 0.49209698E+00</totfact>
</mgrwt>
</event>
<event>
12    3  0.4773567E-008  0.1048980E+04  0.7818608E-02  0.9256398E-01
          3   -1    0    0  501    0  0.00000000000E+00  0.00000000000E+00  0.58808599568E+03  0.58808599568E+03  0.00000000000E+00 0. -1.
         -3   -1    0    0    0  501 -0.00000000000E+00 -0.00000000000E+00 -0.46777144661E+03  0.46777144661E+03  0.00000000000E+00 0.  1.
         23    2    1    2    0    0 -0.91319365649E+02  0.48915249787E+01 -0.57870514455E+02  0.13461089299E+03  0.80049625294E+02 0.  0.
        254    2    1    2    0    0  0.91319365649E+02 -0.48915249787E+01  0.17818506353E+03  0.92124654930E+03  0.89921195175E+03 0.  0.
         23    2    4    4    0    0 -0.34201598645E+03 -0.16536615098E+03  0.22197905423E+03  0.44851714309E+03  0.87017402052E+02 0.  0.
         23    2    4    4    0    0  0.43333535210E+03  0.16047462600E+03 -0.43793990698E+02  0.47272940620E+03  0.89574242399E+02 0.  0.
          3    1    3    3  502    0 -0.42122829500E+02  0.30744583457E+02  0.29372935801E+01  0.52232077028E+02  0.00000000000E+00 0. -1.
         -3    1    3    3    0  502 -0.49196536149E+02 -0.25853058478E+02 -0.60807808035E+02  0.82378815965E+02  0.00000000000E+00 0.  1.
         13    1    5    5    0    0 -0.70087190441E+02  0.22776035863E+01  0.35105673892E+02  0.78420724821E+02  0.00000000000E+00 0. -1.
        -13    1    5    5    0    0 -0.27192879601E+03 -0.16764375456E+03  0.18687338033E+03  0.37009641827E+03  0.00000000000E+00 0.  1.
          3    1    6    6  503    0  0.25559437087E+03  0.48103375892E+02 -0.15393551264E+02  0.26053671260E+03  0.00000000000E+00 0. -1.
         -3    1    6    6    0  503  0.17774098123E+03  0.11237125010E+03 -0.28400439434E+02  0.21219269360E+03  0.00000000000E+00 0.  1.
<mgrwt>
<rscale>  0 0.10489801E+04</rscale>
<asrwt>0</asrwt>
<pdfrwt beam="1">  1        3 0.90474769E-01 0.10489801E+04</pdfrwt>
<pdfrwt beam="2">  1       -3 0.71964838E-01 0.10489801E+04</pdfrwt>
<totfact> 0.52863005E+00</totfact>
</mgrwt>
</event>
<event>
12    3  0.4773567E-008  0.2617628E+04  0.7818608E-02  0.8362238E-01
          1   -1    0    0  501    0  0.00000000000E+00  0.00000000000E+00  0.17248166878E+04  0.17248166878E+04  0.00000000000E+00 0. -1.
         -1   -1    0    0    0  501 -0.00000000000E+00 -0.00000000000E+00 -0.99314540394E+03  0.99314540394E+03  0.00000000000E+00 0.  1.
         23    2    1    2    0    0  0.45036670127E+03  0.17166711764E+03 -0.76423863766E+03  0.90804318208E+03  0.90454189220E+02 0.  0.
        254    2    1    2    0    0 -0.45036670127E+03 -0.17166711764E+03  0.14959099215E+04  0.18099189096E+04  0.89764146590E+03 0.  0.
         23    2    4    4    0    0  0.20006775574E+03 -0.25182797363E+03  0.32609062080E+03  0.46585750421E+03  0.85109847009E+02 0.  0.
         23    2    4    4    0    0 -0.65043445701E+03  0.80160855993E+02  0.11698193007E+04  0.13440614054E+04  0.92374886076E+02 0.  0.
          2    1    3    3  502    0  0.83966138527E+02  0.68984220733E+02 -0.14436386799E+03  0.18069328020E+03  0.00000000000E+00 0. -1.
         -2    1    3    3    0  502  0.36640056274E+03  0.10268289691E+03 -0.61987476967E+03  0.72734990188E+03  0.00000000000E+00 0.  1.
         13    1    5    5    0    0  0.44439226620E+02 -0.10333618336E+03  0.15220076709E+03  0.18925719315E+03  0.00000000000E+00 0.  1.
        -13    1    5    5    0    0  0.15562852912E+03 -0.14849179027E+03  0.17388985371E+03  0.27660031106E+03  0.00000000000E+00 0. -1.
          1    1    6    6  503    0 -0.42686584372E+03  0.83326117300E+01  0.74583188322E+03  0.85938878220E+03  0.00000000000E+00 0. -1.
         -1    1    6    6    0  503 -0.22356861329E+03  0.71828244263E+02  0.42398741747E+03  0.48467262322E+03  0.00000000000E+00 0.  1.
<mgrwt>
<rscale>  0 0.26176278E+04</rscale>
<asrwt>0</asrwt>
<pdfrwt beam="1">  1        1 0.26535641E+00 0.26176278E+04</pdfrwt>
<pdfrwt beam="2">  1       -1 0.15279160E+00 0.26176278E+04</pdfrwt>
<totfact> 0.13377945E+00</totfact>
</mgrwt>
</event>
<event>
12    3  0.4773567E-008  0.1888897E+04  0.7818608E-02  0.8660403E-01
         -1   -1    0    0    0  501 -0.00000000000E+00  0.00000000000E+00  0.52428487541E+03  0.52428487541E+03  0.00000000000E+00 0.  1.
          1   -1    0    0  501    0  0.00000000000E+00 -0.00000000000E+00 -0.17013324174E+04  0.17013324174E+04  0.00000000000E+00 0. -1.
         23    2    1    2    0    0 -0.54898999034E+03 -0.13785262881E+03  0.82360559429E+02  0.58016118479E+03  0.97007122555E+02 0.  0.
        254    2    1    2    0    0  0.54898999034E+03  0.13785262881E+03 -0.12594081014E+04  0.16454561080E+04  0.89499926297E+03 0.  0.
         23    2    4    4    0    0  0.69085311110E+03  0.31756680672E+03 -0.11358740567E+04  0.13699861137E+04  0.92332989827E+02 0.  0.
         23    2    4    4    0    0 -0.14186312076E+03 -0.17971417791E+03 -0.12353404465E+03  0.27546999432E+03  0.90557864435E+02 0.  0.
          1    1    3    3  502    0 -0.29871951303E+02 -0.17267457356E+02 -0.16310619933E+02  0.38164576256E+02  0.00000000000E+00 0. -1.
         -1    1    3    3    0  502 -0.51911803903E+03 -0.12058517146E+03  0.98671179362E+02  0.54199660853E+03  0.00000000000E+00 0.  1.
         13    1    5    5    0    0  0.13379015444E+03  0.23029201263E+02 -0.19613937186E+03  0.23853889144E+03  0.00000000000E+00 0. -1.
        -13    1    5    5    0    0  0.55706295666E+03  0.29453760546E+03 -0.93973468488E+03  0.11314472222E+04  0.00000000000E+00 0.  1.
          3    1    6    6  503    0 -0.77161157997E+02 -0.29795418219E+02 -0.36090612678E+02  0.90244908853E+02  0.00000000000E+00 0. -1.
         -3    1    6    6    0  503 -0.64701962766E+02 -0.14991875969E+03 -0.87443431971E+02  0.18522508547E+03  0.00000000000E+00 0.  1.
<mgrwt>
<rscale>  0 0.18888969E+04</rscale>
<asrwt>0</asrwt>
<pdfrwt beam="1">  1        1 0.26174345E+00 0.18888969E+04</pdfrwt>
<pdfrwt beam="2">  1       -1 0.80659211E-01 0.18888969E+04</pdfrwt>
<totfact> 0.68264918E+00</totfact>
</mgrwt>
</event>
<event>
12    3  0.4773567E-008  0.1800265E+04  0.7818608E-02  0.8706158E-01
          1   -1    0    0  501    0  0.00000000000E+00  0.00000000000E+00  0.14591874610E+04  0.14591874610E+04  0.00000000000E+00 0. -1.
         -1   -1    0    0    0  501 -0.00000000000E+00 -0.00000000000E+00 -0.55526716390E+03  0.55526716390E+03  0.00000000000E+00 0.  1.
         23    2    1    2    0    0  0.34505431535E+03  0.14287132783E+03  0.97814003804E+03  0.10510098421E+04  0.91591797149E+02 0.  0.
        254    2    1    2    0    0 -0.34505431535E+03 -0.14287132783E+03 -0.74219740912E+02  0.96344478283E+03  0.88500993371E+03 0.  0.
         23    2    4    4    0    0 -0.63625679375E+03 -0.76279564531E+02 -0.55705272186E+02  0.64973956506E+03  0.91745002572E+02 0.  0.
         23    2    4    4    0    0  0.29120247840E+03 -0.66591763303E+02 -0.18514468726E+02  0.31370521777E+03  0.93993785651E+02 0.  0.
          4    1    3    3  502    0  0.64579621631E+01  0.89455588231E+01  0.52605434705E+01  0.12222995360E+02  0.00000000000E+00 0.  1.
         -4    1    3    3    0  502  0.33859635319E+03  0.13392576901E+03  0.97287949457E+03  0.10387868467E+04  0.00000000000E+00 0. -1.
         13    1    5    5    0    0 -0.54660441064E+02 -0.33259957636E+02 -0.10065992529E+02  0.64771234394E+02  0.00000000000E+00 0.  1.
        -13    1    5    5    0    0 -0.58159635269E+03 -0.43019606895E+02 -0.45639279657E+02  0.58496833067E+03  0.00000000000E+00 0. -1.
          2    1    6    6  503    0  0.11300565853E+03 -0.59883636959E+02  0.24618561607E+02  0.13023978812E+03  0.00000000000E+00 0. -1.
         -2    1    6    6    0  503  0.17819681987E+03 -0.67081263441E+01 -0.43133030333E+02  0.18346542965E+03  0.00000000000E+00 0.  1.
<mgrwt>
<rscale>  0 0.18002654E+04</rscale>
<asrwt>0</asrwt>
<pdfrwt beam="1">  1        1 0.22449038E+00 0.18002654E+04</pdfrwt>
<pdfrwt beam="2">  1       -1 0.85425718E-01 0.18002654E+04</pdfrwt>
<totfact> 0.89241126E+00</totfact>
</mgrwt>
</event>
<event>
12    3  0.4773567E-008  0.1806411E+04  0.7818608E-02  0.8702898E-01
          1   -1    0    0  501    0  0.00000000000E+00  0.00000000000E+00  0.83541090467E+03  0.83541090467E+03  0.00000000000E+00 0. -1.
         -1   -1    0    0    0  501 -0.00000000000E+00 -0.00000000000E+00 -0.97650125782E+03  0.97650125782E+03  0.00000000000E+00 0.  1.
         23    2    1    2    0    0 -0.66781221771E+03 -0.86670819007E+02 -0.84557674423E+02  0.68476708986E+03  0.90944917734E+02 0.  0.
        254    2    1    2    0    0  0.66781221771E+03  0.86670819007E+02 -0.56532678728E+02  0.11271450726E+04  0.90209482982E+03 0.  0.
         23    2    4    4    0    0  0.61277883688E+03  0.16587575794E+02  0.34233293334E+03  0.70864366289E+03  0.95973710483E+02 0.  0.
         23    2    4    4    0    0  0.55033380829E+02  0.70083243213E+02 -0.39886561207E+03  0.41850140974E+03  0.90051760003E+02 0.  0.
          4    1    3    3  502    0 -0.59736561998E+00 -0.75303743833E+01 -0.20560927179E+01  0.78288505735E+01  0.00000000000E+00 0.  1.
         -4    1    3    3    0  502 -0.66721485209E+03 -0.79140444624E+02 -0.82501581705E+02  0.67693823928E+03  0.00000000000E+00 0. -1.
         13    1    5    5    0    0  0.51588021323E+02 -0.11266898688E+02  0.59635348316E+02  0.79653259310E+02  0.00000000000E+00 0.  1.
        -13    1    5    5    0    0  0.56119081556E+03  0.27854474482E+02  0.28269758502E+03  0.62899040358E+03  0.00000000000E+00 0. -1.
          4    1    6    6  503    0  0.27313829577E+02  0.50242621259E+02 -0.36830899599E+03  0.37272225960E+03  0.00000000000E+00 0. -1.
         -4    1    6    6    0  503  0.27719551253E+02  0.19840621954E+02 -0.30556616081E+02  0.45779150139E+02  0.00000000000E+00 0.  1.
<mgrwt>
<rscale>  0 0.18064106E+04</rscale>
<asrwt>0</asrwt>
<pdfrwt beam="1">  1        1 0.12852475E+00 0.18064106E+04</pdfrwt>
<pdfrwt beam="2">  1       -1 0.15023096E+00 0.18064106E+04</pdfrwt>
<totfact> 0.67531549E+00</totfact>
</mgrwt>
</event>
<event>
12    3  0.4773567E-008  0.1936444E+04  0.7818608E-02  0.8636926E-01
          2   -1    0    0  501    0  0.00000000000E+00  0.00000000000E+00  0.12144546155E+04  0.12144546155E+04  0.00000000000E+00 0. -1.
         -2   -1    0    0    0  501 -0.00000000000E+00 -0.00000000000E+00 -0.77191312698E+03  0.77191312698E+03  0.00000000000E+00 0.  1.
         23    2    1    2    0    0  0.43269067288E+03 -0.21411175149E+03  0.76068285453E+03  0.90567083571E+03  0.92391541617E+02 0.  0.
        254    2    1    2    0    0 -0.43269067288E+03  0.21411175149E+03 -0.31814136602E+03  0.10806969067E+04  0.91303166153E+03 0.  0.
         23    2    4    4    0    0  0.40512925075E+01 -0.20661415228E+03  0.18155006378E+03  0.28985850530E+03  0.91387671723E+02 0.  0.
         23    2    4    4    0    0 -0.43674196539E+03  0.42072590377E+03 -0.49969142980E+03  0.79083840145E+03  0.89330967510E+02 0.  0.
          2    1    3    3  502    0  0.39281187216E+03 -0.16962142106E+03  0.70071031360E+03  0.82101616122E+03  0.00000000000E+00 0. -1.
         -2    1    3    3    0  502  0.39878800718E+02 -0.44490330429E+02  0.59972540926E+02  0.84654674493E+02  0.00000000000E+00 0.  1.
         13    1    5    5    0    0  0.11355757422E+02 -0.16045326636E+03  0.18229598002E+03  0.24311731375E+03  0.00000000000E+00 0. -1.
        -13    1    5    5    0    0 -0.73044649148E+01 -0.46160885915E+02 -0.74591624380E+00  0.46741191547E+02  0.00000000000E+00 0.  1.
          1    1    6    6  503    0 -0.34861402240E+03  0.28902051277E+03 -0.39501686763E+03  0.60091839640E+03  0.00000000000E+00 0. -1.
         -1    1    6    6    0  503 -0.88127942990E+02  0.13170539099E+03 -0.10467456217E+03  0.18992000505E+03  0.00000000000E+00 0.  1.
<mgrwt>
<rscale>  0 0.19364436E+04</rscale>
<asrwt>0</asrwt>
<pdfrwt beam="1">  1        2 0.18683917E+00 0.19364436E+04</pdfrwt>
<pdfrwt beam="2">  1       -2 0.11875587E+00 0.19364436E+04</pdfrwt>
<totfact> 0.94503338E+00</totfact>
</mgrwt>
</event>
<event>
12    3  0.4773567E-008  0.1572452E+04  0.7818608E-02  0.8837653E-01
         -4   -1    0    0    0  501 -0.00000000000E+00  0.00000000000E+00  0.51056434223E+03  0.51056434223E+03  0.00000000000E+00 0.  1.
          4   -1    0    0  501    0  0.00000000000E+00 -0.00000000000E+00 -0.12107214921E+04  0.12107214921E+04  0.00000000000E+00 0. -1.
         23    2    1    2    0    0  0.38053442441E+03 -0.29957682995E+03 -0.20631111463E+02  0.49318276153E+03  0.90834290344E+02 0.  0.
        254    2    1    2    0    0 -0.38053442441E+03  0.29957682995E+03 -0.67952603839E+03  0.12281030728E+04  0.90107091580E+03 0.  0.
         23    2    4    4    0    0  0.19933407378E+03  0.36765606936E+03 -0.33690974092E+03  0.54482470110E+03  0.91764497985E+02 0.  0.
         23    2    4    4    0    0 -0.57986849819E+03 -0.68079239407E+02 -0.34261629747E+03  0.68327837168E+03  0.92742373734E+02 0.  0.
          4    1    3    3  502    0  0.10347401312E+03 -0.74241004863E+02 -0.45391558240E+02  0.13519982157E+03  0.00000000000E+00 0. -1.
         -4    1    3    3    0  502  0.27706041129E+03 -0.22533582509E+03  0.24760446778E+02  0.35798293996E+03  0.00000000000E+00 0.  1.
         13    1    5    5    0    0  0.20659288188E+03  0.32655779149E+03 -0.30521914939E+03  0.49242191176E+03  0.00000000000E+00 0. -1.
        -13    1    5    5    0    0 -0.72588080980E+01  0.41098277867E+02 -0.31690591533E+02  0.52402789337E+02  0.00000000000E+00 0.  1.
          4    1    6    6  503    0 -0.45268712367E+03 -0.82155396989E+02 -0.23798813596E+03  0.51798985902E+03  0.00000000000E+00 0. -1.
         -4    1    6    6    0  503 -0.12718137452E+03  0.14076157582E+02 -0.10462816151E+03  0.16528851266E+03  0.00000000000E+00 0.  1.
<mgrwt>
<rscale>  0 0.15724519E+04</rscale>
<asrwt>0</asrwt>
<pdfrwt beam="1">  1        4 0.18626485E+00 0.15724519E+04</pdfrwt>
<pdfrwt beam="2">  1       -4 0.78548360E-01 0.15724519E+04</pdfrwt>
<totfact> 0.45245249E-01</totfact>
</mgrwt>
</event>
<event>
12    3  0.4773567E-008  0.3157448E+04  0.7818608E-02  0.8200146E-01
         -1   -1    0    0    0  501 -0.00000000000E+00  0.00000000000E+00  0.17376078307E+04  0.17376078307E+04  0.00000000000E+00 0.  1.
          1   -1    0    0  501    0  0.00000000000E+00 -0.00000000000E+00 -0.14343683126E+04  0.14343683126E+04  0.00000000000E+00 0. -1.
         23    2    1    2    0    0 -0.75090471738E+03 -0.20078467681E+03 -0.10883043176E+04  0.13404882158E+04  0.91268767508E+02 0.  0.
        254    2    1    2    0    0  0.75090471738E+03  0.20078467681E+03  0.13915438357E+04  0.18314879275E+04  0.90209833225E+03 0.  0.
         23    2    4    4    0    0 -0.22775902511E+02 -0.95208411685E+02  0.79562305933E+03  0.80690927064E+03  0.92212445569E+02 0.  0.
         23    2    4    4    0    0  0.77368061989E+03  0.29599308849E+03  0.59592077633E+03  0.10245786569E+04  0.91903440820E+02 0.  0.
          2    1    3    3  502    0 -0.41083983526E+03 -0.14358131662E+03 -0.66074725665E+03  0.79119650018E+03  0.00000000000E+00 0. -1.
         -2    1    3    3    0  502 -0.34006488212E+03 -0.57203360189E+02 -0.42755706096E+03  0.54929171561E+03  0.00000000000E+00 0.  1.
         13    1    5    5    0    0 -0.54785690723E+02 -0.84376699657E+02  0.58244807490E+03  0.59107246536E+03  0.00000000000E+00 0. -1.
        -13    1    5    5    0    0  0.32009788212E+02 -0.10831712029E+02  0.21317498443E+03  0.21583680528E+03  0.00000000000E+00 0.  1.
          1    1    6    6  503    0  0.65087079995E+03  0.28068715756E+03  0.52362333046E+03  0.88124881324E+03  0.00000000000E+00 0. -1.
         -1    1    6    6    0  503  0.12280981994E+03  0.15305930933E+02  0.72297445873E+02  0.14332984363E+03  0.00000000000E+00 0.  1.
<mgrwt>
<rscale>  0 0.31574481E+04</rscale>
<asrwt>0</asrwt>
<pdfrwt beam="1">  1        1 0.22067205E+00 0.31574481E+04</pdfrwt>
<pdfrwt beam="2">  1       -1 0.26732428E+00 0.31574481E+04</pdfrwt>
<totfact> 0.32818053E-01</totfact>
</mgrwt>
</event>
<event>
12    3  0.4773567E-008  0.1116076E+04  0.7818608E-02  0.9189663E-01
          2   -1    0    0  501    0  0.00000000000E+00  0.00000000000E+00  0.91628392694E+03  0.91628392694E+03  0.00000000000E+00 0. -1.
         -2   -1    0    0    0  501 -0.00000000000E+00 -0.00000000000E+00 -0.33985807467E+03  0.33985807467E+03  0.00000000000E+00 0.  1.
         23    2    1    2    0    0  0.32227091590E+02 -0.26717556051E+03  0.71906233096E+02  0.29276881059E+03  0.90120500070E+02 0.  0.
        254    2    1    2    0    0 -0.32227091590E+02  0.26717556051E+03  0.50451961918E+03  0.96337319101E+03  0.77532347666E+03 0.  0.
         23    2    4    4    0    0  0.28356303812E+03  0.23942044024E+03  0.28790783118E+02  0.38330513505E+03  0.91453668968E+02 0.  0.
         23    2    4    4    0    0 -0.31579012971E+03  0.27755120272E+02  0.47572883606E+03  0.58006805596E+03  0.98322283136E+02 0.  0.
          4    1    3    3  502    0 -0.17345806878E+02 -0.47176737263E+02 -0.12802653675E+02  0.51869350257E+02  0.00000000000E+00 0. -1.
         -4    1    3    3    0  502  0.49572898468E+02 -0.21999882325E+03  0.84708886772E+02  0.24089946034E+03  0.00000000000E+00 0.  1.
         13    1    5    5    0    0  0.25816502503E+03  0.24405796209E+03  0.19269697394E+02  0.35578756337E+03  0.00000000000E+00 0. -1.
        -13    1    5    5    0    0  0.25398013091E+02 -0.46375218499E+01  0.95210857235E+01  0.27517571681E+02  0.00000000000E+00 0.  1.
          3    1    6    6  503    0 -0.47722336909E+02  0.71173868307E+01  0.15078112880E+03  0.15831306781E+03  0.00000000000E+00 0. -1.
         -3    1    6    6    0  503 -0.26806779281E+03  0.20637733441E+02  0.32494770726E+03  0.42175498815E+03  0.00000000000E+00 0.  1.
<mgrwt>
<rscale>  0 0.11160761E+04</rscale>
<asrwt>0</asrwt>
<pdfrwt beam="1">  1        2 0.14096676E+00 0.11160761E+04</pdfrwt>
<pdfrwt beam="2">  1       -2 0.52285858E-01 0.11160761E+04</pdfrwt>
<totfact> 0.97905226E+01</totfact>
</mgrwt>
</event>
<event>
12    3  0.4773567E-008  0.1111389E+04  0.7818608E-02  0.9194162E-01
          2   -1    0    0  501    0  0.00000000000E+00  0.00000000000E+00  0.58320682120E+03  0.58320682120E+03  0.00000000000E+00 0.  1.
         -2   -1    0    0    0  501 -0.00000000000E+00 -0.00000000000E+00 -0.52948040201E+03  0.52948040201E+03  0.00000000000E+00 0. -1.
         23    2    1    2    0    0 -0.18477277403E+02  0.34121930444E+02 -0.16042502757E+03  0.18899768859E+03  0.92077255092E+02 0.  0.
        254    2    1    2    0    0  0.18477277403E+02 -0.34121930444E+02  0.21415144676E+03  0.92368953463E+03  0.89768357360E+03 0.  0.
         23    2    4    4    0    0  0.35774841800E+03  0.23845674753E+02  0.38020728840E+03  0.53055706442E+03  0.91545997525E+02 0.  0.
         23    2    4    4    0    0 -0.33927114059E+03 -0.57967605197E+02 -0.16605584165E+03  0.39313247021E+03  0.92268339621E+02 0.  0.
          4    1    3    3  502    0  0.18457324493E+02  0.44997656393E+02 -0.13331157726E+03  0.14190644291E+03  0.00000000000E+00 0. -1.
         -4    1    3    3    0  502 -0.36934601897E+02 -0.10875725948E+02 -0.27113450311E+02  0.47091245683E+02  0.00000000000E+00 0.  1.
         13    1    5    5    0    0  0.95069463822E+02  0.28474219762E+02  0.15742512762E+03  0.18609582195E+03  0.00000000000E+00 0. -1.
        -13    1    5    5    0    0  0.26267895418E+03 -0.46285450096E+01  0.22278216079E+03  0.34446124246E+03  0.00000000000E+00 0.  1.
          3    1    6    6  503    0  0.54831995542E+01  0.16330920188E+00 -0.73627367955E+01  0.91816142571E+01  0.00000000000E+00 0. -1.
         -3    1    6    6    0  503 -0.34475434015E+03 -0.58130914399E+02 -0.15869310485E+03  0.38395085595E+03  0.00000000000E+00 0.  1.
<mgrwt>
<rscale>  0 0.11113894E+04</rscale>
<asrwt>0</asrwt>
<pdfrwt beam="1">  1        2 0.89724127E-01 0.11113894E+04</pdfrwt>
<pdfrwt beam="2">  1       -2 0.81458523E-01 0.11113894E+04</pdfrwt>
<totfact> 0.67624070E+01</totfact>
</mgrwt>
</event>
<event>
12    3  0.4773567E-008  0.1559325E+04  0.7818608E-02  0.8845934E-01
         -1   -1    0    0    0  501 -0.00000000000E+00  0.00000000000E+00  0.53941408339E+03  0.53941408339E+03  0.00000000000E+00 0.  1.
          1   -1    0    0  501    0  0.00000000000E+00 -0.00000000000E+00 -0.11269142149E+04  0.11269142149E+04  0.00000000000E+00 0. -1.
         23    2    1    2    0    0 -0.37016909711E+02  0.44689445751E+03  0.76519038292E+02  0.46409362491E+03  0.91884828500E+02 0.  0.
        254    2    1    2    0    0  0.37016909711E+02 -0.44689445751E+03 -0.66401916982E+03  0.12022346734E+04  0.89630454883E+03 0.  0.
         23    2    4    4    0    0 -0.93958829936E+02 -0.48117578376E+03  0.18718868943E+02  0.50033515755E+03  0.98114612671E+02 0.  0.
         23    2    4    4    0    0  0.13097573965E+03  0.34281326257E+02 -0.68273803877E+03  0.70189951585E+03  0.90564049483E+02 0.  0.
          3    1    3    3  502    0  0.53205077155E+01  0.58837210430E+02 -0.19292188156E+02  0.62147515295E+02  0.00000000000E+00 0. -1.
         -3    1    3    3    0  502 -0.42337417426E+02  0.38805724708E+03  0.95811226448E+02  0.40194610962E+03  0.00000000000E+00 0.  1.
         13    1    5    5    0    0  0.15181295717E+02 -0.11883392092E+03 -0.13429419600E+02  0.12055008010E+03  0.00000000000E+00 0.  1.
        -13    1    5    5    0    0 -0.10914012565E+03 -0.36234186285E+03  0.32148288543E+02  0.37978507745E+03  0.00000000000E+00 0. -1.
          2    1    6    6  503    0  0.91211209214E+02  0.36129896958E+02 -0.27045366563E+03  0.28769782653E+03  0.00000000000E+00 0. -1.
         -2    1    6    6    0  503  0.39764530433E+02 -0.18485707004E+01 -0.41228437314E+03  0.41420168931E+03  0.00000000000E+00 0.  1.
<mgrwt>
<rscale>  0 0.15593247E+04</rscale>
<asrwt>0</asrwt>
<pdfrwt beam="1">  1        1 0.17337142E+00 0.15593247E+04</pdfrwt>
<pdfrwt beam="2">  1       -1 0.82986782E-01 0.15593247E+04</pdfrwt>
<totfact> 0.16803105E+01</totfact>
</mgrwt>
</event>
<event>
12    3  0.4773567E-008  0.1519320E+04  0.7818608E-02  0.8871706E-01
         -1   -1    0    0    0  501 -0.00000000000E+00  0.00000000000E+00  0.23787671351E+03  0.23787671351E+03  0.00000000000E+00 0.  1.
          1   -1    0    0  501    0  0.00000000000E+00 -0.00000000000E+00 -0.24259778121E+04  0.24259778121E+04  0.00000000000E+00 0. -1.
         23    2    1    2    0    0  0.77634647023E+02  0.27701686398E+03 -0.46135866695E+02  0.31412447508E+03  0.11738903826E+03 0.  0.
        254    2    1    2    0    0 -0.77634647023E+02 -0.27701686398E+03 -0.21419652318E+04  0.23497300505E+04  0.92219888003E+03 0.  0.
         23    2    4    4    0    0 -0.49097708400E+03 -0.20218922930E+03 -0.11900164762E+04  0.13060786669E+04  0.88109529637E+02 0.  0.
         23    2    4    4    0    0  0.41334243698E+03 -0.74827634673E+02 -0.95194875569E+03  0.10436513836E+04  0.80935973518E+02 0.  0.
          4    1    3    3  502    0  0.26423359100E+02  0.57641103762E+02  0.37684528318E+02  0.73761876492E+02  0.00000000000E+00 0. -1.
         -4    1    3    3    0  502  0.51211287923E+02  0.21937576022E+03 -0.83820395014E+02  0.24036259859E+03  0.00000000000E+00 0.  1.
         13    1    5    5    0    0 -0.19401506750E+03 -0.11239732173E+03 -0.57683798570E+03  0.61888372583E+03  0.00000000000E+00 0. -1.
        -13    1    5    5    0    0 -0.29696201650E+03 -0.89791907576E+02 -0.61317849045E+03  0.68719494109E+03  0.00000000000E+00 0.  1.
          3    1    6    6  503    0  0.13154702117E+03  0.13753388930E+02 -0.28250020365E+03  0.31192970289E+03  0.00000000000E+00 0. -1.
         -3    1    6    6    0  503  0.28179541581E+03 -0.88581023603E+02 -0.66944855205E+03  0.73172168066E+03  0.00000000000E+00 0.  1.
<mgrwt>
<rscale>  0 0.15193204E+04</rscale>
<asrwt>0</asrwt>
<pdfrwt beam="1">  1        1 0.37322736E+00 0.15193204E+04</pdfrwt>
<pdfrwt beam="2">  1       -1 0.36596417E-01 0.15193204E+04</pdfrwt>
<totfact> 0.10565783E+01</totfact>
</mgrwt>
</event>
<event>
12    3  0.4773567E-008  0.2438556E+04  0.7818608E-02  0.8425208E-01
          2   -1    0    0  501    0  0.00000000000E+00  0.00000000000E+00  0.16962673019E+04  0.16962673019E+04  0.00000000000E+00 0. -1.
         -2   -1    0    0    0  501 -0.00000000000E+00 -0.00000000000E+00 -0.87641776263E+03  0.87641776263E+03  0.00000000000E+00 0.  1.
         23    2    1    2    0    0  0.31827104110E+03  0.84283076061E+03  0.92646593878E+03  0.12955031170E+04  0.91263595048E+02 0.  0.
        254    2    1    2    0    0 -0.31827104110E+03 -0.84283076061E+03 -0.10661639948E+03  0.12771819476E+04  0.89898082514E+03 0.  0.
         23    2    4    4    0    0  0.17208872963E+03 -0.43452356268E+03  0.25187087970E+03  0.53962430451E+03  0.96592922047E+02 0.  0.
         23    2    4    4    0    0 -0.49035977073E+03 -0.40830719792E+03 -0.35848727917E+03  0.73755764307E+03  0.91162903055E+02 0.  0.
          4    1    3    3  502    0  0.30158435576E+03  0.82868162715E+03  0.91507364846E+03  0.12708367893E+04  0.00000000000E+00 0. -1.
         -4    1    3    3    0  502  0.16686685337E+02  0.14149133455E+02  0.11392290317E+02  0.24666327731E+02  0.00000000000E+00 0.  1.
         13    1    5    5    0    0  0.12908927562E+02 -0.19891182816E+02 -0.80239563955E+01  0.25033646176E+02  0.00000000000E+00 0. -1.
        -13    1    5    5    0    0  0.15917980207E+03 -0.41463237986E+03  0.25989483609E+03  0.51459065834E+03  0.00000000000E+00 0.  1.
          3    1    6    6  503    0 -0.11961352065E+03 -0.11964412953E+03 -0.53731257390E+02  0.17750819720E+03  0.00000000000E+00 0. -1.
         -3    1    6    6    0  503 -0.37074625008E+03 -0.28866306840E+03 -0.30475602178E+03  0.56004944587E+03  0.00000000000E+00 0.  1.
<mgrwt>
<rscale>  0 0.24385560E+04</rscale>
<asrwt>0</asrwt>
<pdfrwt beam="1">  1        2 0.26096420E+00 0.24385560E+04</pdfrwt>
<pdfrwt beam="2">  1       -2 0.13483350E+00 0.24385560E+04</pdfrwt>
<totfact> 0.34962692E+00</totfact>
</mgrwt>
</event>
<event>
12    3  0.4773567E-008  0.2174016E+04  0.7818608E-02  0.8529322E-01
         -1   -1    0    0    0  501 -0.00000000000E+00  0.00000000000E+00  0.51040257038E+03  0.51040257038E+03  0.00000000000E+00 0.  1.
          1   -1    0    0  501    0  0.00000000000E+00 -0.00000000000E+00 -0.23150088756E+04  0.23150088756E+04  0.00000000000E+00 0. -1.
         23    2    1    2    0    0 -0.44362685318E+03 -0.78368530893E+03 -0.52192017413E+03  0.10448932926E+04  0.91836138703E+02 0.  0.
        254    2    1    2    0    0  0.44362685318E+03  0.78368530893E+03 -0.12826861311E+04  0.17805181534E+04  0.84498150007E+03 0.  0.
         23    2    4    4    0    0  0.30582226860E+03  0.30450864083E+03 -0.11849642038E+04  0.12646987974E+04  0.95237133627E+02 0.  0.
         23    2    4    4    0    0  0.13780458457E+03  0.47917666810E+03 -0.97721927267E+02  0.51581935598E+03  0.88992416219E+02 0.  0.
          2    1    3    3  502    0 -0.40939529184E+03 -0.75706897784E+03 -0.50770594173E+03  0.99926135993E+03  0.00000000000E+00 0. -1.
         -2    1    3    3    0  502 -0.34231561337E+02 -0.26616331095E+02 -0.14214232404E+02  0.45631932628E+02  0.00000000000E+00 0.  1.
         13    1    5    5    0    0  0.21732531956E+03  0.15056927204E+03 -0.70987751501E+03  0.75751401738E+03  0.00000000000E+00 0. -1.
        -13    1    5    5    0    0  0.88496949039E+02  0.15393936879E+03 -0.47508668877E+03  0.50718478004E+03  0.00000000000E+00 0.  1.
          3    1    6    6  503    0  0.37652626265E+02  0.39922391884E+02 -0.29441328437E+00  0.54878085951E+02  0.00000000000E+00 0. -1.
         -3    1    6    6    0  503  0.10015195831E+03  0.43925427622E+03 -0.97427513983E+02  0.46094127002E+03  0.00000000000E+00 0.  1.
<mgrwt>
<rscale>  0 0.21740161E+04</rscale>
<asrwt>0</asrwt>
<pdfrwt beam="1">  1        1 0.35615521E+00 0.21740161E+04</pdfrwt>
<pdfrwt beam="2">  1       -1 0.78523472E-01 0.21740161E+04</pdfrwt>
<totfact> 0.26953263E+00</totfact>
</mgrwt>
</event>
<event>
12    3  0.4773567E-008  0.1887062E+04  0.7818608E-02  0.8661323E-01
          2   -1    0    0  501    0  0.00000000000E+00  0.00000000000E+00  0.44671655006E+03  0.44671655006E+03  0.00000000000E+00 0. -1.
         -2   -1    0    0    0  501 -0.00000000000E+00 -0.00000000000E+00 -0.19928755892E+04  0.19928755892E+04  0.00000000000E+00 0.  1.
         23    2    1    2    0    0 -0.50244099675E+03 -0.81323096908E+01 -0.12910069802E+04  0.13884525624E+04  0.92673649164E+02 0.  0.
        254    2    1    2    0    0  0.50244099675E+03  0.81323096908E+01 -0.25515205892E+03  0.10511395769E+04  0.88728729694E+03 0.  0.
         23    2    4    4    0    0  0.54979847796E+03 -0.20468269210E+03  0.12181845435E+03  0.60616450810E+03  0.91773112873E+02 0.  0.
         23    2    4    4    0    0 -0.47357481216E+02  0.21281500179E+03 -0.37697051327E+03  0.44497506882E+03  0.91449920608E+02 0.  0.
          4    1    3    3  502    0 -0.88792104431E+02 -0.25908725177E+02 -0.17176549244E+03  0.19508635074E+03  0.00000000000E+00 0. -1.
         -4    1    3    3    0  502 -0.41364889232E+03  0.17776415486E+02 -0.11192414878E+04  0.11933662116E+04  0.00000000000E+00 0.  1.
         13    1    5    5    0    0  0.10164715807E+03 -0.21529717049E+02 -0.10068352801E+02  0.10438891315E+03  0.00000000000E+00 0.  1.
        -13    1    5    5    0    0  0.44815131989E+03 -0.18315297505E+03  0.13188680715E+03  0.50177559495E+03  0.00000000000E+00 0. -1.
          3    1    6    6  503    0  0.26259933434E+02  0.74727992988E+02 -0.14358711731E+03  0.16398511304E+03  0.00000000000E+00 0. -1.
         -3    1    6    6    0  503 -0.73617414650E+02  0.13808700880E+03 -0.23338339596E+03  0.28098995578E+03  0.00000000000E+00 0.  1.
<mgrwt>
<rscale>  0 0.18870617E+04</rscale>
<asrwt>0</asrwt>
<pdfrwt beam="1">  1        2 0.68725625E-01 0.18870617E+04</pdfrwt>
<pdfrwt beam="2">  1       -2 0.30659624E+00 0.18870617E+04</pdfrwt>
<totfact> 0.19070570E+00</totfact>
</mgrwt>
</event>
<event>
12    3  0.4773567E-008  0.4567373E+04  0.7818608E-02  0.7898947E-01
         -2   -1    0    0    0  501 -0.00000000000E+00  0.00000000000E+00  0.20266653467E+04  0.20266653467E+04  0.00000000000E+00 0.  1.
          2   -1    0    0  501    0  0.00000000000E+00 -0.00000000000E+00 -0.25733033334E+04  0.25733033334E+04  0.00000000000E+00 0. -1.
         23    2    1    2    0    0  0.20014791588E+04  0.60639420121E+03  0.38401063669E+03  0.21282632222E+04  0.91692005434E+02 0.  0.
        254    2    1    2    0    0 -0.20014791588E+04 -0.60639420121E+03 -0.93064862340E+03  0.24717054579E+04  0.93251716336E+03 0.  0.
         23    2    4    4    0    0 -0.18310450840E+04 -0.25389189319E+03 -0.58388698714E+03  0.19407517948E+04  0.91685997653E+02 0.  0.
         23    2    4    4    0    0 -0.17043407480E+03 -0.35250230803E+03 -0.34676163626E+03  0.53095366311E+03  0.91446754839E+02 0.  0.
          1    1    3    3  502    0  0.46688264743E+03  0.17516637493E+03  0.11394561872E+03  0.51151370402E+03  0.00000000000E+00 0. -1.
         -1    1    3    3    0  502  0.15345965113E+04  0.43122782629E+03  0.27006501797E+03  0.16167495182E+04  0.00000000000E+00 0.  1.
         13    1    5    5    0    0 -0.17274693219E+04 -0.25778809086E+03 -0.53974386622E+03  0.18280941986E+04  0.00000000000E+00 0. -1.
        -13    1    5    5    0    0 -0.10357576206E+03  0.38961976704E+01 -0.44143120924E+02  0.11265759614E+03  0.00000000000E+00 0.  1.
          2    1    6    6  503    0 -0.86424271974E+02 -0.10811969798E+03 -0.81519138534E+02  0.16063746084E+03  0.00000000000E+00 0.  1.
         -2    1    6    6    0  503 -0.84009802825E+02 -0.24438261004E+03 -0.26524249772E+03  0.37031620227E+03  0.00000000000E+00 0. -1.
<mgrwt>
<rscale>  0 0.45673733E+04</rscale>
<asrwt>0</asrwt>
<pdfrwt beam="1">  1        2 0.39589282E+00 0.45673733E+04</pdfrwt>
<pdfrwt beam="2">  1       -2 0.31179467E+00 0.45673733E+04</pdfrwt>
<totfact> 0.63961554E-02</totfact>
</mgrwt>
</event>
<event>
12    3  0.4773567E-008  0.1074954E+04  0.7818608E-02  0.9229953E-01
         -1   -1    0    0    0  501 -0.00000000000E+00  0.00000000000E+00  0.41881273831E+03  0.41881273831E+03  0.00000000000E+00 0.  1.
          1   -1    0    0  501    0  0.00000000000E+00 -0.00000000000E+00 -0.68976274473E+03  0.68976274473E+03  0.00000000000E+00 0. -1.
         23    2    1    2    0    0 -0.40997290971E+02  0.78617611067E+02  0.58857052230E+02  0.14098989630E+03  0.92479682227E+02 0.  0.
        254    2    1    2    0    0  0.40997290971E+02 -0.78617611067E+02 -0.32980705864E+03  0.96758558674E+03  0.90531081132E+03 0.  0.
         23    2    4    4    0    0 -0.16720570221E+03  0.35367052834E+03 -0.48851864812E+02  0.40466683697E+03  0.91258724438E+02 0.  0.
         23    2    4    4    0    0  0.20820299318E+03 -0.43228813940E+03 -0.28095519383E+03  0.56291874977E+03  0.87864532443E+02 0.  0.
          3    1    3    3  502    0  0.23978354239E+02  0.21189256586E+02 -0.61844857875E+01  0.32591316806E+02  0.00000000000E+00 0. -1.
         -3    1    3    3    0  502 -0.64975645210E+02  0.57428354480E+02  0.65041538018E+02  0.10839857949E+03  0.00000000000E+00 0.  1.
         13    1    5    5    0    0 -0.15567715891E+03  0.35494436410E+03 -0.55119314781E+02  0.39148310088E+03  0.00000000000E+00 0.  1.
        -13    1    5    5    0    0 -0.11528543303E+02 -0.12738357675E+01  0.62674499682E+01  0.13183736092E+02  0.00000000000E+00 0. -1.
          3    1    6    6  503    0  0.21184164568E+02 -0.55982782728E+01 -0.13174903254E+02  0.25567315538E+02  0.00000000000E+00 0. -1.
         -3    1    6    6    0  503  0.18701882861E+03 -0.42668986113E+03 -0.26778029058E+03  0.53735143423E+03  0.00000000000E+00 0.  1.
<mgrwt>
<rscale>  0 0.10749538E+04</rscale>
<asrwt>0</asrwt>
<pdfrwt beam="1">  1        1 0.10611734E+00 0.10749538E+04</pdfrwt>
<pdfrwt beam="2">  1       -1 0.64432730E-01 0.10749538E+04</pdfrwt>
<totfact> 0.67937658E+01</totfact>
</mgrwt>
</event>
<event>
12    3  0.4773567E-008  0.1306749E+04  0.7818608E-02  0.9024230E-01
         -1   -1    0    0    0  501 -0.00000000000E+00  0.00000000000E+00  0.15904644113E+03  0.15904644113E+03  0.00000000000E+00 0.  1.
          1   -1    0    0  501    0  0.00000000000E+00 -0.00000000000E+00 -0.26841100527E+04  0.26841100527E+04  0.00000000000E+00 0. -1.
         23    2    1    2    0    0  0.22453986988E+03 -0.17101829094E+03 -0.28830521646E+03  0.41369244849E+03  0.91411898010E+02 0.  0.
        254    2    1    2    0    0 -0.22453986988E+03  0.17101829094E+03 -0.22367583951E+04  0.24294640454E+04  0.90528560161E+03 0.  0.
         23    2    4    4    0    0 -0.16341582924E+03  0.28622829149E+03 -0.22446336705E+04  0.22705406630E+04  0.91341224519E+02 0.  0.
         23    2    4    4    0    0 -0.61124040638E+02 -0.11521000055E+03  0.78752753900E+01  0.15892338238E+03  0.90471702389E+02 0.  0.
          1    1    3    3  502    0 -0.55296771330E+01  0.46339474563E+01 -0.75961062493E+01  0.10476241138E+02  0.00000000000E+00 0. -1.
         -1    1    3    3    0  502  0.23006954702E+03 -0.17565223839E+03 -0.28070911021E+03  0.40321620736E+03  0.00000000000E+00 0.  1.
         13    1    5    5    0    0 -0.20207750363E+02  0.12264676676E+03 -0.77097977700E+03  0.78093559217E+03  0.00000000000E+00 0. -1.
        -13    1    5    5    0    0 -0.14320807888E+03  0.16358152473E+03 -0.14736538935E+04  0.14896050708E+04  0.00000000000E+00 0.  1.
          3    1    6    6  503    0 -0.58955831357E+02 -0.24863421897E+02 -0.14961267048E+02  0.65710115744E+02  0.00000000000E+00 0. -1.
         -3    1    6    6    0  503 -0.21682092808E+01 -0.90346578655E+02  0.22836542439E+02  0.93213266635E+02  0.00000000000E+00 0.  1.
<mgrwt>
<rscale>  0 0.13067489E+04</rscale>
<asrwt>0</asrwt>
<pdfrwt beam="1">  1        1 0.41293999E+00 0.13067489E+04</pdfrwt>
<pdfrwt beam="2">  1       -1 0.24468684E-01 0.13067489E+04</pdfrwt>
<totfact> 0.14463471E+01</totfact>
</mgrwt>
</event>
<event>
12    3  0.4773567E-008  0.3371482E+04  0.7818608E-02  0.8144941E-01
         -2   -1    0    0    0  501 -0.00000000000E+00  0.00000000000E+00  0.11738121775E+04  0.11738121775E+04  0.00000000000E+00 0. -1.
          2   -1    0    0  501    0  0.00000000000E+00 -0.00000000000E+00 -0.24209345444E+04  0.24209345444E+04  0.00000000000E+00 0.  1.
         23    2    1    2    0    0  0.98275461511E+03  0.74241001536E+03 -0.16118130492E+04  0.20307022386E+04  0.93973464785E+02 0.  0.
        254    2    1    2    0    0 -0.98275461511E+03 -0.74241001536E+03  0.36469068226E+03  0.15640444832E+04  0.89233210596E+03 0.  0.
         23    2    4    4    0    0 -0.68065468162E+03 -0.81660356246E+03 -0.11884734705E+02  0.10670136736E+04  0.90800654349E+02 0.  0.
         23    2    4    4    0    0 -0.30209993349E+03  0.74193547099E+02  0.37657541697E+03  0.49703080965E+03  0.91986568756E+02 0.  0.
          3    1    3    3  502    0  0.68820128294E+03  0.49158961991E+03 -0.10433024900E+04  0.13430418630E+04  0.00000000000E+00 0. -1.
         -3    1    3    3    0  502  0.29455333217E+03  0.25082039545E+03 -0.56851055920E+03  0.68766037561E+03  0.00000000000E+00 0.  1.
         13    1    5    5    0    0 -0.13523597750E+03 -0.18017295599E+03  0.32801183014E+02  0.22765540030E+03  0.00000000000E+00 0. -1.
        -13    1    5    5    0    0 -0.54541870412E+03 -0.63643060647E+03 -0.44685917719E+02  0.83935827327E+03  0.00000000000E+00 0.  1.
          4    1    6    6  503    0 -0.25776577512E+03  0.52992892415E+02  0.25735904010E+03  0.36808303002E+03  0.00000000000E+00 0. -1.
         -4    1    6    6    0  503 -0.44334158373E+02  0.21200654684E+02  0.11921637687E+03  0.12894777963E+03  0.00000000000E+00 0.  1.
<mgrwt>
<rscale>  0 0.33714818E+04</rscale>
<asrwt>0</asrwt>
<pdfrwt beam="1">  1        2 0.37245147E+00 0.33714818E+04</pdfrwt>
<pdfrwt beam="2">  1       -2 0.18058649E+00 0.33714818E+04</pdfrwt>
<totfact> 0.57678175E-01</totfact>
</mgrwt>
</event>
<event>
12    3  0.4773567E-008  0.1955224E+04  0.7818608E-02  0.8627846E-01
         -2   -1    0    0    0  501 -0.00000000000E+00  0.00000000000E+00  0.24882271325E+04  0.24882271325E+04  0.00000000000E+00 0.  1.
          2   -1    0    0  501    0  0.00000000000E+00 -0.00000000000E+00 -0.38409896667E+03  0.38409896667E+03  0.00000000000E+00 0. -1.
         23    2    1    2    0    0  0.24851209744E+03 -0.47980802881E+03  0.69802278067E+02  0.55401853033E+03  0.10044982255E+03 0.  0.
        254    2    1    2    0    0 -0.24851209744E+03  0.47980802881E+03  0.20343258877E+04  0.23183075688E+04  0.97164507874E+03 0.  0.
         23    2    4    4    0    0  0.27381273847E+03  0.20749970682E+03  0.14145697904E+04  0.14584679666E+04  0.89953173585E+02 0.  0.
         23    2    4    4    0    0 -0.52232483591E+03  0.27230832198E+03  0.61975609729E+03  0.85983960223E+03  0.90837574854E+02 0.  0.
          2    1    3    3  502    0  0.21402723653E+03 -0.46158444011E+03  0.52979920879E+02  0.51154151870E+03  0.00000000000E+00 0. -1.
         -2    1    3    3    0  502  0.34484860904E+02 -0.18223588693E+02  0.16822357188E+02  0.42477011639E+02  0.00000000000E+00 0.  1.
         13    1    5    5    0    0  0.26571463824E+02  0.39128014092E+02  0.33122453618E+03  0.33458442513E+03  0.00000000000E+00 0.  1.
        -13    1    5    5    0    0  0.24724127465E+03  0.16837169273E+03  0.10833452543E+04  0.11238835415E+04  0.00000000000E+00 0. -1.
          3    1    6    6  503    0 -0.48619161446E+03  0.23699662414E+03  0.59318251050E+03  0.80275474249E+03  0.00000000000E+00 0. -1.
         -3    1    6    6    0  503 -0.36133221452E+02  0.35311697841E+02  0.26573586791E+02  0.57084859742E+02  0.00000000000E+00 0.  1.
<mgrwt>
<rscale>  0 0.19552243E+04</rscale>
<asrwt>0</asrwt>
<pdfrwt beam="1">  1        2 0.59092150E-01 0.19552243E+04</pdfrwt>
<pdfrwt beam="2">  1       -2 0.38280416E+00 0.19552243E+04</pdfrwt>
<totfact> 0.74778123E-01</totfact>
</mgrwt>
</event>
<event>
12    3  0.4773567E-008  0.1503625E+04  0.7818608E-02  0.8882046E-01
         -1   -1    0    0    0  501 -0.00000000000E+00  0.00000000000E+00  0.22983862433E+04  0.22983862433E+04  0.00000000000E+00 0.  1.
          1   -1    0    0  501    0  0.00000000000E+00 -0.00000000000E+00 -0.24592136170E+03  0.24592136170E+03  0.00000000000E+00 0. -1.
         23    2    1    2    0    0 -0.30136651053E+03  0.21573688950E+03  0.11780424541E+04  0.12386584309E+04  0.95532746894E+02 0.  0.
        254    2    1    2    0    0  0.30136651053E+03 -0.21573688950E+03  0.87442242751E+03  0.13056491741E+04  0.89595814904E+03 0.  0.
         23    2    4    4    0    0  0.19994851108E+03  0.63448662266E+02  0.95734876237E+03  0.98423369943E+03  0.90521723621E+02 0.  0.
         23    2    4    4    0    0  0.10141799945E+03 -0.27918555177E+03 -0.82926334868E+02  0.32141547463E+03  0.90559082293E+02 0.  0.
          3    1    3    3  502    0 -0.79631849262E+01  0.35989829115E+02  0.15417144943E+03  0.15851661091E+03  0.00000000000E+00 0. -1.
         -3    1    3    3    0  502 -0.29340332560E+03  0.17974706039E+03  0.10238710047E+04  0.10801418200E+04  0.00000000000E+00 0.  1.
         13    1    5    5    0    0  0.34823887674E+02 -0.21174058559E+02  0.12585949275E+03  0.13229382383E+03  0.00000000000E+00 0. -1.
        -13    1    5    5    0    0  0.16512462340E+03  0.84622720825E+02  0.83148926963E+03  0.85193987560E+03  0.00000000000E+00 0.  1.
          1    1    6    6  503    0 -0.46494524723E+01 -0.79663809646E+02 -0.47007504328E+02  0.92615578813E+02  0.00000000000E+00 0. -1.
         -1    1    6    6    0  503  0.10606745192E+03 -0.19952174212E+03 -0.35918830540E+02  0.22879989581E+03  0.00000000000E+00 0.  1.
<mgrwt>
<rscale>  0 0.15036253E+04</rscale>
<asrwt>0</asrwt>
<pdfrwt beam="1">  1        1 0.37834057E-01 0.15036253E+04</pdfrwt>
<pdfrwt beam="2">  1       -1 0.35359787E+00 0.15036253E+04</pdfrwt>
<totfact> 0.16243374E+00</totfact>
</mgrwt>
</event>
<event>
12    3  0.4773567E-008  0.2677054E+04  0.7818608E-02  0.8342489E-01
          1   -1    0    0  501    0  0.00000000000E+00  0.00000000000E+00  0.15335718889E+04  0.15335718889E+04  0.00000000000E+00 0. -1.
         -1   -1    0    0    0  501 -0.00000000000E+00 -0.00000000000E+00 -0.11682887699E+04  0.11682887699E+04  0.00000000000E+00 0.  1.
         23    2    1    2    0    0  0.58772081221E+02 -0.97425998809E+03 -0.51837149911E+03  0.11089972365E+04  0.92353546149E+02 0.  0.
        254    2    1    2    0    0 -0.58772081221E+02  0.97425998809E+03  0.88365461804E+03  0.15928634223E+04  0.89651085678E+03 0.  0.
         23    2    4    4    0    0 -0.12182070493E+03  0.75318539326E+03  0.10433452168E+03  0.77538812117E+03  0.90622984209E+02 0.  0.
         23    2    4    4    0    0  0.63048623707E+02  0.22107459482E+03  0.77932009636E+03  0.81747530117E+03  0.89871853218E+02 0.  0.
          1    1    3    3  502    0  0.11171516383E+02 -0.32113624695E+03 -0.21962661598E+03  0.38921606124E+03  0.00000000000E+00 0. -1.
         -1    1    3    3    0  502  0.47600564838E+02 -0.65312374114E+03 -0.29874488312E+03  0.71978117522E+03  0.00000000000E+00 0.  1.
         13    1    5    5    0    0 -0.10253999090E+03  0.72979168466E+03  0.10807645026E+03  0.74484285043E+03  0.00000000000E+00 0. -1.
        -13    1    5    5    0    0 -0.19280714024E+02  0.23393708605E+02 -0.37419285729E+01  0.30545270747E+02  0.00000000000E+00 0.  1.
          2    1    6    6  503    0  0.15362728966E+02  0.86468765607E+02  0.45056905595E+03  0.45904829271E+03  0.00000000000E+00 0. -1.
         -2    1    6    6    0  503  0.47685894741E+02  0.13460582922E+03  0.32875104041E+03  0.35842700845E+03  0.00000000000E+00 0.  1.
<mgrwt>
<rscale>  0 0.26770542E+04</rscale>
<asrwt>0</asrwt>
<pdfrwt beam="1">  1        1 0.23593414E+00 0.26770542E+04</pdfrwt>
<pdfrwt beam="2">  1       -1 0.17973673E+00 0.26770542E+04</pdfrwt>
<totfact> 0.11339409E+00</totfact>
</mgrwt>
</event>
<event>
12    3  0.4773567E-008  0.2312037E+04  0.7818608E-02  0.8473190E-01
          1   -1    0    0  501    0  0.00000000000E+00  0.00000000000E+00  0.25181847836E+04  0.25181847836E+04  0.00000000000E+00 0. -1.
         -1   -1    0    0    0  501 -0.00000000000E+00 -0.00000000000E+00 -0.53069136296E+03  0.53069136296E+03  0.00000000000E+00 0.  1.
         23    2    1    2    0    0 -0.12756385196E+03  0.60443953799E+03 -0.15592364318E+03  0.64364094182E+03  0.91333389652E+02 0.  0.
        254    2    1    2    0    0  0.12756385196E+03 -0.60443953799E+03  0.21434170638E+04  0.24052352048E+04  0.89961102109E+03 0.  0.
         23    2    4    4    0    0 -0.31500289771E+03 -0.51772975308E+03  0.10075096382E+04  0.11791613058E+04  0.89859842654E+02 0.  0.
         23    2    4    4    0    0  0.44256674967E+03 -0.86709784917E+02  0.11359074257E+04  0.12260738990E+04  0.97916348486E+02 0.  0.
          1    1    3    3  502    0 -0.60255545005E+02  0.31294789251E+03 -0.33692901381E+02  0.32047203581E+03  0.00000000000E+00 0. -1.
         -1    1    3    3    0  502 -0.67308306950E+02  0.29149164548E+03 -0.12223074180E+03  0.32316890601E+03  0.00000000000E+00 0.  1.
         13    1    5    5    0    0 -0.15713120581E+03 -0.34216578049E+03  0.62468402753E+03  0.72938177344E+03  0.00000000000E+00 0. -1.
        -13    1    5    5    0    0 -0.15787169190E+03 -0.17556397259E+03  0.38282561063E+03  0.44977953236E+03  0.00000000000E+00 0.  1.
          1    1    6    6  503    0  0.22747205845E+03 -0.26562642730E+01  0.49318960280E+03  0.54312666793E+03  0.00000000000E+00 0. -1.
         -1    1    6    6    0  503  0.21509469122E+03 -0.84053520644E+02  0.64271782288E+03  0.68294723103E+03  0.00000000000E+00 0.  1.
<mgrwt>
<rscale>  0 0.23120371E+04</rscale>
<asrwt>0</asrwt>
<pdfrwt beam="1">  1        1 0.38741304E+00 0.23120371E+04</pdfrwt>
<pdfrwt beam="2">  1       -1 0.81644826E-01 0.23120371E+04</pdfrwt>
<totfact> 0.17742790E+00</totfact>
</mgrwt>
</event>
<event>
12    3  0.4773567E-008  0.1340029E+04  0.7818608E-02  0.8998410E-01
         -2   -1    0    0    0  501 -0.00000000000E+00  0.00000000000E+00  0.29431439926E+04  0.29431439926E+04  0.00000000000E+00 0.  1.
          2   -1    0    0  501    0  0.00000000000E+00 -0.00000000000E+00 -0.15253058815E+03  0.15253058815E+03  0.00000000000E+00 0. -1.
         23    2    1    2    0    0 -0.29478499738E+02 -0.18689066224E+02  0.15612290831E+04  0.15642987733E+04  0.91521248859E+02 0.  0.
        254    2    1    2    0    0  0.29478499738E+02  0.18689066224E+02  0.12293843214E+04  0.15313758075E+04  0.91241864898E+03 0.  0.
         23    2    4    4    0    0 -0.15858075239E+03  0.96707001562E+02 -0.62590821095E+02  0.22026229654E+03  0.10048765700E+03 0.  0.
         23    2    4    4    0    0  0.18805925213E+03 -0.78017935338E+02  0.12919751425E+04  0.13111135110E+04  0.91464688866E+02 0.  0.
          1    1    3    3  502    0 -0.42058650423E+02 -0.75202543693E+01  0.30720815645E+03  0.31016501365E+03  0.00000000000E+00 0. -1.
         -1    1    3    3    0  502  0.12580150686E+02 -0.11168811855E+02  0.12540209266E+04  0.12541337596E+04  0.00000000000E+00 0.  1.
         13    1    5    5    0    0 -0.57468415481E+02  0.84483729747E+02 -0.59770102306E+02  0.11837476293E+03  0.00000000000E+00 0. -1.
        -13    1    5    5    0    0 -0.10111233691E+03  0.12223271815E+02 -0.28207187889E+01  0.10188753360E+03  0.00000000000E+00 0.  1.
          3    1    6    6  503    0  0.14912730591E+03 -0.91618347607E+02  0.11509772069E+04  0.11642084890E+04  0.00000000000E+00 0. -1.
         -3    1    6    6    0  503  0.38931946215E+02  0.13600412269E+02  0.14099793556E+03  0.14690502198E+03  0.00000000000E+00 0.  1.
<mgrwt>
<rscale>  0 0.13400291E+04</rscale>
<asrwt>0</asrwt>
<pdfrwt beam="1">  1        2 0.23466247E-01 0.13400291E+04</pdfrwt>
<pdfrwt beam="2">  1       -2 0.45279134E+00 0.13400291E+04</pdfrwt>
<totfact> 0.77801748E-01</totfact>
</mgrwt>
</event>
<event>
12    3  0.4773567E-008  0.2364192E+04  0.7818608E-02  0.8453032E-01
         -2   -1    0    0    0  501 -0.00000000000E+00  0.00000000000E+00  0.82642505905E+03  0.82642505905E+03  0.00000000000E+00 0.  1.
          2   -1    0    0  501    0  0.00000000000E+00 -0.00000000000E+00 -0.16908385157E+04  0.16908385157E+04  0.00000000000E+00 0. -1.
         23    2    1    2    0    0  0.36845538696E+03 -0.68962552495E+02  0.61393518106E+03  0.72511595292E+03  0.91441417365E+02 0.  0.
        254    2    1    2    0    0 -0.36845538696E+03  0.68962552495E+02 -0.14783486377E+04  0.17921476218E+04  0.94114993384E+03 0.  0.
         23    2    4    4    0    0 -0.57664802252E+03  0.21285980128E+03 -0.13713411976E+04  0.15055954464E+04  0.91699133798E+02 0.  0.
         23    2    4    4    0    0  0.20819263556E+03 -0.14389724878E+03 -0.10700744009E+03  0.28655217540E+03  0.81307842695E+02 0.  0.
          1    1    3    3  502    0  0.96780526613E+02 -0.60264581545E+02  0.18491300263E+03  0.21723514601E+03  0.00000000000E+00 0. -1.
         -1    1    3    3    0  502  0.27167486035E+03 -0.86979709507E+01  0.42902217844E+03  0.50788080692E+03  0.00000000000E+00 0.  1.
         13    1    5    5    0    0 -0.52125079377E+03  0.21552399283E+03 -0.12794389717E+04  0.13982550067E+04  0.00000000000E+00 0.  1.
        -13    1    5    5    0    0 -0.55397228744E+02 -0.26641915496E+01 -0.91902225935E+02  0.10734043973E+03  0.00000000000E+00 0. -1.
          4    1    6    6  503    0  0.14238647823E+03 -0.65544623291E+02 -0.95590618690E+02  0.18359622329E+03  0.00000000000E+00 0. -1.
         -4    1    6    6    0  503  0.65806157328E+02 -0.78352625491E+02 -0.11416821400E+02  0.10295595211E+03  0.00000000000E+00 0.  1.
<mgrwt>
<rscale>  0 0.23641923E+04</rscale>
<asrwt>0</asrwt>
<pdfrwt beam="1">  1        2 0.26012900E+00 0.23641923E+04</pdfrwt>
<pdfrwt beam="2">  1       -2 0.12714232E+00 0.23641923E+04</pdfrwt>
<totfact> 0.41117999E+00</totfact>
</mgrwt>
</event>
<event>
12    3  0.4773567E-008  0.1157980E+04  0.7818608E-02  0.9150453E-01
          1   -1    0    0  501    0  0.00000000000E+00  0.00000000000E+00  0.96346482485E+03  0.96346482485E+03  0.00000000000E+00 0. -1.
         -1   -1    0    0    0  501 -0.00000000000E+00 -0.00000000000E+00 -0.34794130493E+03  0.34794130493E+03  0.00000000000E+00 0.  1.
         23    2    1    2    0    0  0.78881135300E+02  0.83560702532E+02 -0.73391590639E+02  0.16417548406E+03  0.91447468392E+02 0.  0.
        254    2    1    2    0    0 -0.78881135300E+02 -0.83560702532E+02  0.68891511056E+03  0.11472306457E+04  0.91012609039E+03 0.  0.
         23    2    4    4    0    0  0.50285748346E+01  0.86684980451E+02 -0.19876821984E+03  0.23481160373E+03  0.89933929217E+02 0.  0.
         23    2    4    4    0    0 -0.83909710135E+02 -0.17024568298E+03  0.88768333040E+03  0.91241904199E+03  0.92208356934E+02 0.  0.
          1    1    3    3  502    0  0.31445773094E+02 -0.16310285025E+02 -0.10364876716E+02  0.36909249686E+02  0.00000000000E+00 0. -1.
         -1    1    3    3    0  502  0.47435362206E+02  0.99870987557E+02 -0.63026713923E+02  0.12726623437E+03  0.00000000000E+00 0.  1.
         13    1    5    5    0    0 -0.38833967363E+02  0.57487892975E+02 -0.13743817137E+03  0.15395514220E+03  0.00000000000E+00 0.  1.
        -13    1    5    5    0    0  0.43862542198E+02  0.29197087476E+02 -0.61330048474E+02  0.80856461529E+02  0.00000000000E+00 0. -1.
          3    1    6    6  503    0 -0.95008989059E+02 -0.10367030816E+03  0.52485476445E+03  0.54336614226E+03  0.00000000000E+00 0. -1.
         -3    1    6    6    0  503  0.11099278925E+02 -0.66575374825E+02  0.36282856595E+03  0.36905289973E+03  0.00000000000E+00 0.  1.
<mgrwt>
<rscale>  0 0.11579796E+04</rscale>
<asrwt>0</asrwt>
<pdfrwt beam="1">  1        1 0.14822536E+00 0.11579796E+04</pdfrwt>
<pdfrwt beam="2">  1       -1 0.53529432E-01 0.11579796E+04</pdfrwt>
<totfact> 0.56507255E+01</totfact>
</mgrwt>
</event>
<event>
12    3  0.4773567E-008  0.2427193E+04  0.7818608E-02  0.8429393E-01
          2   -1    0    0  501    0  0.00000000000E+00  0.00000000000E+00  0.90411462083E+03  0.90411462083E+03  0.00000000000E+00 0.  1.
         -2   -1    0    0    0  501 -0.00000000000E+00 -0.00000000000E+00 -0.16290150714E+04  0.16290150714E+04  0.00000000000E+00 0. -1.
         23    2    1    2    0    0 -0.82017173598E+03 -0.33673166797E+03  0.23711921605E+03  0.92228373970E+03  0.91169518942E+02 0.  0.
        254    2    1    2    0    0  0.82017173598E+03  0.33673166797E+03 -0.96201966663E+03  0.16108459525E+04  0.93982602172E+03 0.  0.
         23    2    4    4    0    0  0.37261330684E+03  0.24646517216E+03 -0.10427987764E+04  0.11381278292E+04  0.91213540445E+02 0.  0.
         23    2    4    4    0    0  0.44755842914E+03  0.90266495814E+02  0.80779109776E+02  0.47271812335E+03  0.92090020148E+02 0.  0.
          3    1    3    3  502    0 -0.41847710948E+02 -0.23229891831E+02  0.34716011776E+02  0.59127491573E+02  0.00000000000E+00 0. -1.
         -3    1    3    3    0  502 -0.77832402503E+03 -0.31350177614E+03  0.20240320428E+03  0.86315624813E+03  0.00000000000E+00 0.  1.
         13    1    5    5    0    0  0.26070507017E+03  0.21471194981E+03 -0.81890725305E+03  0.88582020981E+03  0.00000000000E+00 0. -1.
        -13    1    5    5    0    0  0.11190823667E+03  0.31753222351E+02 -0.22389152335E+03  0.25230761937E+03  0.00000000000E+00 0.  1.
          2    1    6    6  503    0  0.29515501743E+03  0.43332095031E+02  0.10641274523E+02  0.29850861210E+03  0.00000000000E+00 0. -1.
         -2    1    6    6    0  503  0.15240341171E+03  0.46934400783E+02  0.70137835253E+02  0.17420951125E+03  0.00000000000E+00 0.  1.
<mgrwt>
<rscale>  0 0.24271929E+04</rscale>
<asrwt>0</asrwt>
<pdfrwt beam="1">  1        2 0.13909456E+00 0.24271929E+04</pdfrwt>
<pdfrwt beam="2">  1       -2 0.25061770E+00 0.24271929E+04</pdfrwt>
<totfact> 0.16649205E+00</totfact>
</mgrwt>
</event>
<event>
12    3  0.4773567E-008  0.2578469E+04  0.7818608E-02  0.8375552E-01
          2   -1    0    0  501    0  0.00000000000E+00  0.00000000000E+00  0.25390978846E+04  0.25390978846E+04  0.00000000000E+00 0.  1.
         -2   -1    0    0    0  501 -0.00000000000E+00 -0.00000000000E+00 -0.65461256904E+03  0.65461256904E+03  0.00000000000E+00 0. -1.
         23    2    1    2    0    0  0.94412584535E+03 -0.63321875597E+03  0.80504400122E+03  0.13959845400E+04  0.91309294341E+02 0.  0.
        254    2    1    2    0    0 -0.94412584535E+03  0.63321875597E+03  0.10794413143E+04  0.17977259137E+04  0.87993482983E+03 0.  0.
         23    2    4    4    0    0 -0.14971195302E+02 -0.17769927686E+03  0.15008203378E+03  0.25080824573E+03  0.92622835074E+02 0.  0.
         23    2    4    4    0    0 -0.92915465005E+03  0.81091803283E+03  0.92935928056E+03  0.15469176679E+04  0.91264337438E+02 0.  0.
          3    1    3    3  502    0  0.30929534448E+03 -0.21193171408E+03  0.21401194300E+03  0.43171723767E+03  0.00000000000E+00 0. -1.
         -3    1    3    3    0  502  0.63483050087E+03 -0.42128704188E+03  0.59103205822E+03  0.96426730233E+03  0.00000000000E+00 0.  1.
         13    1    5    5    0    0  0.17779316578E+02 -0.14956008116E+03  0.85702004120E+02  0.17328922496E+03  0.00000000000E+00 0. -1.
        -13    1    5    5    0    0 -0.32750511880E+02 -0.28139195700E+02  0.64380029661E+02  0.77519020777E+02  0.00000000000E+00 0.  1.
          2    1    6    6  503    0 -0.62544715675E+03  0.54562574574E+03  0.67816937193E+03  0.10718233517E+04  0.00000000000E+00 0. -1.
         -2    1    6    6    0  503 -0.30370749330E+03  0.26529228709E+03  0.25118990863E+03  0.47509431619E+03  0.00000000000E+00 0.  1.
<mgrwt>
<rscale>  0 0.25784688E+04</rscale>
<asrwt>0</asrwt>
<pdfrwt beam="1">  1        2 0.39063044E+00 0.25784688E+04</pdfrwt>
<pdfrwt beam="2">  1       -2 0.10070963E+00 0.25784688E+04</pdfrwt>
<totfact> 0.23772299E+00</totfact>
</mgrwt>
</event>
<event>
12    3  0.4773567E-008  0.1469661E+04  0.7818608E-02  0.8904883E-01
         -2   -1    0    0    0  501 -0.00000000000E+00  0.00000000000E+00  0.95715960347E+03  0.95715960347E+03  0.00000000000E+00 0.  1.
          2   -1    0    0  501    0  0.00000000000E+00 -0.00000000000E+00 -0.56414388765E+03  0.56414388765E+03  0.00000000000E+00 0. -1.
         23    2    1    2    0    0 -0.29959222014E+03 -0.67910039245E+02  0.40159574619E+03  0.51403810887E+03  0.92675575105E+02 0.  0.
        254    2    1    2    0    0  0.29959222014E+03  0.67910039245E+02 -0.85800303665E+01  0.10072653822E+04  0.95924066926E+03 0.  0.
         23    2    4    4    0    0  0.17713229990E+03  0.59797907669E+02  0.46542806282E+03  0.50977667968E+03  0.91089736302E+02 0.  0.
         23    2    4    4    0    0  0.12245992024E+03  0.81121315761E+01 -0.47400809319E+03  0.49748870257E+03  0.88028961309E+02 0.  0.
          4    1    3    3  502    0 -0.31906501694E+02 -0.83824482270E+01  0.73473046510E+01  0.33797532074E+02  0.00000000000E+00 0. -1.
         -4    1    3    3    0  502 -0.26768571845E+03 -0.59527591018E+02  0.39424844153E+03  0.48024057680E+03  0.00000000000E+00 0.  1.
         13    1    5    5    0    0  0.60467740997E+02  0.35171674027E+02  0.79722610407E+02  0.10606172243E+03  0.00000000000E+00 0. -1.
        -13    1    5    5    0    0  0.11666455890E+03  0.24626233642E+02  0.38570545241E+03  0.40371495725E+03  0.00000000000E+00 0.  1.
          3    1    6    6  503    0  0.61053950653E+01 -0.17406846761E+02 -0.16572695827E+02  0.24797750100E+02  0.00000000000E+00 0. -1.
         -3    1    6    6    0  503  0.11635452518E+03  0.25518978337E+02 -0.45743539736E+03  0.47269095246E+03  0.00000000000E+00 0.  1.
<mgrwt>
<rscale>  0 0.14696608E+04</rscale>
<asrwt>0</asrwt>
<pdfrwt beam="1">  1        2 0.86791367E-01 0.14696608E+04</pdfrwt>
<pdfrwt beam="2">  1       -2 0.14725532E+00 0.14696608E+04</pdfrwt>
<totfact> 0.16261217E+01</totfact>
</mgrwt>
</event>
