<event>
11    6  0.1663299E-008  0.2129184E+04  0.7818608E-02  0.8548495E-01
          2   -1    0    0  501    0  0.00000000000E+00  0.00000000000E+00  0.24285637840E+04  0.24285637840E+04  0.00000000000E+00 0. -1.
         -1   -1    0    0    0  501 -0.00000000000E+00 -0.00000000000E+00 -0.46667747114E+03  0.46667747114E+03  0.00000000000E+00 0.  1.
         24    2    1    2    0    0  0.58987426551E+03  0.46243239420E+03  0.14073878186E+04  0.15964895611E+04  0.79013154075E+02 0.  0.
        254    2    1    2    0    0 -0.58987426551E+03 -0.46243239420E+03  0.55449849429E+03  0.12987516940E+04  0.90415264988E+03 0.  0.
         23    2    4    4    0    0 -0.98391372570E+02  0.22565751465E+03  0.32936369960E+02  0.26565490741E+03  0.94263191391E+02 0.  0.
          4    1    3    3  502    0  0.16183674105E+02  0.29463196944E+02  0.84901706099E+02  0.91314243031E+02  0.00000000000E+00 0. -1.
         -3    1    3    3    0  502  0.57369059141E+03  0.43296919726E+03  0.13224861125E+04  0.15051753181E+04  0.00000000000E+00 0.  1.
         11    1    4    4    0    0 -0.19826452403E+03 -0.15213033548E+03  0.35526700209E+02  0.25241752493E+03  0.00000000000E+00 0. -1.
        -11    1    4    4    0    0 -0.29321836891E+03 -0.53595957337E+03  0.48603542412E+03  0.78067926171E+03  0.00000000000E+00 0.  1.
          2    1    5    5  503    0 -0.79848307636E+01 -0.71846691561E+01 -0.68338626502E+01  0.12731012211E+02  0.00000000000E+00 0. -1.
         -2    1    5    5    0  503 -0.90406541806E+02  0.23284218381E+03  0.39770232610E+02  0.25292389520E+03  0.00000000000E+00 0.  1.
<mgrwt>
<rscale>  0 0.21291839E+04</rscale>
<asrwt>0</asrwt>
<pdfrwt beam="1">  1        2 0.37362519E+00 0.21291839E+04</pdfrwt>
<pdfrwt beam="2">  1       -1 0.71796535E-01 0.21291839E+04</pdfrwt>
<totfact> 0.78442309E+00</totfact>
</mgrwt>
</event>
<event>
12    6  0.1663299E-008  0.1696652E+04  0.7818608E-02  0.8763276E-01
          2   -1    0    0  501    0  0.00000000000E+00  0.00000000000E+00  0.20452243188E+04  0.20452243188E+04  0.00000000000E+00 0. -1.
         -1   -1    0    0    0  501 -0.00000000000E+00 -0.00000000000E+00 -0.35187195466E+03  0.35187195466E+03  0.00000000000E+00 0.  1.
         24    2    1    2    0    0 -0.17974554373E+02  0.60336656489E+03  0.74052348255E+03  0.96109567309E+03  0.10466885119E+03 0.  0.
        254    2    1    2    0    0  0.17974554373E+02 -0.60336656489E+03  0.95282888162E+03  0.14360006004E+04  0.88872973981E+03 0.  0.
         23    2    4    4    0    0  0.85427448250E+02  0.76395325301E+02 -0.94351454785E+02  0.18240369000E+03  0.10599440769E+03 0.  0.
         23    2    4    4    0    0 -0.67452893877E+02 -0.67976189019E+03  0.10471803364E+04  0.12535969104E+04  0.91062816418E+02 0.  0.
          2    1    3    3  502    0 -0.43033987294E+02  0.30867108298E+03  0.31717434866E+03  0.44466766127E+03  0.00000000000E+00 0. -1.
         -1    1    3    3    0  502  0.25059432921E+02  0.29469548190E+03  0.42334913389E+03  0.51642801182E+03  0.00000000000E+00 0.  1.
         11    1    5    5    0    0  0.48057666788E+02  0.83992984578E+02 -0.10501914683E+03  0.14280539904E+03  0.00000000000E+00 0. -1.
        -11    1    5    5    0    0  0.37369781462E+02 -0.75976592774E+01  0.10667692043E+02  0.39598290955E+02  0.00000000000E+00 0.  1.
          3    1    6    6  503    0  0.36506376558E+01 -0.40686597865E+03  0.63516950387E+03  0.75431661150E+03  0.00000000000E+00 0. -1.
         -3    1    6    6    0  503 -0.71103531533E+02 -0.27289591153E+03  0.41201083253E+03  0.49928029888E+03  0.00000000000E+00 0.  1.
<mgrwt>
<rscale>  0 0.16966521E+04</rscale>
<asrwt>0</asrwt>
<pdfrwt beam="1">  1        2 0.31464989E+00 0.16966521E+04</pdfrwt>
<pdfrwt beam="2">  1       -1 0.54134148E-01 0.16966521E+04</pdfrwt>
<totfact> 0.23552661E+01</totfact>
</mgrwt>
</event>
<event>
11    6  0.1663299E-008  0.3003026E+04  0.7818608E-02  0.8242867E-01
          2   -1    0    0  501    0  0.00000000000E+00  0.00000000000E+00  0.18507893466E+04  0.18507893466E+04  0.00000000000E+00 0. -1.
         -1   -1    0    0    0  501 -0.00000000000E+00 -0.00000000000E+00 -0.12181510145E+04  0.12181510145E+04  0.00000000000E+00 0.  1.
         24    2    1    2    0    0  0.14915361326E+01 -0.29151851315E+03 -0.10791659343E+04  0.11207046573E+04  0.79965911065E+02 0.  0.
        254    2    1    2    0    0 -0.14915361326E+01  0.29151851315E+03  0.17118042664E+04  0.19482357039E+04  0.88338170869E+03 0.  0.
         23    2    4    4    0    0 -0.13700322204E+03 -0.26825167257E+03  0.46656370332E+03  0.56360392961E+03  0.96118975869E+02 0.  0.
          2    1    3    3  502    0  0.16301565709E+02 -0.11298656410E+02 -0.45674069708E+02  0.49794792146E+02  0.00000000000E+00 0. -1.
         -1    1    3    3    0  502 -0.14810029576E+02 -0.28021985674E+03 -0.10334918646E+04  0.10709098651E+04  0.00000000000E+00 0.  1.
         11    1    4    4    0    0 -0.41063760189E+02  0.43691015851E+02  0.11813962473E+03  0.13248436963E+03  0.00000000000E+00 0. -1.
        -11    1    4    4    0    0  0.17657544610E+03  0.51607916987E+03  0.11271009383E+04  0.12521474046E+04  0.00000000000E+00 0.  1.
          4    1    5    5  503    0 -0.10199107016E+02  0.66983420191E+01  0.29334443415E+02  0.31771042478E+02  0.00000000000E+00 0. -1.
         -4    1    5    5    0  503 -0.12680411503E+03 -0.27495001459E+03  0.43722925991E+03  0.53183288713E+03  0.00000000000E+00 0.  1.
<mgrwt>
<rscale>  0 0.30030258E+04</rscale>
<asrwt>0</asrwt>
<pdfrwt beam="1">  1        2 0.28473682E+00 0.30030258E+04</pdfrwt>
<pdfrwt beam="2">  1       -1 0.18740785E+00 0.30030258E+04</pdfrwt>
<totfact> 0.14512181E+00</totfact>
</mgrwt>
</event>
<event>
12    6  0.1663299E-008  0.2232630E+04  0.7818608E-02  0.8504968E-01
         -1   -1    0    0    0  501 -0.00000000000E+00  0.00000000000E+00  0.16238592078E+04  0.16238592078E+04  0.00000000000E+00 0.  1.
          2   -1    0    0  501    0  0.00000000000E+00 -0.00000000000E+00 -0.76740577290E+03  0.76740577290E+03  0.00000000000E+00 0. -1.
         24    2    1    2    0    0 -0.79474759385E+03 -0.19808330135E+03 -0.11278869960E+03  0.83116692796E+03  0.85184735515E+02 0.  0.
        254    2    1    2    0    0  0.79474759385E+03  0.19808330135E+03  0.96924213448E+03  0.15600980527E+04  0.90753230613E+03 0.  0.
         23    2    4    4    0    0  0.29789840114E+03  0.45689569230E+03  0.18085409663E+03  0.58853743024E+03  0.12716513472E+03 0.  0.
         23    2    4    4    0    0  0.49684919272E+03 -0.25881239095E+03  0.78838803785E+03  0.97156062249E+03  0.92365420684E+02 0.  0.
          2    1    3    3  502    0 -0.46557974783E+03 -0.73136084551E+02 -0.57976686010E+02  0.47484174687E+03  0.00000000000E+00 0. -1.
         -1    1    3    3    0  502 -0.32916784602E+03 -0.12494721680E+03 -0.54812013589E+02  0.35632518109E+03  0.00000000000E+00 0.  1.
         11    1    5    5    0    0  0.12060173950E+03  0.29968864697E+03  0.10857378409E+03  0.34080248134E+03  0.00000000000E+00 0.  1.
        -11    1    5    5    0    0  0.17729666164E+03  0.15720704532E+03  0.72280312540E+02  0.24773494890E+03  0.00000000000E+00 0. -1.
          1    1    6    6  503    0  0.43561036839E+03 -0.21875930825E+03  0.62563737014E+03  0.79311672969E+03  0.00000000000E+00 0. -1.
         -1    1    6    6    0  503  0.61238824329E+02 -0.40053082690E+02  0.16275066771E+03  0.17844389280E+03  0.00000000000E+00 0.  1.
<mgrwt>
<rscale>  0 0.22326298E+04</rscale>
<asrwt>0</asrwt>
<pdfrwt beam="1">  1        2 0.11806243E+00 0.22326298E+04</pdfrwt>
<pdfrwt beam="2">  1       -1 0.24982449E+00 0.22326298E+04</pdfrwt>
<totfact> 0.26460506E+00</totfact>
</mgrwt>
</event>
<event>
11    6  0.1663299E-008  0.2446331E+04  0.7818608E-02  0.8422359E-01
         -1   -1    0    0    0  501 -0.00000000000E+00  0.00000000000E+00  0.14270111798E+04  0.14270111798E+04  0.00000000000E+00 0.  1.
          2   -1    0    0  501    0  0.00000000000E+00 -0.00000000000E+00 -0.10484390994E+04  0.10484390994E+04  0.00000000000E+00 0. -1.
         24    2    1    2    0    0  0.16546460746E+03  0.51453845691E+03 -0.73859707412E+03  0.91830006432E+03  0.74973397112E+02 0.  0.
        254    2    1    2    0    0 -0.16546460746E+03 -0.51453845691E+03  0.11171691545E+04  0.15571502148E+04  0.94049003810E+03 0.  0.
         23    2    4    4    0    0 -0.52186013236E+02 -0.68884991042E+03  0.42306754146E+03  0.81512241260E+03  0.90558400012E+02 0.  0.
          4    1    3    3  502    0  0.37937790261E+02  0.11472822882E+03 -0.11621898971E+03  0.16765648209E+03  0.00000000000E+00 0. -1.
         -3    1    3    3    0  502  0.12752681720E+03  0.39981022809E+03 -0.62237808442E+03  0.75064358224E+03  0.00000000000E+00 0.  1.
         11    1    4    4    0    0  0.19614490095E+02  0.99027227271E+02  0.37351034092E+03  0.38691225715E+03  0.00000000000E+00 0. -1.
        -11    1    4    4    0    0 -0.13289308432E+03  0.75284226243E+02  0.32059127217E+03  0.35511554510E+03  0.00000000000E+00 0.  1.
          4    1    5    5  503    0 -0.47081507933E+02 -0.35064809102E+03  0.16898175365E+03  0.39207854468E+03  0.00000000000E+00 0. -1.
         -4    1    5    5    0  503 -0.51045053024E+01 -0.33820181940E+03  0.25408578781E+03  0.42304386792E+03  0.00000000000E+00 0.  1.
<mgrwt>
<rscale>  0 0.24463314E+04</rscale>
<asrwt>0</asrwt>
<pdfrwt beam="1">  1        2 0.16129832E+00 0.24463314E+04</pdfrwt>
<pdfrwt beam="2">  1       -1 0.21954018E+00 0.24463314E+04</pdfrwt>
<totfact> 0.26556217E+00</totfact>
</mgrwt>
</event>
<event>
11    6  0.1663299E-008  0.3542146E+04  0.7818608E-02  0.8103874E-01
          2   -1    0    0  501    0  0.00000000000E+00  0.00000000000E+00  0.26628446061E+04  0.26628446061E+04  0.00000000000E+00 0. -1.
         -1   -1    0    0    0  501 -0.00000000000E+00 -0.00000000000E+00 -0.11779505272E+04  0.11779505272E+04  0.00000000000E+00 0.  1.
         24    2    1    2    0    0  0.29309010019E+03 -0.35516052151E+03  0.24139202357E+04  0.24587320017E+04  0.79443999695E+02 0.  0.
        254    2    1    2    0    0 -0.29309010019E+03  0.35516052151E+03 -0.92902615676E+03  0.13820631315E+04  0.91376588727E+03 0.  0.
         23    2    4    4    0    0  0.21640831641E+03  0.98127213681E+02 -0.69630123225E+03  0.74140221326E+03  0.91544122254E+02 0.  0.
          2    1    3    3  502    0  0.18191548584E+03 -0.26771005047E+03  0.17842880082E+04  0.18134071830E+04  0.00000000000E+00 0. -1.
         -1    1    3    3    0  502  0.11117461435E+03 -0.87450471043E+02  0.62963222741E+03  0.64532481864E+03  0.00000000000E+00 0.  1.
         11    1    4    4    0    0 -0.13971664049E+03  0.76294533743E+01 -0.11020191832E+03  0.17811067062E+03  0.00000000000E+00 0.  1.
        -11    1    4    4    0    0 -0.36978177611E+03  0.24940385445E+03 -0.12252300620E+03  0.46255024766E+03  0.00000000000E+00 0. -1.
          4    1    5    5  503    0  0.12351181053E+03  0.98838417512E+01 -0.39533535757E+03  0.41429808424E+03  0.00000000000E+00 0. -1.
         -4    1    5    5    0  503  0.92896505883E+02  0.88243371930E+02 -0.30096587468E+03  0.32710412901E+03  0.00000000000E+00 0.  1.
<mgrwt>
<rscale>  0 0.35421458E+04</rscale>
<asrwt>0</asrwt>
<pdfrwt beam="1">  1        2 0.40966840E+00 0.35421458E+04</pdfrwt>
<pdfrwt beam="2">  1       -1 0.18122316E+00 0.35421458E+04</pdfrwt>
<totfact> 0.53001705E-01</totfact>
</mgrwt>
</event>
<event>
11    6  0.1663299E-008  0.1300478E+04  0.7818608E-02  0.9029186E-01
         -1   -1    0    0    0  501 -0.00000000000E+00  0.00000000000E+00  0.19248182705E+04  0.19248182705E+04  0.00000000000E+00 0.  1.
          2   -1    0    0  501    0  0.00000000000E+00 -0.00000000000E+00 -0.21966285005E+03  0.21966285005E+03  0.00000000000E+00 0. -1.
         24    2    1    2    0    0  0.21722944311E+03 -0.16972734342E+03  0.75722128309E+03  0.80978799458E+03  0.79853131088E+02 0.  0.
        254    2    1    2    0    0 -0.21722944311E+03  0.16972734342E+03  0.94793413741E+03  0.13346931260E+04  0.89823750183E+03 0.  0.
         23    2    4    4    0    0 -0.45318868751E+03  0.24028339882E+03  0.90578251956E+03  0.10453725084E+04  0.96154097154E+02 0.  0.
          2    1    3    3  502    0  0.41063331236E+02 -0.58048622323E+02  0.12212322108E+03  0.14131497038E+03  0.00000000000E+00 0. -1.
         -1    1    3    3    0  502  0.17616611187E+03 -0.11167872109E+03  0.63509806201E+03  0.66847302421E+03  0.00000000000E+00 0.  1.
         11    1    4    4    0    0  0.83764657595E+01 -0.38960117966E+02  0.44244889024E+02  0.59545496684E+02  0.00000000000E+00 0.  1.
        -11    1    4    4    0    0  0.22758277865E+03 -0.31595937434E+02 -0.20932711762E+01  0.22977512090E+03  0.00000000000E+00 0. -1.
          1    1    5    5  503    0 -0.32918117371E+03  0.12370728778E+03  0.61513637831E+03  0.70855945558E+03  0.00000000000E+00 0. -1.
         -1    1    5    5    0  503 -0.12400751381E+03  0.11657611103E+03  0.29064614125E+03  0.33681305285E+03  0.00000000000E+00 0.  1.
<mgrwt>
<rscale>  0 0.13004785E+04</rscale>
<asrwt>0</asrwt>
<pdfrwt beam="1">  1        2 0.33794286E-01 0.13004785E+04</pdfrwt>
<pdfrwt beam="2">  1       -1 0.29612588E+00 0.13004785E+04</pdfrwt>
<totfact> 0.61485369E+00</totfact>
</mgrwt>
</event>
<event>
11    6  0.1663299E-008  0.1343187E+04  0.7818608E-02  0.8996002E-01
         -3   -1    0    0    0  501 -0.00000000000E+00  0.00000000000E+00  0.20829342681E+03  0.20829342681E+03  0.00000000000E+00 0.  1.
          2   -1    0    0  501    0  0.00000000000E+00 -0.00000000000E+00 -0.21653963626E+04  0.21653963626E+04  0.00000000000E+00 0. -1.
         24    2    1    2    0    0 -0.97177902050E+02 -0.97657569333E+02  0.51914213301E+02  0.16776638435E+03  0.80435866867E+02 0.  0.
        254    2    1    2    0    0  0.97177902050E+02  0.97657569333E+02 -0.20090171491E+04  0.22059234051E+04  0.90053740522E+03 0.  0.
         23    2    4    4    0    0  0.31176903170E+03 -0.25271936089E+03 -0.72477073905E+03  0.83318808588E+03  0.88559346045E+02 0.  0.
          4    1    3    3  502    0 -0.87341813750E+00  0.76926235791E+01 -0.96064835445E+01  0.12337902693E+02  0.00000000000E+00 0. -1.
         -3    1    3    3    0  502 -0.96304483913E+02 -0.10535019291E+03  0.61520696845E+02  0.15542848165E+03  0.00000000000E+00 0.  1.
         11    1    4    4    0    0 -0.26806373395E+03  0.23017607907E+03 -0.93467369161E+03  0.99922675235E+03  0.00000000000E+00 0. -1.
        -11    1    4    4    0    0  0.53472604304E+02  0.12020085115E+03 -0.34957271845E+03  0.37350856685E+03  0.00000000000E+00 0.  1.
          4    1    5    5  503    0  0.23796125062E+03 -0.23581484192E+03 -0.57952110219E+03  0.66938696159E+03  0.00000000000E+00 0. -1.
         -4    1    5    5    0  503  0.73807781079E+02 -0.16904518969E+02 -0.14524963686E+03  0.16380112429E+03  0.00000000000E+00 0.  1.
<mgrwt>
<rscale>  0 0.13431870E+04</rscale>
<asrwt>0</asrwt>
<pdfrwt beam="1">  1        2 0.33313791E+00 0.13431870E+04</pdfrwt>
<pdfrwt beam="2">  1       -3 0.32045142E-01 0.13431870E+04</pdfrwt>
<totfact> 0.32702491E+01</totfact>
</mgrwt>
</event>
<event>
11    6  0.1663299E-008  0.1303082E+04  0.7818608E-02  0.9027125E-01
          2   -1    0    0  501    0  0.00000000000E+00  0.00000000000E+00  0.92517488753E+03  0.92517488753E+03  0.00000000000E+00 0. -1.
         -1   -1    0    0    0  501 -0.00000000000E+00 -0.00000000000E+00 -0.45883832598E+03  0.45883832598E+03  0.00000000000E+00 0.  1.
         24    2    1    2    0    0  0.30278348125E+03 -0.25004400340E+02  0.26393854263E+03  0.41061536420E+03  0.81476171213E+02 0.  0.
        254    2    1    2    0    0 -0.30278348125E+03  0.25004400340E+02  0.20239801892E+03  0.97339784931E+03  0.90234990909E+03 0.  0.
         23    2    4    4    0    0 -0.33246863743E+03  0.10225874056E+03  0.48208553645E+03  0.60180056988E+03  0.93622735213E+02 0.  0.
          2    1    3    3  502    0  0.29271132139E+03 -0.29639808370E+02  0.22571903961E+03  0.37082006519E+03  0.00000000000E+00 0. -1.
         -1    1    3    3    0  502  0.10072159869E+02  0.46354080304E+01  0.38219503021E+02  0.39795299009E+02  0.00000000000E+00 0.  1.
         11    1    4    4    0    0  0.10719234305E+03 -0.10750691851E+03 -0.22709522435E+03  0.27316693954E+03  0.00000000000E+00 0.  1.
        -11    1    4    4    0    0 -0.77507186869E+02  0.30252578298E+02 -0.52592293184E+02  0.98430339897E+02  0.00000000000E+00 0. -1.
          2    1    5    5  503    0 -0.29032586900E+03  0.92595972037E+02  0.35657159527E+03  0.46904842692E+03  0.00000000000E+00 0. -1.
         -2    1    5    5    0  503 -0.42142768437E+02  0.96627685193E+01  0.12551394119E+03  0.13275214295E+03  0.00000000000E+00 0.  1.
<mgrwt>
<rscale>  0 0.13030820E+04</rscale>
<asrwt>0</asrwt>
<pdfrwt beam="1">  1        2 0.14233460E+00 0.13030820E+04</pdfrwt>
<pdfrwt beam="2">  1       -1 0.70590512E-01 0.13030820E+04</pdfrwt>
<totfact> 0.63962594E+01</totfact>
</mgrwt>
</event>
<event>
12    6  0.1663299E-008  0.1527733E+04  0.7818608E-02  0.8866217E-01
          2   -1    0    0  501    0  0.00000000000E+00  0.00000000000E+00  0.13882962735E+04  0.13882962735E+04  0.00000000000E+00 0. -1.
         -1   -1    0    0    0  501 -0.00000000000E+00 -0.00000000000E+00 -0.42029385107E+03  0.42029385107E+03  0.00000000000E+00 0.  1.
         24    2    1    2    0    0 -0.42809553389E+03 -0.23194655245E+03  0.35117231944E+03  0.60549999587E+03  0.79014288178E+02 0.  0.
        254    2    1    2    0    0  0.42809553389E+03  0.23194655245E+03  0.61683010299E+03  0.12030901287E+04  0.91097831616E+03 0.  0.
         23    2    4    4    0    0 -0.26553264597E+03 -0.27599227662E+01  0.16852313361E+03  0.33968621449E+03  0.12834124240E+03 0.  0.
         23    2    4    4    0    0  0.69362817986E+03  0.23470647521E+03  0.44830696938E+03  0.86340391422E+03  0.90994499277E+02 0.  0.
          2    1    3    3  502    0 -0.36761048092E+03 -0.19669214982E+03  0.33186064219E+03  0.53287592675E+03  0.00000000000E+00 0. -1.
         -1    1    3    3    0  502 -0.60485052968E+02 -0.35254402625E+02  0.19311677254E+02  0.72624069119E+02  0.00000000000E+00 0.  1.
         11    1    5    5    0    0 -0.12616581651E+03  0.13426672606E+02  0.15263917535E+03  0.19848628830E+03  0.00000000000E+00 0. -1.
        -11    1    5    5    0    0 -0.13936682946E+03 -0.16186595372E+02  0.15883958258E+02  0.14119992618E+03  0.00000000000E+00 0.  1.
          3    1    6    6  503    0  0.28329001258E+02  0.25786697653E+02  0.94004373356E+01  0.39444319112E+02  0.00000000000E+00 0. -1.
         -3    1    6    6    0  503  0.66529917860E+03  0.20891977756E+03  0.43890653205E+03  0.82395959511E+03  0.00000000000E+00 0.  1.
<mgrwt>
<rscale>  0 0.15277335E+04</rscale>
<asrwt>0</asrwt>
<pdfrwt beam="1">  1        2 0.21358404E+00 0.15277335E+04</pdfrwt>
<pdfrwt beam="2">  1       -1 0.64660593E-01 0.15277335E+04</pdfrwt>
<totfact> 0.39165567E+01</totfact>
</mgrwt>
</event>
<event>
12    6  0.1663299E-008  0.1845675E+04  0.7818608E-02  0.8682380E-01
          2   -1    0    0  501    0  0.00000000000E+00  0.00000000000E+00  0.10192981204E+04  0.10192981204E+04  0.00000000000E+00 0. -1.
         -1   -1    0    0    0  501 -0.00000000000E+00 -0.00000000000E+00 -0.83550553974E+03  0.83550553974E+03  0.00000000000E+00 0.  1.
         24    2    1    2    0    0  0.12961775866E+03  0.48713726786E+03 -0.41876747942E+03  0.65964941815E+03  0.75283942154E+02 0.  0.
        254    2    1    2    0    0 -0.12961775866E+03 -0.48713726786E+03  0.60256006006E+03  0.11951542420E+04  0.90067283461E+03 0.  0.
         23    2    4    4    0    0 -0.32733182427E+03 -0.55791797509E+03  0.12088100756E+03  0.66267041123E+03  0.78110599944E+02 0.  0.
         23    2    4    4    0    0  0.19771406562E+03  0.70780707225E+02  0.48167905250E+03  0.53248383073E+03  0.86160084248E+02 0.  0.
          4    1    3    3  502    0  0.57761543794E+02  0.15126541723E+03 -0.17531261265E+03  0.23864646351E+03  0.00000000000E+00 0. -1.
         -3    1    3    3    0  502  0.71856214864E+02  0.33587185064E+03 -0.24345486677E+03  0.42100295464E+03  0.00000000000E+00 0.  1.
         11    1    5    5    0    0 -0.30589864150E+03 -0.54098434343E+03  0.10283181676E+03  0.62993048922E+03  0.00000000000E+00 0. -1.
        -11    1    5    5    0    0 -0.21433182774E+02 -0.16933631657E+02  0.18049190797E+02  0.32739922012E+02  0.00000000000E+00 0.  1.
          3    1    6    6  503    0  0.19622556939E+03  0.57561886967E+02  0.47590929394E+03  0.51798407405E+03  0.00000000000E+00 0. -1.
         -3    1    6    6    0  503  0.14884962283E+01  0.13218820258E+02  0.57697585636E+01  0.14499756685E+02  0.00000000000E+00 0.  1.
<mgrwt>
<rscale>  0 0.18456752E+04</rscale>
<asrwt>0</asrwt>
<pdfrwt beam="1">  1        2 0.15681509E+00 0.18456752E+04</pdfrwt>
<pdfrwt beam="2">  1       -1 0.12853931E+00 0.18456752E+04</pdfrwt>
<totfact> 0.13709447E+01</totfact>
</mgrwt>
</event>
<event>
12    6  0.1983824E-008  0.1623062E+04  0.7818608E-02  0.8806504E-01
         -1   -1    0    0    0  501 -0.00000000000E+00  0.00000000000E+00  0.11138321555E+04  0.11138321555E+04  0.00000000000E+00 0.  1.
          2   -1    0    0  501    0  0.00000000000E+00 -0.00000000000E+00 -0.59127646881E+03  0.59127646881E+03  0.00000000000E+00 0. -1.
         24    2    1    2    0    0  0.42562732121E+03 -0.28884713137E+03  0.40110011507E+03  0.65723317490E+03  0.80516222075E+02 0.  0.
        254    2    1    2    0    0 -0.42562732121E+03  0.28884713137E+03  0.12145557166E+03  0.10478754494E+04  0.90482054564E+03 0.  0.
         23    2    4    4    0    0  0.55930614467E+02  0.57948681009E+02 -0.32666377654E+03  0.34513030805E+03  0.76937788962E+02 0.  0.
         23    2    4    4    0    0 -0.48155793568E+03  0.23089845036E+03  0.44811934820E+03  0.70274514139E+03  0.88473972048E+02 0.  0.
          4    1    3    3  502    0  0.23477612382E+02  0.37727689571E+00  0.78398078257E+01  0.24754862306E+02  0.00000000000E+00 0. -1.
         -3    1    3    3    0  502  0.40214970883E+03 -0.28922440826E+03  0.39326030724E+03  0.63247831259E+03  0.00000000000E+00 0.  1.
         11    1    5    5    0    0  0.73445259931E+02  0.57205654829E+02 -0.28813077217E+03  0.30279701950E+03  0.00000000000E+00 0. -1.
        -11    1    5    5    0    0 -0.17514645465E+02  0.74302618027E+00 -0.38533004371E+02  0.42333288551E+02  0.00000000000E+00 0.  1.
          3    1    6    6  503    0 -0.48245431277E+03  0.22010614135E+03  0.43622553240E+03  0.68665973560E+03  0.00000000000E+00 0. -1.
         -3    1    6    6    0  503  0.89637708671E+00  0.10792309005E+02  0.11893815793E+02  0.16085405797E+02  0.00000000000E+00 0.  1.
<mgrwt>
<rscale>  0 0.16230622E+04</rscale>
<asrwt>0</asrwt>
<pdfrwt beam="1">  1        2 0.90965611E-01 0.16230622E+04</pdfrwt>
<pdfrwt beam="2">  1       -1 0.17135879E+00 0.16230622E+04</pdfrwt>
<totfact> 0.13276325E+01</totfact>
</mgrwt>
</event>
<event>
12    6  0.1663299E-008  0.1382873E+04  0.7818608E-02  0.8966310E-01
         -1   -1    0    0    0  501 -0.00000000000E+00  0.00000000000E+00  0.28393709851E+04  0.28393709851E+04  0.00000000000E+00 0.  1.
          2   -1    0    0  501    0  0.00000000000E+00 -0.00000000000E+00 -0.16837688204E+03  0.16837688204E+03  0.00000000000E+00 0. -1.
         24    2    1    2    0    0 -0.26367263433E+03 -0.14045418066E+03  0.13972897468E+04  0.14312937373E+04  0.83261581766E+02 0.  0.
        254    2    1    2    0    0  0.26367263433E+03  0.14045418066E+03  0.12737043562E+04  0.15764541298E+04  0.87956477947E+03 0.  0.
         23    2    4    4    0    0 -0.23136288142E+03 -0.19190628229E+03  0.39428316933E+03  0.51012357698E+03  0.12004183474E+03 0.  0.
         23    2    4    4    0    0  0.49503551575E+03  0.33236046296E+03  0.87942118688E+03  0.10663305528E+04  0.90308275905E+02 0.  0.
          4    1    3    3  502    0 -0.70923760377E+02 -0.73581329450E+02  0.36507747850E+03  0.37911206408E+03  0.00000000000E+00 0. -1.
         -3    1    3    3    0  502 -0.19274887395E+03 -0.66872851214E+02  0.10322122683E+04  0.10521816732E+04  0.00000000000E+00 0.  1.
         11    1    5    5    0    0 -0.14313622080E+03 -0.10278643694E+03  0.31737272155E+03  0.36301304895E+03  0.00000000000E+00 0. -1.
        -11    1    5    5    0    0 -0.88226660619E+02 -0.89119845349E+02  0.76910447789E+02  0.14711052803E+03  0.00000000000E+00 0.  1.
          3    1    6    6  503    0  0.39648618291E+03  0.22061032693E+03  0.67704699163E+03  0.81502321345E+03  0.00000000000E+00 0. -1.
         -3    1    6    6    0  503  0.98549332844E+02  0.11175013603E+03  0.20237419525E+03  0.25130733935E+03  0.00000000000E+00 0.  1.
<mgrwt>
<rscale>  0 0.13828730E+04</rscale>
<asrwt>0</asrwt>
<pdfrwt beam="1">  1        2 0.25904138E-01 0.13828730E+04</pdfrwt>
<pdfrwt beam="2">  1       -1 0.43682627E+00 0.13828730E+04</pdfrwt>
<totfact> 0.94857361E-01</totfact>
</mgrwt>
</event>
<event>
12    6  0.1663299E-008  0.1680493E+04  0.7818608E-02  0.8772569E-01
          2   -1    0    0  501    0  0.00000000000E+00  0.00000000000E+00  0.18253185840E+04  0.18253185840E+04  0.00000000000E+00 0. -1.
         -1   -1    0    0    0  501 -0.00000000000E+00 -0.00000000000E+00 -0.38678951462E+03  0.38678951462E+03  0.00000000000E+00 0.  1.
         24    2    1    2    0    0 -0.31083130710E+03  0.38158668128E+03  0.75183075362E+02  0.50390748852E+03  0.77754519872E+02 0.  0.
        254    2    1    2    0    0  0.31083130710E+03 -0.38158668128E+03  0.13633459941E+04  0.17082006101E+04  0.90388745325E+03 0.  0.
         23    2    4    4    0    0 -0.28791496494E+03 -0.50884119608E+02  0.65187155753E+03  0.71707070512E+03  0.61397458904E+02 0.  0.
         23    2    4    4    0    0  0.59874627204E+03 -0.33070256167E+03  0.71147443653E+03  0.99112990501E+03  0.91001825278E+02 0.  0.
          2    1    3    3  502    0 -0.13683299167E+03  0.18447150802E+03  0.72900980329E+02  0.24097211003E+03  0.00000000000E+00 0. -1.
         -1    1    3    3    0  502 -0.17399831544E+03  0.19711517326E+03  0.22820950337E+01  0.26293537849E+03  0.00000000000E+00 0.  1.
         11    1    5    5    0    0 -0.24676342273E+03 -0.63638253943E+02  0.53742743545E+03  0.59478589638E+03  0.00000000000E+00 0.  1.
        -11    1    5    5    0    0 -0.41151542204E+02  0.12754134335E+02  0.11444412209E+03  0.12228480874E+03  0.00000000000E+00 0. -1.
          2    1    6    6  503    0  0.13881613215E+03 -0.85665527815E+02  0.22742092895E+03  0.27987279276E+03  0.00000000000E+00 0. -1.
         -2    1    6    6    0  503  0.45993013989E+03 -0.24503703385E+03  0.48405350758E+03  0.71125711226E+03  0.00000000000E+00 0.  1.
<mgrwt>
<rscale>  0 0.16804929E+04</rscale>
<asrwt>0</asrwt>
<pdfrwt beam="1">  1        2 0.28081824E+00 0.16804929E+04</pdfrwt>
<pdfrwt beam="2">  1       -1 0.59506080E-01 0.16804929E+04</pdfrwt>
<totfact> 0.25962930E+01</totfact>
</mgrwt>
</event>
<event>
12    6  0.1663299E-008  0.1919020E+04  0.7818608E-02  0.8645447E-01
         -1   -1    0    0    0  501 -0.00000000000E+00  0.00000000000E+00  0.11269548944E+04  0.11269548944E+04  0.00000000000E+00 0.  1.
          2   -1    0    0  501    0  0.00000000000E+00 -0.00000000000E+00 -0.81694394662E+03  0.81694394662E+03  0.00000000000E+00 0. -1.
         24    2    1    2    0    0  0.28611747605E+02 -0.43583569565E+03 -0.49253482544E+03  0.66322988752E+03  0.80696615288E+02 0.  0.
        254    2    1    2    0    0 -0.28611747605E+02  0.43583569565E+03  0.80254577325E+03  0.12806689535E+04  0.89736384187E+03 0.  0.
         23    2    4    4    0    0  0.58170992405E+02  0.31941018789E+03  0.98133222796E+03  0.10363965190E+04  0.75485564697E+02 0.  0.
         23    2    4    4    0    0 -0.86782740010E+02  0.11642550776E+03 -0.17878645471E+03  0.24427243454E+03  0.81352830736E+02 0.  0.
          2    1    3    3  502    0  0.23791958800E+02 -0.34017617774E+03 -0.43016005344E+03  0.54892946795E+03  0.00000000000E+00 0. -1.
         -1    1    3    3    0  502  0.48197888054E+01 -0.95659517915E+02 -0.62374771994E+02  0.11430041957E+03  0.00000000000E+00 0.  1.
         11    1    5    5    0    0 -0.65658904047E+01  0.40835214936E+01  0.58994582339E+02  0.59499132851E+02  0.00000000000E+00 0.  1.
        -11    1    5    5    0    0  0.64736882809E+02  0.31532666640E+03  0.92233764562E+03  0.97689738615E+03  0.00000000000E+00 0. -1.
          4    1    6    6  503    0 -0.56348758753E+02  0.52649239277E+02 -0.14862110741E+03  0.16743762593E+03  0.00000000000E+00 0. -1.
         -4    1    6    6    0  503 -0.30433981257E+02  0.63776268482E+02 -0.30165347300E+02  0.76834808611E+02  0.00000000000E+00 0.  1.
<mgrwt>
<rscale>  0 0.19190195E+04</rscale>
<asrwt>0</asrwt>
<pdfrwt beam="1">  1        2 0.12568368E+00 0.19190195E+04</pdfrwt>
<pdfrwt beam="2">  1       -1 0.17337768E+00 0.19190195E+04</pdfrwt>
<totfact> 0.83084549E+00</totfact>
</mgrwt>
</event>
<event>
11    6  0.1663299E-008  0.1792412E+04  0.7818608E-02  0.8710345E-01
          2   -1    0    0  501    0  0.00000000000E+00  0.00000000000E+00  0.13386119905E+04  0.13386119905E+04  0.00000000000E+00 0. -1.
         -1   -1    0    0    0  501 -0.00000000000E+00 -0.00000000000E+00 -0.60001371894E+03  0.60001371894E+03  0.00000000000E+00 0.  1.
         24    2    1    2    0    0 -0.20025870496E+03 -0.41447238914E+02 -0.40909221393E+03  0.46406722878E+03  0.78616352021E+02 0.  0.
        254    2    1    2    0    0  0.20025870496E+03  0.41447238914E+02  0.11476904855E+04  0.14745584806E+04  0.90294398490E+03 0.  0.
         23    2    4    4    0    0 -0.17102109895E+02  0.23334557296E+03  0.16770297977E+02  0.25262845022E+03  0.93793669205E+02 0.  0.
          2    1    3    3  502    0 -0.82658801817E+02  0.12949172181E+02 -0.11073289506E+03  0.13878736479E+03  0.00000000000E+00 0. -1.
         -1    1    3    3    0  502 -0.11759990314E+03 -0.54396411095E+02 -0.29835931887E+03  0.32527986398E+03  0.00000000000E+00 0.  1.
         11    1    4    4    0    0  0.13369529697E+03 -0.26120972168E+03  0.10389188335E+04  0.10795634737E+04  0.00000000000E+00 0.  1.
        -11    1    4    4    0    0  0.83665517879E+02  0.69311387640E+02  0.92001353998E+02  0.14236655673E+03  0.00000000000E+00 0. -1.
          2    1    5    5  503    0 -0.10702751392E+02  0.55887345194E+02  0.45357563374E+02  0.72768487654E+02  0.00000000000E+00 0. -1.
         -2    1    5    5    0  503 -0.63993585024E+01  0.17745822776E+03 -0.28587265397E+02  0.17985996256E+03  0.00000000000E+00 0.  1.
<mgrwt>
<rscale>  0 0.17924124E+04</rscale>
<asrwt>0</asrwt>
<pdfrwt beam="1">  1        2 0.20594031E+00 0.17924124E+04</pdfrwt>
<pdfrwt beam="2">  1       -1 0.92309803E-01 0.17924124E+04</pdfrwt>
<totfact> 0.19302840E+01</totfact>
</mgrwt>
</event>
<event>
12    6  0.2099267E-008  0.1707389E+04  0.7818608E-02  0.8757161E-01
         -3   -1    0    0    0  501 -0.00000000000E+00  0.00000000000E+00  0.32924509552E+03  0.32924509552E+03  0.00000000000E+00 0.  1.
          2   -1    0    0  501    0  0.00000000000E+00 -0.00000000000E+00 -0.22135306565E+04  0.22135306565E+04  0.00000000000E+00 0. -1.
         24    2    1    2    0    0 -0.11350452545E+03 -0.41108098462E+03 -0.26178598905E+02  0.43438336698E+03  0.78311795120E+02 0.  0.
        254    2    1    2    0    0  0.11350452545E+03  0.41108098462E+03 -0.18581069621E+04  0.21083923850E+04  0.90049215076E+03 0.  0.
         23    2    4    4    0    0 -0.10599003905E+03  0.17207197323E+03 -0.17365423562E+04  0.17498764944E+04  0.75138129585E+02 0.  0.
         23    2    4    4    0    0  0.21949456450E+03  0.23900901139E+03 -0.12156460586E+03  0.35851589061E+03  0.91937582353E+02 0.  0.
          4    1    3    3  502    0  0.46162848558E+01 -0.68755976278E+02  0.13043664144E+02  0.70134381968E+02  0.00000000000E+00 0. -1.
         -3    1    3    3    0  502 -0.11812081030E+03 -0.34232500834E+03 -0.39222263048E+02  0.36424898501E+03  0.00000000000E+00 0.  1.
         11    1    5    5    0    0 -0.10762509305E+03  0.11679403389E+03 -0.13723032444E+04  0.13814630656E+04  0.00000000000E+00 0. -1.
        -11    1    5    5    0    0  0.16350540002E+01  0.55277939347E+02 -0.36423911183E+03  0.36841342887E+03  0.00000000000E+00 0.  1.
          3    1    6    6  503    0  0.21491235583E+03  0.21146685134E+03 -0.86451305545E+02  0.31365487105E+03  0.00000000000E+00 0. -1.
         -3    1    6    6    0  503  0.45822086721E+01  0.27542160046E+02 -0.35113300317E+02  0.44861019554E+02  0.00000000000E+00 0.  1.
<mgrwt>
<rscale>  0 0.17073888E+04</rscale>
<asrwt>0</asrwt>
<pdfrwt beam="1">  1        2 0.34054316E+00 0.17073888E+04</pdfrwt>
<pdfrwt beam="2">  1       -3 0.50653094E-01 0.17073888E+04</pdfrwt>
<totfact> 0.11996281E+01</totfact>
</mgrwt>
</event>
<event>
11    6  0.1663299E-008  0.2017766E+04  0.7818608E-02  0.8598359E-01
         -1   -1    0    0    0  501 -0.00000000000E+00  0.00000000000E+00  0.36856255905E+03  0.36856255905E+03  0.00000000000E+00 0.  1.
          2   -1    0    0  501    0  0.00000000000E+00 -0.00000000000E+00 -0.27616617412E+04  0.27616617412E+04  0.00000000000E+00 0. -1.
         24    2    1    2    0    0  0.51770126285E+03  0.59978410413E+03 -0.10467302248E+04  0.13155403490E+04  0.85127417273E+02 0.  0.
        254    2    1    2    0    0 -0.51770126285E+03 -0.59978410413E+03 -0.13463689573E+04  0.18146839512E+04  0.92337040480E+03 0.  0.
         23    2    4    4    0    0 -0.20408888776E+02 -0.10273924647E+03 -0.36151181416E+03  0.38710322574E+03  0.90477843136E+02 0.  0.
          4    1    3    3  502    0 -0.93418172767E+00  0.10108740817E+02 -0.24258892101E+02  0.26297398776E+02  0.00000000000E+00 0. -1.
         -3    1    3    3    0  502  0.51863544458E+03  0.58967536331E+03 -0.10224713327E+04  0.12892429502E+04  0.00000000000E+00 0.  1.
         11    1    4    4    0    0 -0.34472904986E+03 -0.10852873497E+03 -0.38073837565E+01  0.36142924661E+03  0.00000000000E+00 0.  1.
        -11    1    4    4    0    0 -0.15256332422E+03 -0.38851612268E+03 -0.98104975936E+03  0.10661514788E+04  0.00000000000E+00 0. -1.
          4    1    5    5  503    0  0.28611910511E+02 -0.37187562630E+02 -0.69647886714E+02  0.83978475582E+02  0.00000000000E+00 0. -1.
         -4    1    5    5    0  503 -0.49020799287E+02 -0.65551683843E+02 -0.29186392744E+03  0.30312475016E+03  0.00000000000E+00 0.  1.
<mgrwt>
<rscale>  0 0.20177662E+04</rscale>
<asrwt>0</asrwt>
<pdfrwt beam="1">  1        2 0.42487105E+00 0.20177662E+04</pdfrwt>
<pdfrwt beam="2">  1       -1 0.56701931E-01 0.20177662E+04</pdfrwt>
<totfact> 0.81189155E+00</totfact>
</mgrwt>
</event>
<event>
12    6  0.1663299E-008  0.1528717E+04  0.7818608E-02  0.8865578E-01
          2   -1    0    0  501    0  0.00000000000E+00  0.00000000000E+00  0.93105929944E+03  0.93105929944E+03  0.00000000000E+00 0. -1.
         -1   -1    0    0    0  501 -0.00000000000E+00 -0.00000000000E+00 -0.62750448362E+03  0.62750448362E+03  0.00000000000E+00 0.  1.
         24    2    1    2    0    0  0.49196771354E+02  0.32338240385E+03  0.48810462950E+03  0.59342389316E+03  0.83122116233E+02 0.  0.
        254    2    1    2    0    0 -0.49196771354E+02 -0.32338240385E+03 -0.18454981368E+03  0.96513988991E+03  0.88906685459E+03 0.  0.
         23    2    4    4    0    0 -0.28377710737E+03 -0.35367613300E+03  0.19837841162E+03  0.50570470562E+03  0.10376416224E+03 0.  0.
         23    2    4    4    0    0  0.23458033602E+03  0.30293729155E+02 -0.38292822529E+03  0.45943518429E+03  0.92200969438E+02 0.  0.
          4    1    3    3  502    0  0.36009546403E+02  0.27631301866E+03  0.45772451254E+03  0.53587060107E+03  0.00000000000E+00 0. -1.
         -3    1    3    3    0  502  0.13187224950E+02  0.47069385188E+02  0.30380116955E+02  0.57553292087E+02  0.00000000000E+00 0.  1.
         11    1    5    5    0    0 -0.12231580413E+03 -0.21232763671E+03  0.14442976720E+03  0.28443652878E+03  0.00000000000E+00 0.  1.
        -11    1    5    5    0    0 -0.16146130323E+03 -0.14134849630E+03  0.53948644419E+02  0.22126817684E+03  0.00000000000E+00 0. -1.
          1    1    6    6  503    0  0.13136054289E+03  0.26022084981E+02 -0.13182549457E+03  0.18791142103E+03  0.00000000000E+00 0. -1.
         -1    1    6    6    0  503  0.10321979312E+03  0.42716441738E+01 -0.25110273073E+03  0.27152376326E+03  0.00000000000E+00 0.  1.
<mgrwt>
<rscale>  0 0.15287170E+04</rscale>
<asrwt>0</asrwt>
<pdfrwt beam="1">  1        2 0.14323989E+00 0.15287170E+04</pdfrwt>
<pdfrwt beam="2">  1       -1 0.96539151E-01 0.15287170E+04</pdfrwt>
<totfact> 0.31759626E+01</totfact>
</mgrwt>
</event>
<event>
11    6  0.1663299E-008  0.1105798E+04  0.7818608E-02  0.9199559E-01
         -1   -1    0    0    0  501 -0.00000000000E+00  0.00000000000E+00  0.24123689906E+03  0.24123689906E+03  0.00000000000E+00 0.  1.
          2   -1    0    0  501    0  0.00000000000E+00 -0.00000000000E+00 -0.12672074655E+04  0.12672074655E+04  0.00000000000E+00 0. -1.
         24    2    1    2    0    0 -0.14739860602E+03 -0.56411833954E+02 -0.17874571578E+03  0.25130907189E+03  0.79357259495E+02 0.  0.
        254    2    1    2    0    0  0.14739860602E+03  0.56411833954E+02 -0.84722485066E+03  0.12571352927E+04  0.91525436489E+03 0.  0.
         23    2    4    4    0    0  0.32724004342E+03  0.33670129912E+02 -0.97471873037E+03  0.10325687245E+04  0.88892316213E+02 0.  0.
          4    1    3    3  502    0 -0.29865448691E+02  0.66690513018E+01 -0.79086150367E+02  0.84800002658E+02  0.00000000000E+00 0. -1.
         -3    1    3    3    0  502 -0.11753315733E+03 -0.63080885256E+02 -0.99659565415E+02  0.16650906923E+03  0.00000000000E+00 0.  1.
         11    1    4    4    0    0 -0.13190582199E+03  0.47297545108E+00  0.94390286178E+02  0.16220017172E+03  0.00000000000E+00 0.  1.
        -11    1    4    4    0    0 -0.47935615411E+02  0.22268728591E+02  0.33103593537E+02  0.62366396425E+02  0.00000000000E+00 0. -1.
          3    1    5    5  503    0  0.17976411439E+03 -0.19615831016E+02 -0.45178776256E+03  0.48663343499E+03  0.00000000000E+00 0. -1.
         -3    1    5    5    0  503  0.14747592903E+03  0.53285960928E+02 -0.52293096781E+03  0.54593528954E+03  0.00000000000E+00 0.  1.
<mgrwt>
<rscale>  0 0.11057978E+04</rscale>
<asrwt>0</asrwt>
<pdfrwt beam="1">  1        2 0.19495500E+00 0.11057978E+04</pdfrwt>
<pdfrwt beam="2">  1       -1 0.37113368E-01 0.11057978E+04</pdfrwt>
<totfact> 0.13634160E+02</totfact>
</mgrwt>
</event>
<event>
12    6  0.1663299E-008  0.2949283E+04  0.7818608E-02  0.8258364E-01
         -1   -1    0    0    0  501 -0.00000000000E+00  0.00000000000E+00  0.80701168386E+03  0.80701168386E+03  0.00000000000E+00 0.  1.
          2   -1    0    0  501    0  0.00000000000E+00 -0.00000000000E+00 -0.26945918814E+04  0.26945918814E+04  0.00000000000E+00 0. -1.
         24    2    1    2    0    0 -0.96633149965E+03 -0.50291866691E+03  0.63116936481E+02  0.10941042473E+04  0.79728310906E+02 0.  0.
        254    2    1    2    0    0  0.96633149965E+03  0.50291866691E+03 -0.19506971341E+04  0.24074993180E+04  0.89672175427E+03 0.  0.
         23    2    4    4    0    0  0.86793722651E+02 -0.89252613056E+02 -0.90013248977E+03  0.91205412444E+03  0.78134803690E+02 0.  0.
         23    2    4    4    0    0  0.87953777700E+03  0.59217127997E+03 -0.10505646443E+04  0.14954451936E+04  0.91742733310E+02 0.  0.
          4    1    3    3  502    0 -0.31413448134E+03 -0.16978291478E+03  0.57824604014E+02  0.36173249142E+03  0.00000000000E+00 0. -1.
         -3    1    3    3    0  502 -0.65219701831E+03 -0.33313575213E+03  0.52923324668E+01  0.73237175588E+03  0.00000000000E+00 0.  1.
         11    1    5    5    0    0 -0.54187999980E+01  0.99824064006E+01 -0.59049235864E+02  0.60131722802E+02  0.00000000000E+00 0.  1.
        -11    1    5    5    0    0  0.92212522649E+02 -0.99235019456E+02 -0.84108325390E+03  0.85192240164E+03  0.00000000000E+00 0. -1.
          3    1    6    6  503    0  0.82562863918E+03  0.57995971700E+03 -0.99834647300E+03  0.14194053696E+04  0.00000000000E+00 0. -1.
         -3    1    6    6    0  503  0.53909137811E+02  0.12211562966E+02 -0.52218171303E+02  0.76039823933E+02  0.00000000000E+00 0.  1.
<mgrwt>
<rscale>  0 0.29492827E+04</rscale>
<asrwt>0</asrwt>
<pdfrwt beam="1">  1        2 0.41455260E+00 0.29492827E+04</pdfrwt>
<pdfrwt beam="2">  1       -1 0.12415564E+00 0.29492827E+04</pdfrwt>
<totfact> 0.14869136E+00</totfact>
</mgrwt>
</event>
<event>
11    6  0.1663299E-008  0.2090255E+04  0.7818608E-02  0.8565548E-01
         -1   -1    0    0    0  501 -0.00000000000E+00  0.00000000000E+00  0.59196386349E+03  0.59196386349E+03  0.00000000000E+00 0.  1.
          2   -1    0    0  501    0  0.00000000000E+00 -0.00000000000E+00 -0.18452004200E+04  0.18452004200E+04  0.00000000000E+00 0. -1.
         24    2    1    2    0    0 -0.58612460968E+03  0.45132118581E+03 -0.99288624316E+03  0.12406839752E+04  0.78998503465E+02 0.  0.
        254    2    1    2    0    0  0.58612460968E+03 -0.45132118581E+03 -0.26035031333E+03  0.11964803083E+04  0.90363154641E+03 0.  0.
         23    2    4    4    0    0 -0.22297261194E+03 -0.78424547368E+02 -0.99794347283E+02  0.27351463000E+03  0.94784733845E+02 0.  0.
          2    1    3    3  502    0 -0.57489856775E+03  0.43492644376E+03 -0.98147820285E+03  0.12177720794E+04  0.00000000000E+00 0. -1.
         -1    1    3    3    0  502 -0.11226041936E+02  0.16394742049E+02 -0.11408040313E+02  0.22911895779E+02  0.00000000000E+00 0.  1.
         11    1    4    4    0    0  0.24380800092E+03 -0.97799071248E+02 -0.13113457261E+03  0.29360394374E+03  0.00000000000E+00 0. -1.
        -11    1    4    4    0    0  0.56528922071E+03 -0.27509756720E+03 -0.29421393438E+02  0.62936173455E+03  0.00000000000E+00 0.  1.
          2    1    5    5  503    0 -0.39171629621E+02 -0.96851728149E+01  0.18492178405E+02  0.44386707490E+02  0.00000000000E+00 0. -1.
         -2    1    5    5    0  503 -0.18380098232E+03 -0.68739374553E+02 -0.11828652569E+03  0.22912792251E+03  0.00000000000E+00 0.  1.
<mgrwt>
<rscale>  0 0.20902555E+04</rscale>
<asrwt>0</asrwt>
<pdfrwt beam="1">  1        2 0.28387698E+00 0.20902555E+04</pdfrwt>
<pdfrwt beam="2">  1       -1 0.91071365E-01 0.20902555E+04</pdfrwt>
<totfact> 0.10063323E+01</totfact>
</mgrwt>
</event>
<event>
11    6  0.1663299E-008  0.1367900E+04  0.7818608E-02  0.8977388E-01
          2   -1    0    0  501    0  0.00000000000E+00  0.00000000000E+00  0.99871269881E+03  0.99871269881E+03  0.00000000000E+00 0. -1.
         -1   -1    0    0    0  501 -0.00000000000E+00 -0.00000000000E+00 -0.46839052170E+03  0.46839052170E+03  0.00000000000E+00 0.  1.
         24    2    1    2    0    0  0.33005384475E+03 -0.59939028002E+02  0.34747152065E+03  0.48946712539E+03  0.79456791169E+02 0.  0.
        254    2    1    2    0    0 -0.33005384475E+03  0.59939028002E+02  0.18285065646E+03  0.97763609511E+03  0.89989429623E+03 0.  0.
         23    2    4    4    0    0 -0.53837647805E+03  0.13477037846E+03  0.35194171885E+03  0.66314414294E+03  0.88796924622E+02 0.  0.
          2    1    3    3  502    0  0.17768958932E+03 -0.57610961764E+02  0.23434406012E+03  0.29968275156E+03  0.00000000000E+00 0. -1.
         -1    1    3    3    0  502  0.15236425543E+03 -0.23280662385E+01  0.11312746053E+03  0.18978437383E+03  0.00000000000E+00 0.  1.
         11    1    4    4    0    0  0.19014848057E+03 -0.77936425401E+02 -0.19459900890E+03  0.28301820671E+03  0.00000000000E+00 0. -1.
        -11    1    4    4    0    0  0.18174152736E+02  0.31050749462E+01  0.25507946511E+02  0.31473745460E+02  0.00000000000E+00 0.  1.
          1    1    5    5  503    0 -0.41324626818E+03  0.87461787744E+02  0.30641238047E+03  0.52183387144E+03  0.00000000000E+00 0. -1.
         -1    1    5    5    0  503 -0.12513020987E+03  0.47308590712E+02  0.45529338380E+02  0.14131027150E+03  0.00000000000E+00 0.  1.
<mgrwt>
<rscale>  0 0.13678999E+04</rscale>
<asrwt>0</asrwt>
<pdfrwt beam="1">  1        2 0.15364811E+00 0.13678999E+04</pdfrwt>
<pdfrwt beam="2">  1       -1 0.72060081E-01 0.13678999E+04</pdfrwt>
<totfact> 0.54592626E+01</totfact>
</mgrwt>
</event>
<event>
11    6  0.1663299E-008  0.1431716E+04  0.7818608E-02  0.8931175E-01
          2   -1    0    0  501    0  0.00000000000E+00  0.00000000000E+00  0.88603715171E+03  0.88603715171E+03  0.00000000000E+00 0. -1.
         -1   -1    0    0    0  501 -0.00000000000E+00 -0.00000000000E+00 -0.57836510713E+03  0.57836510713E+03  0.00000000000E+00 0.  1.
         24    2    1    2    0    0  0.14456439886E+03 -0.35342449392E+02  0.50290924405E+03  0.53049996599E+03  0.79778142476E+02 0.  0.
        254    2    1    2    0    0 -0.14456439886E+03  0.35342449392E+02 -0.19523719947E+03  0.93390229284E+03  0.90105936229E+03 0.  0.
         23    2    4    4    0    0 -0.17872196175E+03 -0.18700843364E+03  0.27911032207E+03  0.39181724960E+03  0.93297863483E+02 0.  0.
          2    1    3    3  502    0  0.60317300728E+02  0.18910291786E+02  0.26330444419E+03  0.27078590479E+03  0.00000000000E+00 0. -1.
         -1    1    3    3    0  502  0.84247098131E+02 -0.54252741178E+02  0.23960479986E+03  0.25971406120E+03  0.00000000000E+00 0.  1.
         11    1    4    4    0    0 -0.91352485250E+01  0.82964704880E+02 -0.60031584797E+02  0.10281238347E+03  0.00000000000E+00 0.  1.
        -11    1    4    4    0    0  0.43292811414E+02  0.13938617816E+03 -0.41431593675E+03  0.43927265977E+03  0.00000000000E+00 0. -1.
          4    1    5    5  503    0 -0.18751561563E+03 -0.18254347655E+03  0.25337502045E+03  0.36425695315E+03  0.00000000000E+00 0. -1.
         -4    1    5    5    0  503  0.87936538778E+01 -0.44649570979E+01  0.25735301630E+02  0.27560296449E+02  0.00000000000E+00 0.  1.
<mgrwt>
<rscale>  0 0.14317164E+04</rscale>
<asrwt>0</asrwt>
<pdfrwt beam="1">  1        2 0.13631341E+00 0.14317164E+04</pdfrwt>
<pdfrwt beam="2">  1       -1 0.88979247E-01 0.14317164E+04</pdfrwt>
<totfact> 0.41161085E+01</totfact>
</mgrwt>
</event>
<event>
12    6  0.1663299E-008  0.1180855E+04  0.7818608E-02  0.9129781E-01
          2   -1    0    0  501    0  0.00000000000E+00  0.00000000000E+00  0.90515007315E+03  0.90515007315E+03  0.00000000000E+00 0. -1.
         -1   -1    0    0    0  501 -0.00000000000E+00 -0.00000000000E+00 -0.38513473065E+03  0.38513473065E+03  0.00000000000E+00 0.  1.
         24    2    1    2    0    0  0.50904849160E+02 -0.14968296412E+03  0.29432212067E+03  0.34325220810E+03  0.78741820121E+02 0.  0.
        254    2    1    2    0    0 -0.50904849160E+02  0.14968296412E+03  0.22569322182E+03  0.94703259570E+03  0.90605574526E+03 0.  0.
         23    2    4    4    0    0  0.80444736552E+02 -0.68657485406E+01  0.54202790795E+03  0.55906820024E+03  0.11065489313E+03 0.  0.
         23    2    4    4    0    0 -0.13134958571E+03  0.15654871266E+03 -0.31633468613E+03  0.38796439546E+03  0.93212259874E+02 0.  0.
          4    1    3    3  502    0  0.54894524566E+02 -0.15583005880E+03  0.29211223737E+03  0.33559793694E+03  0.00000000000E+00 0. -1.
         -3    1    3    3    0  502 -0.39896754059E+01  0.61470946838E+01  0.22098832992E+01  0.76542711666E+01  0.00000000000E+00 0.  1.
         11    1    5    5    0    0 -0.23959534485E+02 -0.13152485869E+02  0.61676250378E+02  0.67461152065E+02  0.00000000000E+00 0. -1.
        -11    1    5    5    0    0  0.10440427104E+03  0.62867373282E+01  0.48035165758E+03  0.49160704817E+03  0.00000000000E+00 0.  1.
          4    1    6    6  503    0 -0.12961585517E+03  0.10267216090E+03 -0.27131894516E+03  0.31773544426E+03  0.00000000000E+00 0.  1.
         -4    1    6    6    0  503 -0.17337305423E+01  0.53876551764E+02 -0.45015740972E+02  0.70228951201E+02  0.00000000000E+00 0. -1.
<mgrwt>
<rscale>  0 0.11808552E+04</rscale>
<asrwt>0</asrwt>
<pdfrwt beam="1">  1        2 0.13925386E+00 0.11808552E+04</pdfrwt>
<pdfrwt beam="2">  1       -1 0.59251497E-01 0.11808552E+04</pdfrwt>
<totfact> 0.94682592E+01</totfact>
</mgrwt>
</event>
<event>
12    6  0.1663299E-008  0.1454112E+04  0.7818608E-02  0.8915555E-01
         -1   -1    0    0    0  501 -0.00000000000E+00  0.00000000000E+00  0.24086544443E+03  0.24086544443E+03  0.00000000000E+00 0.  1.
          2   -1    0    0  501    0  0.00000000000E+00 -0.00000000000E+00 -0.21946282584E+04  0.21946282584E+04  0.00000000000E+00 0. -1.
         24    2    1    2    0    0 -0.32604142085E+03  0.27693792832E+03 -0.35410513544E+03  0.56107486145E+03  0.80105736090E+02 0.  0.
        254    2    1    2    0    0  0.32604142085E+03 -0.27693792832E+03 -0.15996576785E+04  0.18744188413E+04  0.87837559172E+03 0.  0.
         23    2    4    4    0    0 -0.17392734421E+03 -0.38343392772E+03 -0.93562571413E+03  0.10313891954E+04  0.10533706579E+03 0.  0.
         23    2    4    4    0    0  0.49996876506E+03  0.10649599940E+03 -0.66403196437E+03  0.84302964595E+03  0.91925895817E+02 0.  0.
          2    1    3    3  502    0 -0.68215951924E+00 -0.46287706392E+01 -0.60519690013E+01  0.76496528047E+01  0.00000000000E+00 0. -1.
         -1    1    3    3    0  502 -0.32535926133E+03  0.28156669896E+03 -0.34805316643E+03  0.55342520865E+03  0.00000000000E+00 0.  1.
         11    1    5    5    0    0 -0.17304615583E+03 -0.37408159620E+03 -0.84380685015E+03  0.93909105683E+03  0.00000000000E+00 0.  1.
        -11    1    5    5    0    0 -0.88118837312E+00 -0.93523315205E+01 -0.91818863984E+02  0.92298138557E+02  0.00000000000E+00 0. -1.
          1    1    6    6  503    0  0.20961612957E+02 -0.67153751040E+01 -0.59638869732E+02  0.63571064671E+02  0.00000000000E+00 0. -1.
         -1    1    6    6    0  503  0.47900715210E+03  0.11321137451E+03 -0.60439309464E+03  0.77945858128E+03  0.00000000000E+00 0.  1.
<mgrwt>
<rscale>  0 0.14541116E+04</rscale>
<asrwt>0</asrwt>
<pdfrwt beam="1">  1        2 0.33763512E+00 0.14541116E+04</pdfrwt>
<pdfrwt beam="2">  1       -1 0.37056222E-01 0.14541116E+04</pdfrwt>
<totfact> 0.40249261E+01</totfact>
</mgrwt>
</event>
<event>
11    6  0.1663299E-008  0.1936881E+04  0.7818608E-02  0.8636713E-01
          2   -1    0    0  501    0  0.00000000000E+00  0.00000000000E+00  0.45525814147E+04  0.45525814147E+04  0.00000000000E+00 0. -1.
         -1   -1    0    0    0  501 -0.00000000000E+00 -0.00000000000E+00 -0.20600989320E+03  0.20600989320E+03  0.00000000000E+00 0.  1.
         24    2    1    2    0    0 -0.45634967989E+03  0.18773449862E+03  0.33853027227E+03  0.60400625012E+03  0.81984953716E+02 0.  0.
        254    2    1    2    0    0  0.45634967989E+03 -0.18773449862E+03  0.40080412492E+04  0.41545850578E+04  0.97605485216E+03 0.  0.
         23    2    4    4    0    0 -0.98785025329E+02 -0.44488975036E+03  0.18615690070E+04  0.19187312032E+04  0.91678193871E+02 0.  0.
          4    1    3    3  502    0 -0.45907434520E+02  0.19908068160E+02  0.73957961421E+01  0.50581829965E+02  0.00000000000E+00 0. -1.
         -3    1    3    3    0  502 -0.41044224537E+03  0.16782643046E+03  0.33113447613E+03  0.55342442016E+03  0.00000000000E+00 0.  1.
         11    1    4    4    0    0  0.55709439739E+03  0.24897001533E+03  0.20466403463E+04  0.21356677980E+04  0.00000000000E+00 0. -1.
        -11    1    4    4    0    0 -0.19596921756E+01  0.81852364042E+01  0.99831895923E+02  0.10018605657E+03  0.00000000000E+00 0.  1.
          3    1    5    5  503    0 -0.67053866374E+02 -0.36290329056E+03  0.13439130281E+04  0.13936632472E+04  0.00000000000E+00 0. -1.
         -3    1    5    5    0  503 -0.31731158955E+02 -0.81986459798E+02  0.51765597886E+03  0.52506795607E+03  0.00000000000E+00 0.  1.
<mgrwt>
<rscale>  0 0.19368808E+04</rscale>
<asrwt>0</asrwt>
<pdfrwt beam="1">  1        2 0.70039707E+00 0.19368808E+04</pdfrwt>
<pdfrwt beam="2">  1       -1 0.31693833E-01 0.19368808E+04</pdfrwt>
<totfact> 0.10954513E+00</totfact>
</mgrwt>
</event>
<event>
12    6  0.1663299E-008  0.2318326E+04  0.7818608E-02  0.8470730E-01
         -3   -1    0    0    0  501 -0.00000000000E+00  0.00000000000E+00  0.41714211901E+03  0.41714211901E+03  0.00000000000E+00 0.  1.
          2   -1    0    0  501    0  0.00000000000E+00 -0.00000000000E+00 -0.32211049452E+04  0.32211049452E+04  0.00000000000E+00 0. -1.
         24    2    1    2    0    0 -0.12278910125E+03  0.54569100093E+03 -0.24665425449E+04  0.25304570612E+04  0.80777353495E+02 0.  0.
        254    2    1    2    0    0  0.12278910125E+03 -0.54569100093E+03 -0.33742028133E+03  0.11077900031E+04  0.89470129805E+03 0.  0.
         23    2    4    4    0    0 -0.31950463792E+03 -0.45711765538E+03 -0.30572838381E+03  0.64653565770E+03  0.11618411040E+03 0.  0.
         23    2    4    4    0    0  0.44229373917E+03 -0.88573345556E+02 -0.31691897521E+02  0.46125434535E+03  0.91006623319E+02 0.  0.
          2    1    3    3  502    0 -0.40745461130E+02  0.30113192985E+03 -0.11966589458E+04  0.12346389206E+04  0.00000000000E+00 0. -1.
         -1    1    3    3    0  502 -0.82043640120E+02  0.24455907109E+03 -0.12698835991E+04  0.12958181406E+04  0.00000000000E+00 0.  1.
         11    1    5    5    0    0 -0.16321059469E+03 -0.13759528250E+03 -0.10147466342E+03  0.23636257594E+03  0.00000000000E+00 0.  1.
        -11    1    5    5    0    0 -0.15629404322E+03 -0.31952237288E+03 -0.20425372039E+03  0.41017308177E+03  0.00000000000E+00 0. -1.
          1    1    6    6  503    0  0.20145338653E+03 -0.17247725488E+02  0.25075525846E+02  0.20373937512E+03  0.00000000000E+00 0. -1.
         -1    1    6    6    0  503  0.24084035264E+03 -0.71325620069E+02 -0.56767423367E+02  0.25751497023E+03  0.00000000000E+00 0.  1.
<mgrwt>
<rscale>  0 0.23183257E+04</rscale>
<asrwt>0</asrwt>
<pdfrwt beam="1">  1        2 0.49555463E+00 0.23183257E+04</pdfrwt>
<pdfrwt beam="2">  1       -3 0.64175708E-01 0.23183257E+04</pdfrwt>
<totfact> 0.17254932E+00</totfact>
</mgrwt>
</event>
<event>
12    6  0.1663299E-008  0.2841490E+04  0.7818608E-02  0.8290502E-01
          2   -1    0    0  501    0  0.00000000000E+00  0.00000000000E+00  0.16239223925E+04  0.16239223925E+04  0.00000000000E+00 0. -1.
         -1   -1    0    0    0  501 -0.00000000000E+00 -0.00000000000E+00 -0.12429880793E+04  0.12429880793E+04  0.00000000000E+00 0.  1.
         24    2    1    2    0    0 -0.11616364613E+04 -0.47640278238E+03 -0.66335505487E+02  0.12608253370E+04  0.94452379312E+02 0.  0.
        254    2    1    2    0    0  0.11616364613E+04  0.47640278238E+03  0.44726981872E+03  0.16060851348E+04  0.89615863001E+03 0.  0.
         23    2    4    4    0    0  0.36739415010E+03  0.24159263671E+03  0.60617528678E+03  0.75845524721E+03  0.12025148680E+03 0.  0.
         23    2    4    4    0    0  0.79424231118E+03  0.23481014566E+03 -0.15890546806E+03  0.84762988756E+03  0.85257405111E+02 0.  0.
          4    1    3    3  502    0 -0.99475199414E+03 -0.39999090791E+03 -0.89188641889E+02  0.10758619196E+04  0.00000000000E+00 0. -1.
         -3    1    3    3    0  502 -0.16688446714E+03 -0.76411874462E+02  0.22853136401E+02  0.18496341739E+03  0.00000000000E+00 0.  1.
         11    1    5    5    0    0  0.80786910228E+02  0.38787660177E+02  0.21439182337E+03  0.23236794394E+03  0.00000000000E+00 0. -1.
        -11    1    5    5    0    0  0.28660723987E+03  0.20280497653E+03  0.39178346341E+03  0.52608730327E+03  0.00000000000E+00 0.  1.
          2    1    6    6  503    0  0.21143696211E+03  0.54234590100E+02 -0.79673455220E+02  0.23236789618E+03  0.00000000000E+00 0. -1.
         -2    1    6    6    0  503  0.58280534907E+03  0.18057555556E+03 -0.79232012836E+02  0.61526199137E+03  0.00000000000E+00 0.  1.
<mgrwt>
<rscale>  0 0.28414899E+04</rscale>
<asrwt>0</asrwt>
<pdfrwt beam="1">  1        2 0.24983421E+00 0.28414899E+04</pdfrwt>
<pdfrwt beam="2">  1       -1 0.19122894E+00 0.28414899E+04</pdfrwt>
<totfact> 0.18494242E+00</totfact>
</mgrwt>
</event>
<event>
12    6  0.1663299E-008  0.1226471E+04  0.7818608E-02  0.9089997E-01
         -1   -1    0    0    0  501 -0.00000000000E+00  0.00000000000E+00  0.37164823962E+03  0.37164823962E+03  0.00000000000E+00 0.  1.
          2   -1    0    0  501    0  0.00000000000E+00 -0.00000000000E+00 -0.10118645208E+04  0.10118645208E+04  0.00000000000E+00 0. -1.
         24    2    1    2    0    0 -0.26781791149E+03  0.36387230836E+01 -0.20605727189E+03  0.34776837411E+03  0.82119234703E+02 0.  0.
        254    2    1    2    0    0  0.26781791149E+03 -0.36387230836E+01 -0.43415900934E+03  0.10357443863E+04  0.90140596539E+03 0.  0.
         23    2    4    4    0    0  0.20102619986E+03  0.31380825698E+03 -0.55892342093E+03  0.67597524611E+03  0.75232889782E+02 0.  0.
         23    2    4    4    0    0  0.66791711634E+02 -0.31744698007E+03  0.12476441159E+03  0.35976914024E+03  0.92919093704E+02 0.  0.
          4    1    3    3  502    0 -0.40191866383E+02  0.56109347249E+00 -0.74998102605E+02  0.85090636051E+02  0.00000000000E+00 0. -1.
         -3    1    3    3    0  502 -0.22762604511E+03  0.30776296112E+01 -0.13105916928E+03  0.26267773805E+03  0.00000000000E+00 0.  1.
         11    1    5    5    0    0  0.16523887658E+02  0.22562699649E+02 -0.14331334199E+02  0.31424535299E+02  0.00000000000E+00 0. -1.
        -11    1    5    5    0    0  0.18450231220E+03  0.29124555734E+03 -0.54459208673E+03  0.64455071081E+03  0.00000000000E+00 0.  1.
          3    1    6    6  503    0 -0.23727729659E+02 -0.58445069812E+02  0.23060270146E+02  0.67161055674E+02  0.00000000000E+00 0. -1.
         -3    1    6    6    0  503  0.90519441293E+02 -0.25900191026E+03  0.10170414144E+03  0.29260808457E+03  0.00000000000E+00 0.  1.
<mgrwt>
<rscale>  0 0.12264708E+04</rscale>
<asrwt>0</asrwt>
<pdfrwt beam="1">  1        2 0.15567146E+00 0.12264708E+04</pdfrwt>
<pdfrwt beam="2">  1       -1 0.57176653E-01 0.12264708E+04</pdfrwt>
<totfact> 0.86132278E+01</totfact>
</mgrwt>
</event>
<event>
12    6  0.1663299E-008  0.2129115E+04  0.7818608E-02  0.8548525E-01
         -1   -1    0    0    0  501 -0.00000000000E+00  0.00000000000E+00  0.84508864980E+03  0.84508864980E+03  0.00000000000E+00 0.  1.
          2   -1    0    0  501    0  0.00000000000E+00 -0.00000000000E+00 -0.13410228529E+04  0.13410228529E+04  0.00000000000E+00 0. -1.
         24    2    1    2    0    0  0.48231913584E+03 -0.58919939698E+03  0.22222375836E+03  0.79705541579E+03  0.78270421358E+02 0.  0.
        254    2    1    2    0    0 -0.48231913584E+03  0.58919939698E+03 -0.71815796146E+03  0.13890560869E+04  0.91320221021E+03 0.  0.
         23    2    4    4    0    0 -0.24173144950E+03  0.20967360805E+03  0.18394070213E+03  0.37723846946E+03  0.77958741311E+02 0.  0.
         23    2    4    4    0    0 -0.24058768634E+03  0.37952578893E+03 -0.90209866359E+03  0.10118176174E+04  0.89836700861E+02 0.  0.
          2    1    3    3  502    0  0.27613173985E+03 -0.30956482994E+03  0.84624285306E+02  0.42336791488E+03  0.00000000000E+00 0. -1.
         -1    1    3    3    0  502  0.20618739599E+03 -0.27963456705E+03  0.13759947306E+03  0.37368750091E+03  0.00000000000E+00 0.  1.
         11    1    5    5    0    0 -0.15658577002E+03  0.12648469836E+03  0.71841441651E+02  0.21372570045E+03  0.00000000000E+00 0. -1.
        -11    1    5    5    0    0 -0.85145679483E+02  0.83188909687E+02  0.11209926048E+03  0.16351276901E+03  0.00000000000E+00 0.  1.
          4    1    6    6  503    0  0.35072419785E+01  0.35864969613E+02 -0.57215097710E+02  0.67617780188E+02  0.00000000000E+00 0. -1.
         -4    1    6    6    0  503 -0.24409492832E+03  0.34366081932E+03 -0.84488356588E+03  0.94419983725E+03  0.00000000000E+00 0.  1.
<mgrwt>
<rscale>  0 0.21291155E+04</rscale>
<asrwt>0</asrwt>
<pdfrwt beam="1">  1        2 0.20631121E+00 0.21291155E+04</pdfrwt>
<pdfrwt beam="2">  1       -1 0.13001364E+00 0.21291155E+04</pdfrwt>
<totfact> 0.83132722E+00</totfact>
</mgrwt>
</event>
<event>
12    6  0.1663299E-008  0.1841144E+04  0.7818608E-02  0.8684721E-01
         -1   -1    0    0    0  501 -0.00000000000E+00  0.00000000000E+00  0.15071606642E+04  0.15071606642E+04  0.00000000000E+00 0.  1.
          2   -1    0    0  501    0  0.00000000000E+00 -0.00000000000E+00 -0.56228406589E+03  0.56228406589E+03  0.00000000000E+00 0. -1.
         24    2    1    2    0    0 -0.42222296654E+03 -0.36433969842E+03  0.83706525483E+03  0.10090038322E+04  0.79967764115E+02 0.  0.
        254    2    1    2    0    0  0.42222296654E+03  0.36433969842E+03  0.10781134346E+03  0.10604408978E+04  0.89548643916E+03 0.  0.
         23    2    4    4    0    0  0.20220210907E+02  0.57477955684E+03 -0.18513273062E+02  0.58050361406E+03  0.76559184736E+02 0.  0.
         23    2    4    4    0    0  0.40200275563E+03 -0.21043985842E+03  0.12632461652E+03  0.47993728378E+03  0.92145201065E+02 0.  0.
          4    1    3    3  502    0 -0.18741632822E+03 -0.19205526266E+03  0.34309929161E+03  0.43557689092E+03  0.00000000000E+00 0. -1.
         -3    1    3    3    0  502 -0.23480663832E+03 -0.17228443576E+03  0.49396596322E+03  0.57342694131E+03  0.00000000000E+00 0.  1.
         11    1    5    5    0    0  0.10856057557E+01  0.24881165174E+01  0.68116231224E+01  0.73326307163E+01  0.00000000000E+00 0.  1.
        -11    1    5    5    0    0  0.19134605151E+02  0.57229144032E+03 -0.25324896184E+02  0.57317098335E+03  0.00000000000E+00 0. -1.
          1    1    6    6  503    0  0.39882638091E+03 -0.21620413892E+03  0.13060641164E+03  0.47208552886E+03  0.00000000000E+00 0. -1.
         -1    1    6    6    0  503  0.31763747196E+01  0.57642804981E+01 -0.42817951139E+01  0.78517549260E+01  0.00000000000E+00 0.  1.
<mgrwt>
<rscale>  0 0.18411436E+04</rscale>
<asrwt>0</asrwt>
<pdfrwt beam="1">  1        2 0.86505241E-01 0.18411436E+04</pdfrwt>
<pdfrwt beam="2">  1       -1 0.23187087E+00 0.18411436E+04</pdfrwt>
<totfact> 0.52871777E+00</totfact>
</mgrwt>
</event>
<event>
11    6  0.1663299E-008  0.2621972E+04  0.7818608E-02  0.8360776E-01
          2   -1    0    0  501    0  0.00000000000E+00  0.00000000000E+00  0.10964271129E+04  0.10964271129E+04  0.00000000000E+00 0. -1.
         -1   -1    0    0    0  501 -0.00000000000E+00 -0.00000000000E+00 -0.15675317343E+04  0.15675317343E+04  0.00000000000E+00 0.  1.
         24    2    1    2    0    0  0.87045662071E+03  0.33252280489E+03  0.49294590271E+03  0.10570556445E+04  0.78133400948E+02 0.  0.
        254    2    1    2    0    0 -0.87045662071E+03 -0.33252280489E+03 -0.96405052408E+03  0.16069032027E+04  0.88570782170E+03 0.  0.
         23    2    4    4    0    0 -0.77282469130E+03  0.96223834527E+02 -0.67802730589E+03  0.10365396109E+04  0.90422937350E+02 0.  0.
          2    1    3    3  502    0  0.83472303682E+03  0.30720323991E+03  0.48302667727E+03  0.10121517425E+04  0.00000000000E+00 0. -1.
         -3    1    3    3    0  502  0.35733583885E+02  0.25319564985E+02  0.99192254342E+01  0.44903902075E+02  0.00000000000E+00 0.  1.
         11    1    4    4    0    0 -0.87259609417E+02 -0.45595672646E+03 -0.26622770197E+03  0.53515228220E+03  0.00000000000E+00 0. -1.
        -11    1    4    4    0    0 -0.10372319984E+02  0.27210087043E+02 -0.19795516209E+02  0.35211309557E+02  0.00000000000E+00 0.  1.
          2    1    5    5  503    0 -0.54904509523E+03  0.56563528956E+02 -0.53069932012E+03  0.76569688375E+03  0.00000000000E+00 0. -1.
         -2    1    5    5    0  503 -0.22377959607E+03  0.39660305571E+02 -0.14732798577E+03  0.27084272714E+03  0.00000000000E+00 0.  1.
<mgrwt>
<rscale>  0 0.26219720E+04</rscale>
<asrwt>0</asrwt>
<pdfrwt beam="1">  1        2 0.16868110E+00 0.26219720E+04</pdfrwt>
<pdfrwt beam="2">  1       -1 0.24115873E+00 0.26219720E+04</pdfrwt>
<totfact> 0.17554956E+00</totfact>
</mgrwt>
</event>
<event>
11    6  0.1663299E-008  0.2694429E+04  0.7818608E-02  0.8336815E-01
          2   -1    0    0  501    0  0.00000000000E+00  0.00000000000E+00  0.15958099939E+04  0.15958099939E+04  0.00000000000E+00 0. -1.
         -1   -1    0    0    0  501 -0.00000000000E+00 -0.00000000000E+00 -0.11373451839E+04  0.11373451839E+04  0.00000000000E+00 0.  1.
         24    2    1    2    0    0 -0.93763809296E+03 -0.24790529957E+01  0.95205403421E+03  0.13387174316E+04  0.81155028494E+02 0.  0.
        254    2    1    2    0    0  0.93763809296E+03  0.24790529957E+01 -0.49358922420E+03  0.13944377461E+04  0.90645185558E+03 0.  0.
         23    2    4    4    0    0  0.12193950678E+03 -0.18029785866E+03 -0.49088009273E+03  0.54453715862E+03  0.90448275446E+02 0.  0.
          4    1    3    3  502    0 -0.92370596305E+03 -0.10333802401E+02  0.94409088224E+03  0.13208508953E+04  0.00000000000E+00 0. -1.
         -3    1    3    3    0  502 -0.13932129917E+02  0.78547494054E+01  0.79631519713E+01  0.17866536362E+02  0.00000000000E+00 0.  1.
         11    1    4    4    0    0  0.11010325731E+03  0.69315180280E+02 -0.34275612285E+02  0.13454419008E+03  0.00000000000E+00 0.  1.
        -11    1    4    4    0    0  0.70559532888E+03  0.11346173137E+03  0.31566480810E+02  0.71535639742E+03  0.00000000000E+00 0. -1.
          4    1    5    5  503    0  0.46204489054E+02 -0.12671441600E+03 -0.35722489419E+03  0.38183900149E+03  0.00000000000E+00 0. -1.
         -4    1    5    5    0  503  0.75735017722E+02 -0.53583442658E+02 -0.13365519854E+03  0.16269815713E+03  0.00000000000E+00 0.  1.
<mgrwt>
<rscale>  0 0.26944289E+04</rscale>
<asrwt>0</asrwt>
<pdfrwt beam="1">  1        2 0.24550923E+00 0.26944289E+04</pdfrwt>
<pdfrwt beam="2">  1       -1 0.17497618E+00 0.26944289E+04</pdfrwt>
<totfact> 0.25356031E+00</totfact>
</mgrwt>
</event>
<event>
12    6  0.1663299E-008  0.1146956E+04  0.7818608E-02  0.9160597E-01
          2   -1    0    0  501    0  0.00000000000E+00  0.00000000000E+00  0.19897542259E+04  0.19897542259E+04  0.00000000000E+00 0. -1.
         -1   -1    0    0    0  501 -0.00000000000E+00 -0.00000000000E+00 -0.16528514599E+03  0.16528514599E+03  0.00000000000E+00 0.  1.
         24    2    1    2    0    0 -0.15910512565E+03 -0.17098606237E+03  0.35005073106E+03  0.42807818834E+03  0.78515899558E+02 0.  0.
        254    2    1    2    0    0  0.15910512565E+03  0.17098606237E+03  0.14744183489E+04  0.17269611836E+04  0.86829418261E+03 0.  0.
         23    2    4    4    0    0  0.50554170725E+03  0.45778224463E+02  0.87909704807E+03  0.10211558064E+04  0.11081289396E+03 0.  0.
         23    2    4    4    0    0 -0.34643658160E+03  0.12520783790E+03  0.59532130078E+03  0.70580537713E+03  0.89768989525E+02 0.  0.
          4    1    3    3  502    0 -0.87505074614E+02 -0.92740109189E+02  0.25739095254E+03  0.28724200317E+03  0.00000000000E+00 0. -1.
         -3    1    3    3    0  502 -0.71600051037E+02 -0.78245953177E+02  0.92659778516E+02  0.14083618516E+03  0.00000000000E+00 0.  1.
         11    1    5    5    0    0  0.17724255573E+03  0.32663537194E+02  0.21751653690E+03  0.28248057286E+03  0.00000000000E+00 0.  1.
        -11    1    5    5    0    0  0.32829915153E+03  0.13114687269E+02  0.66158051117E+03  0.73867523356E+03  0.00000000000E+00 0. -1.
          3    1    6    6  503    0 -0.34517655082E+03  0.12825679095E+03  0.55932029851E+03  0.66965353130E+03  0.00000000000E+00 0. -1.
         -3    1    6    6    0  503 -0.12600307806E+01 -0.30489530480E+01  0.36001002274E+02  0.36151845831E+02  0.00000000000E+00 0.  1.
<mgrwt>
<rscale>  0 0.11469557E+04</rscale>
<asrwt>0</asrwt>
<pdfrwt beam="1">  1        2 0.30611602E+00 0.11469557E+04</pdfrwt>
<pdfrwt beam="2">  1       -1 0.25428485E-01 0.11469557E+04</pdfrwt>
<totfact> 0.10403525E+02</totfact>
</mgrwt>
</event>
<event>
11    6  0.1663299E-008  0.2671727E+04  0.7818608E-02  0.8344237E-01
         -1   -1    0    0    0  501 -0.00000000000E+00  0.00000000000E+00  0.40748176757E+03  0.40748176757E+03  0.00000000000E+00 0.  1.
          2   -1    0    0  501    0  0.00000000000E+00 -0.00000000000E+00 -0.43794141173E+04  0.43794141173E+04  0.00000000000E+00 0. -1.
         24    2    1    2    0    0  0.49523171761E+03  0.41167060239E+03 -0.35599357994E+04  0.36185900615E+04  0.79523570248E+02 0.  0.
        254    2    1    2    0    0 -0.49523171761E+03 -0.41167060239E+03 -0.41199655027E+03  0.11683058233E+04  0.88344224507E+03 0.  0.
         23    2    4    4    0    0 -0.50638189946E+03 -0.26682323769E+02  0.88125783535E+02  0.52282599198E+03  0.91903697754E+02 0.  0.
          2    1    3    3  502    0  0.48252691887E+03  0.40561549755E+03 -0.35251209245E+04  0.35810380746E+04  0.00000000000E+00 0. -1.
         -1    1    3    3    0  502  0.12704798737E+02  0.60551048404E+01 -0.34814874873E+02  0.37551986872E+02  0.00000000000E+00 0.  1.
         11    1    4    4    0    0 -0.17136015484E+00 -0.24036820515E+03 -0.40829745947E+03  0.47379712833E+03  0.00000000000E+00 0. -1.
        -11    1    4    4    0    0  0.11321542007E+02 -0.14462007348E+03 -0.91824874340E+02  0.17168270301E+03  0.00000000000E+00 0.  1.
          4    1    5    5  503    0 -0.28643522055E+03  0.24854218954E+02  0.26869842942E+02  0.28876436109E+03  0.00000000000E+00 0. -1.
         -4    1    5    5    0  503 -0.21994667891E+03 -0.51536542723E+02  0.61255940593E+02  0.23406163089E+03  0.00000000000E+00 0.  1.
<mgrwt>
<rscale>  0 0.26717271E+04</rscale>
<asrwt>0</asrwt>
<pdfrwt beam="1">  1        2 0.67375602E+00 0.26717271E+04</pdfrwt>
<pdfrwt beam="2">  1       -1 0.62689502E-01 0.26717271E+04</pdfrwt>
<totfact> 0.41509773E-01</totfact>
</mgrwt>
</event>
<event>
12    6  0.1663299E-008  0.1369935E+04  0.7818608E-02  0.8975873E-01
         -1   -1    0    0    0  501 -0.00000000000E+00  0.00000000000E+00  0.22826229315E+03  0.22826229315E+03  0.00000000000E+00 0.  1.
          2   -1    0    0  501    0  0.00000000000E+00 -0.00000000000E+00 -0.20554454438E+04  0.20554454438E+04  0.00000000000E+00 0. -1.
         24    2    1    2    0    0  0.87149376580E+02  0.15837362000E+03 -0.10842999793E+04  0.11021501026E+04  0.79694328581E+02 0.  0.
        254    2    1    2    0    0 -0.87149376580E+02 -0.15837362000E+03 -0.74288317132E+03  0.11815576344E+04  0.90084727887E+03 0.  0.
         23    2    4    4    0    0 -0.16238891940E+03 -0.42201349030E+03 -0.76428008494E+03  0.89471062505E+03  0.10916733572E+03 0.  0.
         23    2    4    4    0    0  0.75239542823E+02  0.26363987030E+03  0.21396913625E+02  0.28684700936E+03  0.81586817892E+02 0.  0.
          2    1    3    3  502    0  0.84934837226E+02  0.16123218626E+03 -0.10831241713E+04  0.10983477204E+04  0.00000000000E+00 0. -1.
         -1    1    3    3    0  502  0.22145393547E+01 -0.28585662588E+01 -0.11758080696E+01  0.38023821778E+01  0.00000000000E+00 0.  1.
         11    1    5    5    0    0 -0.20303959149E+02 -0.61386340044E+02 -0.48881394556E+02  0.81055069150E+02  0.00000000000E+00 0. -1.
        -11    1    5    5    0    0 -0.14208496025E+03 -0.36062715026E+03 -0.71539869039E+03  0.81365555590E+03  0.00000000000E+00 0.  1.
          3    1    6    6  503    0  0.20174724940E+02  0.40351007346E+01 -0.34761978398E+00  0.20577230228E+02  0.00000000000E+00 0. -1.
         -3    1    6    6    0  503  0.55064817884E+02  0.25960476956E+03  0.21744533409E+02  0.26626977913E+03  0.00000000000E+00 0.  1.
<mgrwt>
<rscale>  0 0.13699353E+04</rscale>
<asrwt>0</asrwt>
<pdfrwt beam="1">  1        2 0.31622236E+00 0.13699353E+04</pdfrwt>
<pdfrwt beam="2">  1       -1 0.35117278E-01 0.13699353E+04</pdfrwt>
<totfact> 0.53376053E+01</totfact>
</mgrwt>
</event>
<event>
12    6  0.1663299E-008  0.2642972E+04  0.7818608E-02  0.8353749E-01
          2   -1    0    0  501    0  0.00000000000E+00  0.00000000000E+00  0.12868195115E+04  0.12868195115E+04  0.00000000000E+00 0. -1.
         -1   -1    0    0    0  501 -0.00000000000E+00 -0.00000000000E+00 -0.13570866381E+04  0.13570866381E+04  0.00000000000E+00 0.  1.
         24    2    1    2    0    0  0.10059581198E+04  0.27035224351E+03  0.49333501063E+03  0.11553312891E+04  0.79805266151E+02 0.  0.
        254    2    1    2    0    0 -0.10059581198E+04 -0.27035224351E+03 -0.56360213729E+03  0.14885748605E+04  0.90175699146E+03 0.  0.
         23    2    4    4    0    0 -0.90237179157E+03  0.78324772825E+02 -0.62799706721E+03  0.11072677264E+04  0.10607488550E+03 0.  0.
         23    2    4    4    0    0 -0.10358632826E+03 -0.34867701633E+03  0.64394929921E+02  0.38130713403E+03  0.94565502911E+02 0.  0.
          2    1    3    3  502    0  0.84663320931E+03  0.20810618342E+03  0.43711108346E+03  0.97527538365E+03  0.00000000000E+00 0. -1.
         -1    1    3    3    0  502  0.15932491052E+03  0.62246060093E+02  0.56223927172E+02  0.18005590548E+03  0.00000000000E+00 0.  1.
         11    1    5    5    0    0 -0.86211534494E+03  0.52046402796E+02 -0.59989316292E+03  0.10515814295E+04  0.00000000000E+00 0.  1.
        -11    1    5    5    0    0 -0.40256446621E+02  0.26278370029E+02 -0.28103904294E+02  0.55686296900E+02  0.00000000000E+00 0. -1.
          3    1    6    6  503    0 -0.61186887255E+02 -0.71671504348E+02  0.22319207176E+01  0.94263572909E+02  0.00000000000E+00 0. -1.
         -3    1    6    6    0  503 -0.42399441008E+02 -0.27700551199E+03  0.62163009204E+02  0.28704356112E+03  0.00000000000E+00 0.  1.
<mgrwt>
<rscale>  0 0.26429722E+04</rscale>
<asrwt>0</asrwt>
<pdfrwt beam="1">  1        2 0.19797223E+00 0.26429722E+04</pdfrwt>
<pdfrwt beam="2">  1       -1 0.20878256E+00 0.26429722E+04</pdfrwt>
<totfact> 0.22143612E+00</totfact>
</mgrwt>
</event>
<event>
12    6  0.1663299E-008  0.3544982E+04  0.7818608E-02  0.8103212E-01
         -1   -1    0    0    0  501 -0.00000000000E+00  0.00000000000E+00  0.16681246225E+04  0.16681246225E+04  0.00000000000E+00 0.  1.
          2   -1    0    0  501    0  0.00000000000E+00 -0.00000000000E+00 -0.18833873173E+04  0.18833873173E+04  0.00000000000E+00 0. -1.
         24    2    1    2    0    0  0.52287733574E+03 -0.26514199506E+03  0.14513481332E+04  0.15675529296E+04  0.84319616658E+02 0.  0.
        254    2    1    2    0    0 -0.52287733574E+03  0.26514199506E+03 -0.16666108281E+04  0.19839590102E+04  0.90266312434E+03 0.  0.
         23    2    4    4    0    0 -0.19949397263E+02 -0.13439247444E+03 -0.11346768613E+04  0.11451518517E+04  0.73633337182E+02 0.  0.
         23    2    4    4    0    0 -0.50292793847E+03  0.39953446950E+03 -0.53193396675E+03  0.83880715842E+03  0.89885485008E+02 0.  0.
          4    1    3    3  502    0  0.56314905270E+02 -0.60762306872E+02  0.19406784685E+03  0.21101126907E+03  0.00000000000E+00 0. -1.
         -3    1    3    3    0  502  0.46656243047E+03 -0.20437968819E+03  0.12572802863E+04  0.13565416606E+04  0.00000000000E+00 0.  1.
         11    1    5    5    0    0 -0.29152843535E+02 -0.86966403307E+02 -0.94417138591E+03  0.94861617610E+03  0.00000000000E+00 0. -1.
        -11    1    5    5    0    0  0.92034462724E+01 -0.47426071133E+02 -0.19050547539E+03  0.19653567564E+03  0.00000000000E+00 0.  1.
          1    1    6    6  503    0 -0.49369949920E+03  0.39793944598E+03 -0.53424171521E+03  0.82916175047E+03  0.00000000000E+00 0. -1.
         -1    1    6    6    0  503 -0.92284392769E+01  0.15950235202E+01  0.23077484595E+01  0.96454079473E+01  0.00000000000E+00 0.  1.
<mgrwt>
<rscale>  0 0.35449822E+04</rscale>
<asrwt>0</asrwt>
<pdfrwt beam="1">  1        2 0.28975190E+00 0.35449822E+04</pdfrwt>
<pdfrwt beam="2">  1       -1 0.25663456E+00 0.35449822E+04</pdfrwt>
<totfact> 0.45592977E-01</totfact>
</mgrwt>
</event>
<event>
12    6  0.1663299E-008  0.1883036E+04  0.7818608E-02  0.8663347E-01
         -1   -1    0    0    0  501 -0.00000000000E+00  0.00000000000E+00  0.26365221401E+04  0.26365221401E+04  0.00000000000E+00 0.  1.
          2   -1    0    0  501    0  0.00000000000E+00 -0.00000000000E+00 -0.33622178052E+03  0.33622178052E+03  0.00000000000E+00 0. -1.
         24    2    1    2    0    0  0.15860398510E+03 -0.48679384752E+03  0.16515989131E+04  0.17310307437E+04  0.81024638057E+02 0.  0.
        254    2    1    2    0    0 -0.15860398510E+03  0.48679384752E+03  0.64870144651E+03  0.12417131769E+04  0.92677644172E+03 0.  0.
         23    2    4    4    0    0 -0.39711084355E+03  0.58902690085E+03  0.25552197361E+03  0.76208736959E+03  0.10409595525E+03 0.  0.
         23    2    4    4    0    0  0.23850685845E+03 -0.10223305333E+03  0.39317947290E+03  0.47962580733E+03  0.90076070189E+02 0.  0.
          4    1    3    3  502    0  0.35553681219E+02 -0.48915614877E+02  0.26196144372E+03  0.26885051539E+03  0.00000000000E+00 0. -1.
         -3    1    3    3    0  502  0.12305030388E+03 -0.43787823264E+03  0.13896374694E+04  0.14621802283E+04  0.00000000000E+00 0.  1.
         11    1    5    5    0    0 -0.28849514585E+02  0.97491104384E+02  0.57309982442E+02  0.11671008531E+03  0.00000000000E+00 0. -1.
        -11    1    5    5    0    0 -0.36826132896E+03  0.49153579647E+03  0.19821199117E+03  0.64537728427E+03  0.00000000000E+00 0.  1.
          4    1    6    6  503    0  0.18015797983E+03 -0.11497102625E+03  0.32517033174E+03  0.38911563734E+03  0.00000000000E+00 0. -1.
         -4    1    6    6    0  503  0.58348878611E+02  0.12737972926E+02  0.68009141161E+02  0.90510169986E+02  0.00000000000E+00 0.  1.
<mgrwt>
<rscale>  0 0.18830360E+04</rscale>
<asrwt>0</asrwt>
<pdfrwt beam="1">  1        2 0.51726429E-01 0.18830360E+04</pdfrwt>
<pdfrwt beam="2">  1       -1 0.40561878E+00 0.18830360E+04</pdfrwt>
<totfact> 0.68047969E-01</totfact>
</mgrwt>
</event>
<event>
12    6  0.1663299E-008  0.2326322E+04  0.7818608E-02  0.8467614E-01
          2   -1    0    0  501    0  0.00000000000E+00  0.00000000000E+00  0.24536757218E+04  0.24536757218E+04  0.00000000000E+00 0. -1.
         -1   -1    0    0    0  501 -0.00000000000E+00 -0.00000000000E+00 -0.55139454911E+03  0.55139454911E+03  0.00000000000E+00 0.  1.
         24    2    1    2    0    0  0.31936374595E+03 -0.93069121700E+03  0.86587343438E+03  0.13131585344E+04  0.80431266205E+02 0.  0.
        254    2    1    2    0    0 -0.31936374595E+03  0.93069121700E+03  0.10364077383E+04  0.16919117365E+04  0.90567377149E+03 0.  0.
         23    2    4    4    0    0  0.17242045252E+03  0.12281846840E+03  0.59846241126E+03  0.64572098748E+03  0.11825881509E+03 0.  0.
         23    2    4    4    0    0 -0.49178419847E+03  0.80787274860E+03  0.43794532705E+03  0.10461907490E+04  0.90602969131E+02 0.  0.
          2    1    3    3  502    0  0.32223352289E+03 -0.91315418217E+03  0.84082926436E+03  0.12824503326E+04  0.00000000000E+00 0. -1.
         -1    1    3    3    0  502 -0.28697769470E+01 -0.17537034823E+02  0.25044170025E+02  0.30708201874E+02  0.00000000000E+00 0.  1.
         11    1    5    5    0    0  0.81236398431E+02  0.83386037685E+02  0.17099961282E+03  0.20686578087E+03  0.00000000000E+00 0. -1.
        -11    1    5    5    0    0  0.91184054090E+02  0.39432430714E+02  0.42746279844E+03  0.43885520661E+03  0.00000000000E+00 0.  1.
          1    1    6    6  503    0 -0.48425758423E+03  0.80340142109E+03  0.44147140607E+03  0.10367527447E+04  0.00000000000E+00 0.  1.
         -1    1    6    6    0  503 -0.75266142386E+01  0.44713275062E+01 -0.35260790229E+01  0.94380042827E+01  0.00000000000E+00 0. -1.
<mgrwt>
<rscale>  0 0.23263219E+04</rscale>
<asrwt>0</asrwt>
<pdfrwt beam="1">  1        2 0.37748857E+00 0.23263219E+04</pdfrwt>
<pdfrwt beam="2">  1       -1 0.84829932E-01 0.23263219E+04</pdfrwt>
<totfact> 0.52400411E+00</totfact>
</mgrwt>
</event>
<event>
11    6  0.1663299E-008  0.2389358E+04  0.7818608E-02  0.8443499E-01
          2   -1    0    0  501    0  0.00000000000E+00  0.00000000000E+00  0.11160523832E+04  0.11160523832E+04  0.00000000000E+00 0. -1.
         -1   -1    0    0    0  501 -0.00000000000E+00 -0.00000000000E+00 -0.12788446295E+04  0.12788446295E+04  0.00000000000E+00 0.  1.
         24    2    1    2    0    0 -0.32212414037E+03  0.59381338403E+03  0.68572356955E+03  0.96600950199E+03  0.81112559053E+02 0.  0.
        254    2    1    2    0    0  0.32212414037E+03 -0.59381338403E+03 -0.84851581585E+03  0.14288875108E+04  0.93024842481E+03 0.  0.
         23    2    4    4    0    0  0.10436308877E+03 -0.80612918573E+03 -0.58890689478E+03  0.10082493033E+04  0.94970566102E+02 0.  0.
          2    1    3    3  502    0 -0.91116247387E+02  0.24771475137E+03  0.28147774698E+03  0.38586848877E+03  0.00000000000E+00 0. -1.
         -1    1    3    3    0  502 -0.23100789298E+03  0.34609863266E+03  0.40424582257E+03  0.58014101322E+03  0.00000000000E+00 0.  1.
         11    1    4    4    0    0  0.19494248153E+03  0.22374955361E+03 -0.20596250512E+03  0.36122982624E+03  0.00000000000E+00 0.  1.
        -11    1    4    4    0    0  0.22818570067E+02 -0.11433751912E+02 -0.53646415946E+02  0.59408381282E+02  0.00000000000E+00 0. -1.
          1    1    5    5  503    0  0.34622486082E+02 -0.72020719786E+02 -0.42908746660E+02  0.90702046068E+02  0.00000000000E+00 0. -1.
         -1    1    5    5    0  503  0.69740602690E+02 -0.73410846595E+03 -0.54599814812E+03  0.91754725720E+03  0.00000000000E+00 0.  1.
<mgrwt>
<rscale>  0 0.23893577E+04</rscale>
<asrwt>0</asrwt>
<pdfrwt beam="1">  1        2 0.17170037E+00 0.23893577E+04</pdfrwt>
<pdfrwt beam="2">  1       -1 0.19674533E+00 0.23893577E+04</pdfrwt>
<totfact> 0.34635813E+00</totfact>
</mgrwt>
</event>
<event>
12    6  0.1663299E-008  0.1528852E+04  0.7818608E-02  0.8865490E-01
         -1   -1    0    0    0  501 -0.00000000000E+00  0.00000000000E+00  0.17201611676E+03  0.17201611676E+03  0.00000000000E+00 0.  1.
          2   -1    0    0  501    0  0.00000000000E+00 -0.00000000000E+00 -0.33970488520E+04  0.33970488520E+04  0.00000000000E+00 0. -1.
         24    2    1    2    0    0 -0.21475748903E+03  0.12974079979E+03 -0.20324611269E+04  0.20494500248E+04  0.79960724750E+02 0.  0.
        254    2    1    2    0    0  0.21475748903E+03 -0.12974079979E+03 -0.11925716083E+04  0.15196149440E+04  0.90777149255E+03 0.  0.
         23    2    4    4    0    0  0.42811821229E+03  0.23653680330E+03 -0.76694224510E+03  0.91230457465E+03  0.69745011323E+02 0.  0.
         23    2    4    4    0    0 -0.21336072326E+03 -0.36627760308E+03 -0.42562936323E+03  0.60731036931E+03  0.89350148699E+02 0.  0.
          4    1    3    3  502    0 -0.21978317814E+03  0.12085275025E+03 -0.18815683722E+04  0.18982122042E+04  0.00000000000E+00 0. -1.
         -3    1    3    3    0  502  0.50256891172E+01  0.88880495335E+01 -0.15089275463E+03  0.15123782059E+03  0.00000000000E+00 0.  1.
         11    1    5    5    0    0  0.41920692320E+03  0.24119736074E+03 -0.74578611946E+03  0.88887993973E+03  0.00000000000E+00 0. -1.
        -11    1    5    5    0    0  0.89112890861E+01 -0.46605574380E+01 -0.21156125645E+02  0.23424634920E+02  0.00000000000E+00 0.  1.
          4    1    6    6  503    0 -0.80135215481E+02 -0.65129144954E+02 -0.11599319503E+03  0.15529932253E+03  0.00000000000E+00 0. -1.
         -4    1    6    6    0  503 -0.13322550778E+03 -0.30114845813E+03 -0.30963616819E+03  0.45201104678E+03  0.00000000000E+00 0.  1.
<mgrwt>
<rscale>  0 0.15288521E+04</rscale>
<asrwt>0</asrwt>
<pdfrwt beam="1">  1        2 0.52262288E+00 0.15288521E+04</pdfrwt>
<pdfrwt beam="2">  1       -1 0.26464019E-01 0.15288521E+04</pdfrwt>
<totfact> 0.13512610E+01</totfact>
</mgrwt>
</event>
<event>
12    6  0.1663299E-008  0.1521613E+04  0.7818608E-02  0.8870207E-01
          2   -1    0    0  501    0  0.00000000000E+00  0.00000000000E+00  0.34878645463E+03  0.34878645463E+03  0.00000000000E+00 0. -1.
         -1   -1    0    0    0  501 -0.00000000000E+00 -0.00000000000E+00 -0.16595434308E+04  0.16595434308E+04  0.00000000000E+00 0.  1.
         24    2    1    2    0    0 -0.32816897265E+03 -0.10768921520E+03 -0.87756656838E+03  0.94623978338E+03  0.77167376626E+02 0.  0.
        254    2    1    2    0    0  0.32816897265E+03  0.10768921520E+03 -0.43319040777E+03  0.10620901020E+04  0.90613995264E+03 0.  0.
         23    2    4    4    0    0  0.18509761544E+03 -0.43938386790E+02 -0.68639235388E+03  0.72217606395E+03  0.11921449072E+03 0.  0.
         23    2    4    4    0    0  0.14307135721E+03  0.15162760199E+03  0.25320194612E+03  0.33991403808E+03  0.89274771512E+02 0.  0.
          2    1    3    3  502    0 -0.14412033908E+03 -0.78891341146E+02 -0.47624718350E+03  0.50379152001E+03  0.00000000000E+00 0. -1.
         -1    1    3    3    0  502 -0.18404863357E+03 -0.28797874055E+02 -0.40131938489E+03  0.44244826337E+03  0.00000000000E+00 0.  1.
         11    1    5    5    0    0  0.13995304627E+03  0.22248843283E+02 -0.48972025432E+03  0.50981152761E+03  0.00000000000E+00 0. -1.
        -11    1    5    5    0    0  0.45144569175E+02 -0.66187230073E+02 -0.19667209956E+03  0.21236453635E+03  0.00000000000E+00 0.  1.
          3    1    6    6  503    0  0.31983857892E+02  0.17486148326E+02  0.51363133542E+01  0.36811876667E+02  0.00000000000E+00 0.  1.
         -3    1    6    6    0  503  0.11108749932E+03  0.13414145367E+03  0.24806563276E+03  0.30310216142E+03  0.00000000000E+00 0. -1.
<mgrwt>
<rscale>  0 0.15216127E+04</rscale>
<asrwt>0</asrwt>
<pdfrwt beam="1">  1        2 0.53659455E-01 0.15216127E+04</pdfrwt>
<pdfrwt beam="2">  1       -1 0.25531437E+00 0.15216127E+04</pdfrwt>
<totfact> 0.65970479E+00</totfact>
</mgrwt>
</event>
<event>
11    6  0.1663299E-008  0.1857547E+04  0.7818608E-02  0.8676281E-01
         -1   -1    0    0    0  501 -0.00000000000E+00  0.00000000000E+00  0.78231022366E+03  0.78231022366E+03  0.00000000000E+00 0.  1.
          2   -1    0    0  501    0  0.00000000000E+00 -0.00000000000E+00 -0.11026575195E+04  0.11026575195E+04  0.00000000000E+00 0. -1.
         24    2    1    2    0    0 -0.17072865881E+03 -0.47079172199E+03 -0.60934933857E+03  0.79256358687E+03  0.77828673243E+02 0.  0.
        254    2    1    2    0    0  0.17072865881E+03  0.47079172199E+03  0.28900204270E+03  0.10924041563E+04  0.92683954365E+03 0.  0.
         23    2    4    4    0    0  0.51559986996E+03  0.12468066189E+03  0.16811357087E+03  0.56402747633E+03  0.92066975593E+02 0.  0.
          4    1    3    3  502    0 -0.15741185369E+03 -0.46604657932E+03 -0.59868186454E+03  0.77485345757E+03  0.00000000000E+00 0. -1.
         -3    1    3    3    0  502 -0.13316805121E+02 -0.47451426685E+01 -0.10667474034E+02  0.17710129300E+02  0.00000000000E+00 0.  1.
         11    1    4    4    0    0 -0.78684411968E+02  0.15797974138E+03 -0.10803644677E+02  0.17682068349E+03  0.00000000000E+00 0. -1.
        -11    1    4    4    0    0 -0.26618679918E+03  0.18813131871E+03  0.13169211651E+03  0.35155599652E+03  0.00000000000E+00 0.  1.
          4    1    5    5  503    0  0.46895897191E+03  0.12970905432E+03  0.13013137879E+03  0.50366767997E+03  0.00000000000E+00 0.  1.
         -4    1    5    5    0  503  0.46640898049E+02 -0.50283924233E+01  0.37982192074E+02  0.60359796355E+02  0.00000000000E+00 0. -1.
<mgrwt>
<rscale>  0 0.18575470E+04</rscale>
<asrwt>0</asrwt>
<pdfrwt beam="1">  1        2 0.16963962E+00 0.18575470E+04</pdfrwt>
<pdfrwt beam="2">  1       -1 0.12035542E+00 0.18575470E+04</pdfrwt>
<totfact> 0.14298622E+01</totfact>
</mgrwt>
</event>
<event>
12    6  0.1663299E-008  0.2841026E+04  0.7818608E-02  0.8290643E-01
          2   -1    0    0  501    0  0.00000000000E+00  0.00000000000E+00  0.21911313510E+04  0.21911313510E+04  0.00000000000E+00 0. -1.
         -1   -1    0    0    0  501 -0.00000000000E+00 -0.00000000000E+00 -0.92092015341E+03  0.92092015341E+03  0.00000000000E+00 0.  1.
         24    2    1    2    0    0 -0.91868547613E+03  0.86584310193E+03  0.35572630847E+03  0.13140687067E+04  0.81043681286E+02 0.  0.
        254    2    1    2    0    0  0.91868547613E+03 -0.86584310193E+03  0.91448488910E+03  0.17979827976E+04  0.89598674490E+03 0.  0.
         23    2    4    4    0    0  0.25229961866E+03 -0.83405830829E+03  0.48103895891E+03  0.99710672917E+03  0.59287352542E+02 0.  0.
         23    2    4    4    0    0  0.66638585747E+03 -0.31784793644E+02  0.43344593019E+03  0.80087606847E+03  0.91906030907E+02 0.  0.
          2    1    3    3  502    0 -0.35675670438E+03  0.31436168856E+03  0.96801549505E+02  0.48525164331E+03  0.00000000000E+00 0. -1.
         -1    1    3    3    0  502 -0.56192877175E+03  0.55148141338E+03  0.25892475897E+03  0.82881706343E+03  0.00000000000E+00 0.  1.
         11    1    5    5    0    0  0.11215839273E+03 -0.46238403526E+03  0.27694912863E+03  0.55052640351E+03  0.00000000000E+00 0.  1.
        -11    1    5    5    0    0  0.14014122594E+03 -0.37167427303E+03  0.20408983028E+03  0.44658032566E+03  0.00000000000E+00 0. -1.
          2    1    6    6  503    0  0.31502253499E+03  0.71101724138E+01  0.25225652412E+03  0.40363734474E+03  0.00000000000E+00 0. -1.
         -2    1    6    6    0  503  0.35136332247E+03 -0.38894966057E+02  0.18118940607E+03  0.39723872374E+03  0.00000000000E+00 0.  1.
<mgrwt>
<rscale>  0 0.28410259E+04</rscale>
<asrwt>0</asrwt>
<pdfrwt beam="1">  1        2 0.33709713E+00 0.28410259E+04</pdfrwt>
<pdfrwt beam="2">  1       -1 0.14168002E+00 0.28410259E+04</pdfrwt>
<totfact> 0.20926136E+00</totfact>
</mgrwt>
</event>
<event>
12    6  0.1663299E-008  0.1791359E+04  0.7818608E-02  0.8710908E-01
          2   -1    0    0  501    0  0.00000000000E+00  0.00000000000E+00  0.20221376933E+04  0.20221376933E+04  0.00000000000E+00 0. -1.
         -1   -1    0    0    0  501 -0.00000000000E+00 -0.00000000000E+00 -0.39672944020E+03  0.39672944020E+03  0.00000000000E+00 0.  1.
         24    2    1    2    0    0  0.47574922980E+03 -0.45259455536E+03  0.47616650150E+03  0.81536262351E+03  0.83081342471E+02 0.  0.
        254    2    1    2    0    0 -0.47574922980E+03  0.45259455536E+03  0.11492417516E+04  0.16035045100E+04  0.90514692111E+03 0.  0.
         23    2    4    4    0    0 -0.24082724857E+03  0.14576585416E+03  0.11675480453E+04  0.12064387771E+04  0.11437061146E+03 0.  0.
         23    2    4    4    0    0 -0.23492198123E+03  0.30682870120E+03 -0.18306293686E+02  0.39706573297E+03  0.89408538561E+02 0.  0.
          2    1    3    3  502    0  0.43007053527E+03 -0.41083391637E+03  0.45856522404E+03  0.75101746774E+03  0.00000000000E+00 0. -1.
         -1    1    3    3    0  502  0.45678694530E+02 -0.41760638992E+02  0.17601277456E+02  0.64345155770E+02  0.00000000000E+00 0.  1.
         11    1    5    5    0    0 -0.10919346764E+03  0.32153794368E+01  0.45695932944E+03  0.46983548270E+03  0.00000000000E+00 0.  1.
        -11    1    5    5    0    0 -0.13163378093E+03  0.14255047472E+03  0.71058871588E+03  0.73660329436E+03  0.00000000000E+00 0. -1.
          3    1    6    6  503    0 -0.20778576303E+03  0.20783395018E+03 -0.94813622474E+01  0.29404042306E+03  0.00000000000E+00 0. -1.
         -3    1    6    6    0  503 -0.27136218204E+02  0.98994751012E+02 -0.88249314382E+01  0.10302530991E+03  0.00000000000E+00 0.  1.
<mgrwt>
<rscale>  0 0.17913588E+04</rscale>
<asrwt>0</asrwt>
<pdfrwt beam="1">  1        2 0.31109810E+00 0.17913588E+04</pdfrwt>
<pdfrwt beam="2">  1       -1 0.61035300E-01 0.17913588E+04</pdfrwt>
<totfact> 0.19022403E+01</totfact>
</mgrwt>
</event>
<event>
11    6  0.1663299E-008  0.1503079E+04  0.7818608E-02  0.8882408E-01
          2   -1    0    0  501    0  0.00000000000E+00  0.00000000000E+00  0.16841999202E+04  0.16841999202E+04  0.00000000000E+00 0. -1.
         -1   -1    0    0    0  501 -0.00000000000E+00 -0.00000000000E+00 -0.33535923185E+03  0.33535923185E+03  0.00000000000E+00 0.  1.
         24    2    1    2    0    0  0.12567716635E+03 -0.45024123278E+03  0.44307062287E+03  0.65091731177E+03  0.94179892123E+02 0.  0.
        254    2    1    2    0    0 -0.12567716635E+03  0.45024123278E+03  0.90577006551E+03  0.13686418403E+04  0.91337240908E+03 0.  0.
         23    2    4    4    0    0 -0.13774107887E+03 -0.64216505113E+02  0.40238702534E+03  0.43981974992E+03  0.91813560673E+02 0.  0.
          2    1    3    3  502    0  0.89291358267E+02 -0.40725740172E+03  0.41391723978E+03  0.58750235685E+03  0.00000000000E+00 0. -1.
         -1    1    3    3    0  502  0.36385808082E+02 -0.42983831056E+02  0.29153383086E+02  0.63414954919E+02  0.00000000000E+00 0.  1.
         11    1    4    4    0    0 -0.17047889766E+03  0.16345751813E+03  0.47705343836E+03  0.53231700878E+03  0.00000000000E+00 0. -1.
        -11    1    4    4    0    0  0.18254281019E+03  0.35100021976E+03  0.26329601815E+02  0.39650508162E+03  0.00000000000E+00 0.  1.
          3    1    5    5  503    0 -0.12660564973E+03 -0.60590604974E+02  0.24779773885E+03  0.28478751963E+03  0.00000000000E+00 0. -1.
         -3    1    5    5    0  503 -0.11135429137E+02 -0.36259001392E+01  0.15458928648E+03  0.15503223029E+03  0.00000000000E+00 0.  1.
<mgrwt>
<rscale>  0 0.15030795E+04</rscale>
<asrwt>0</asrwt>
<pdfrwt beam="1">  1        2 0.25910767E+00 0.15030795E+04</pdfrwt>
<pdfrwt beam="2">  1       -1 0.51593729E-01 0.15030795E+04</pdfrwt>
<totfact> 0.41629072E+01</totfact>
</mgrwt>
</event>
<event>
11    6  0.1663299E-008  0.2302139E+04  0.7818608E-02  0.8477078E-01
          2   -1    0    0  501    0  0.00000000000E+00  0.00000000000E+00  0.34975591970E+04  0.34975591970E+04  0.00000000000E+00 0. -1.
         -1   -1    0    0    0  501 -0.00000000000E+00 -0.00000000000E+00 -0.37882461876E+03  0.37882461876E+03  0.00000000000E+00 0.  1.
         24    2    1    2    0    0 -0.41700896232E+03  0.88153812429E+03  0.13234825455E+04  0.16457214250E+04  0.76072474843E+02 0.  0.
        254    2    1    2    0    0  0.41700896232E+03 -0.88153812429E+03  0.17952520328E+04  0.22306623907E+04  0.89549924677E+03 0.  0.
         23    2    4    4    0    0 -0.10457356780E+03 -0.68688075438E+03  0.12636270295E+04  0.14449886038E+04  0.92184562946E+02 0.  0.
          4    1    3    3  502    0 -0.17044834534E+02  0.19102891545E+02  0.20511513313E+02  0.32805015288E+02  0.00000000000E+00 0. -1.
         -3    1    3    3    0  502 -0.39996412779E+03  0.86243523274E+03  0.13029710321E+04  0.16129164097E+04  0.00000000000E+00 0.  1.
         11    1    4    4    0    0  0.85575434405E+02 -0.98989816679E+02  0.14291591398E+03  0.19377073373E+03  0.00000000000E+00 0.  1.
        -11    1    4    4    0    0  0.43600709572E+03 -0.95667553232E+02  0.38870908926E+03  0.59190305315E+03  0.00000000000E+00 0. -1.
          1    1    5    5  503    0 -0.74626074414E+02 -0.41381865327E+03  0.67229760680E+03  0.79296847408E+03  0.00000000000E+00 0. -1.
         -1    1    5    5    0  503 -0.29947493389E+02 -0.27306210110E+03  0.59132942274E+03  0.65202012977E+03  0.00000000000E+00 0.  1.
<mgrwt>
<rscale>  0 0.23021395E+04</rscale>
<asrwt>0</asrwt>
<pdfrwt beam="1">  1        2 0.53808601E+00 0.23021395E+04</pdfrwt>
<pdfrwt beam="2">  1       -1 0.58280713E-01 0.23021395E+04</pdfrwt>
<totfact> 0.25174833E+00</totfact>
</mgrwt>
</event>
<event>
12    6  0.1663299E-008  0.1690686E+04  0.7818608E-02  0.8766694E-01
          2   -1    0    0  501    0  0.00000000000E+00  0.00000000000E+00  0.15511298305E+04  0.15511298305E+04  0.00000000000E+00 0. -1.
         -1   -1    0    0    0  501 -0.00000000000E+00 -0.00000000000E+00 -0.46069947304E+03  0.46069947304E+03  0.00000000000E+00 0.  1.
         24    2    1    2    0    0 -0.32374557302E+03  0.20581881187E+03 -0.15232488085E+03  0.42039285548E+03  0.79716398822E+02 0.  0.
        254    2    1    2    0    0  0.32374557302E+03 -0.20581881187E+03  0.12427552383E+04  0.15914364481E+04  0.91709149300E+03 0.  0.
         23    2    4    4    0    0  0.60238679705E+03 -0.11270677285E+03  0.10754916040E+04  0.12423537657E+04  0.10577343223E+03 0.  0.
         23    2    4    4    0    0 -0.27864122403E+03 -0.93112039026E+02  0.16726363437E+03  0.34908268243E+03  0.87010414595E+02 0.  0.
          2    1    3    3  502    0 -0.55943252387E+02  0.32503516234E+01 -0.21288106880E+02  0.59944939469E+02  0.00000000000E+00 0. -1.
         -1    1    3    3    0  502 -0.26780232064E+03  0.20256846025E+03 -0.13103677397E+03  0.36044791601E+03  0.00000000000E+00 0.  1.
         11    1    5    5    0    0  0.37880996215E+03 -0.12006976603E+03  0.65712571941E+03  0.76793746311E+03  0.00000000000E+00 0.  1.
        -11    1    5    5    0    0  0.22357683490E+03  0.73629931862E+01  0.41836588455E+03  0.47441630255E+03  0.00000000000E+00 0. -1.
          1    1    6    6  503    0 -0.68576645997E+02 -0.54111867562E+02  0.20063015244E+02  0.89629097775E+02  0.00000000000E+00 0. -1.
         -1    1    6    6    0  503 -0.21006457803E+03 -0.39000171464E+02  0.14720061913E+03  0.25945358465E+03  0.00000000000E+00 0.  1.
<mgrwt>
<rscale>  0 0.16906859E+04</rscale>
<asrwt>0</asrwt>
<pdfrwt beam="1">  1        2 0.23863536E+00 0.16906859E+04</pdfrwt>
<pdfrwt beam="2">  1       -1 0.70876843E-01 0.16906859E+04</pdfrwt>
<totfact> 0.25917369E+01</totfact>
</mgrwt>
</event>
<event>
11    6  0.1663299E-008  0.1695993E+04  0.7818608E-02  0.8763653E-01
         -3   -1    0    0    0  501 -0.00000000000E+00  0.00000000000E+00  0.10703298409E+04  0.10703298409E+04  0.00000000000E+00 0.  1.
          2   -1    0    0  501    0  0.00000000000E+00 -0.00000000000E+00 -0.67184732143E+03  0.67184732143E+03  0.00000000000E+00 0. -1.
         24    2    1    2    0    0 -0.53547119478E+03  0.27628724691E+03  0.11430878205E+03  0.61954127291E+03  0.87754475381E+02 0.  0.
        254    2    1    2    0    0  0.53547119478E+03 -0.27628724691E+03  0.28417373739E+03  0.11226358894E+04  0.90359979187E+03 0.  0.
         23    2    4    4    0    0  0.34618132090E+03 -0.51040871359E+03 -0.83945190115E+02  0.62916040414E+03  0.91855633165E+02 0.  0.
          4    1    3    3  502    0 -0.47073446459E+03  0.21285341978E+03  0.80754840907E+02  0.52289469188E+03  0.00000000000E+00 0. -1.
         -3    1    3    3    0  502 -0.64736730184E+02  0.63433827128E+02  0.33553941140E+02  0.96646581031E+02  0.00000000000E+00 0.  1.
         11    1    4    4    0    0  0.19790529977E+03  0.21531372200E+03  0.28696378065E+03  0.40972517370E+03  0.00000000000E+00 0. -1.
        -11    1    4    4    0    0 -0.86154258854E+01  0.18807744688E+02  0.81155146849E+02  0.83750311543E+02  0.00000000000E+00 0.  1.
          1    1    5    5  503    0  0.31185461414E+03 -0.49466430281E+03 -0.87318111185E+02  0.59124489459E+03  0.00000000000E+00 0. -1.
         -1    1    5    5    0  503  0.34326706761E+02 -0.15744410775E+02  0.33729210704E+01  0.37915509548E+02  0.00000000000E+00 0.  1.
<mgrwt>
<rscale>  0 0.16959932E+04</rscale>
<asrwt>0</asrwt>
<pdfrwt beam="1">  1        2 0.10336113E+00 0.16959932E+04</pdfrwt>
<pdfrwt beam="2">  1       -3 0.16466613E+00 0.16959932E+04</pdfrwt>
<totfact> 0.65074228E+00</totfact>
</mgrwt>
</event>
<event>
12    6  0.1663299E-008  0.2291261E+04  0.7818608E-02  0.8481375E-01
         -1   -1    0    0    0  501 -0.00000000000E+00  0.00000000000E+00  0.70428644121E+03  0.70428644121E+03  0.00000000000E+00 0.  1.
          2   -1    0    0  501    0  0.00000000000E+00 -0.00000000000E+00 -0.18635452166E+04  0.18635452166E+04  0.00000000000E+00 0. -1.
         24    2    1    2    0    0  0.61629463053E+02 -0.72090270762E+03  0.22129241454E+03  0.76087082171E+03  0.80344072737E+02 0.  0.
        254    2    1    2    0    0 -0.61629463053E+02  0.72090270762E+03 -0.13805511899E+04  0.18069608361E+04  0.91415916045E+03 0.  0.
         23    2    4    4    0    0 -0.22401580550E+02  0.66602815633E+03 -0.33612000594E+03  0.75584764280E+03  0.11930492402E+03 0.  0.
         23    2    4    4    0    0 -0.39227882503E+02  0.54874551292E+02 -0.10444311840E+04  0.10511131933E+04  0.97223474117E+02 0.  0.
          4    1    3    3  502    0  0.41287367939E+02 -0.20673355055E+03  0.93791940570E+02  0.23073867424E+03  0.00000000000E+00 0. -1.
         -3    1    3    3    0  502  0.20342095114E+02 -0.51416915708E+03  0.12750047397E+03  0.53013214747E+03  0.00000000000E+00 0.  1.
         11    1    5    5    0    0  0.27200378277E+02  0.15803982374E+03 -0.12575735927E+03  0.20379244313E+03  0.00000000000E+00 0. -1.
        -11    1    5    5    0    0 -0.49601958827E+02  0.50798833259E+03 -0.21036264667E+03  0.55205519967E+03  0.00000000000E+00 0.  1.
          2    1    6    6  503    0 -0.54332950345E+02  0.14052770067E+02 -0.28718727020E+03  0.29261933977E+03  0.00000000000E+00 0. -1.
         -2    1    6    6    0  503  0.15105067841E+02  0.40821781225E+02 -0.75724391379E+03  0.75849385354E+03  0.00000000000E+00 0.  1.
<mgrwt>
<rscale>  0 0.22912613E+04</rscale>
<asrwt>0</asrwt>
<pdfrwt beam="1">  1        2 0.28669926E+00 0.22912613E+04</pdfrwt>
<pdfrwt beam="2">  1       -1 0.10835176E+00 0.22912613E+04</pdfrwt>
<totfact> 0.64979864E+00</totfact>
</mgrwt>
</event>
<event>
11    6  0.1663299E-008  0.1318040E+04  0.7818608E-02  0.9015380E-01
         -1   -1    0    0    0  501 -0.00000000000E+00  0.00000000000E+00  0.30796960228E+03  0.30796960228E+03  0.00000000000E+00 0.  1.
          2   -1    0    0  501    0  0.00000000000E+00 -0.00000000000E+00 -0.14102290531E+04  0.14102290531E+04  0.00000000000E+00 0. -1.
         24    2    1    2    0    0  0.12048586424E+02 -0.19176184204E+03  0.75902007588E+02  0.21901486388E+03  0.72722921737E+02 0.  0.
        254    2    1    2    0    0 -0.12048586424E+02  0.19176184204E+03 -0.11781614584E+04  0.14991837915E+04  0.90695636396E+03 0.  0.
         23    2    4    4    0    0  0.48349836083E+02 -0.12414932189E+03 -0.10677801150E+04  0.10805254641E+04  0.98133296198E+02 0.  0.
          4    1    3    3  502    0 -0.10736274077E+02 -0.25529128988E+01  0.15633736075E+02  0.19136317540E+02  0.00000000000E+00 0. -1.
         -3    1    3    3    0  502  0.22784860501E+02 -0.18920892914E+03  0.60268271513E+02  0.19987854634E+03  0.00000000000E+00 0.  1.
         11    1    4    4    0    0  0.38068683161E+02  0.11572768335E+03  0.62029236396E+02  0.13671045131E+03  0.00000000000E+00 0. -1.
        -11    1    4    4    0    0 -0.98467105667E+02  0.20018348058E+03 -0.17241057981E+03  0.28194787608E+03  0.00000000000E+00 0.  1.
          3    1    5    5  503    0  0.57570718344E+02 -0.13422868660E+03 -0.10309346197E+04  0.10412290421E+04  0.00000000000E+00 0. -1.
         -3    1    5    5    0  503 -0.92208822609E+01  0.10079364708E+02 -0.36845495309E+02  0.39296422065E+02  0.00000000000E+00 0.  1.
<mgrwt>
<rscale>  0 0.13180405E+04</rscale>
<asrwt>0</asrwt>
<pdfrwt beam="1">  1        2 0.21695832E+00 0.13180405E+04</pdfrwt>
<pdfrwt beam="2">  1       -1 0.47379939E-01 0.13180405E+04</pdfrwt>
<totfact> 0.70787835E+01</totfact>
</mgrwt>
</event>
<event>
12    6  0.1663299E-008  0.2026874E+04  0.7818608E-02  0.8594158E-01
          2   -1    0    0  501    0  0.00000000000E+00  0.00000000000E+00  0.13896945167E+04  0.13896945167E+04  0.00000000000E+00 0. -1.
         -1   -1    0    0    0  501 -0.00000000000E+00 -0.00000000000E+00 -0.73905066020E+03  0.73905066020E+03  0.00000000000E+00 0.  1.
         24    2    1    2    0    0  0.49849443437E+03  0.35687225508E+03 -0.30236230418E+03  0.68813120569E+03  0.79038507786E+02 0.  0.
        254    2    1    2    0    0 -0.49849443437E+03 -0.35687225508E+03  0.95300616072E+03  0.14406139712E+04  0.88954671842E+03 0.  0.
         23    2    4    4    0    0  0.21895835378E+03 -0.65671545773E+02  0.43710353257E+03  0.50581329825E+03  0.11194678149E+03 0.  0.
         23    2    4    4    0    0 -0.71745278815E+03 -0.29120070930E+03  0.51590262815E+03  0.93480067300E+03  0.90335044044E+02 0.  0.
          4    1    3    3  502    0  0.13023167572E+02 -0.71838631850E+00  0.11536903207E+01  0.13093890707E+02  0.00000000000E+00 0. -1.
         -3    1    3    3    0  502  0.48547126680E+03  0.35759064140E+03 -0.30351599450E+03  0.67503731498E+03  0.00000000000E+00 0.  1.
         11    1    5    5    0    0 -0.51930823586E+01 -0.20403263796E+02  0.71932147927E+02  0.74949951189E+02  0.00000000000E+00 0.  1.
        -11    1    5    5    0    0  0.22415143614E+03 -0.45268281977E+02  0.36517138464E+03  0.43086334706E+03  0.00000000000E+00 0. -1.
          4    1    6    6  503    0 -0.55923829833E+03 -0.25316804281E+03  0.43981934039E+03  0.75517056643E+03  0.00000000000E+00 0. -1.
         -4    1    6    6    0  503 -0.15821448982E+03 -0.38032666490E+02  0.76083287758E+02  0.17963010657E+03  0.00000000000E+00 0.  1.
<mgrwt>
<rscale>  0 0.20268741E+04</rscale>
<asrwt>0</asrwt>
<pdfrwt beam="1">  1        2 0.21379916E+00 0.20268741E+04</pdfrwt>
<pdfrwt beam="2">  1       -1 0.11370010E+00 0.20268741E+04</pdfrwt>
<totfact> 0.10932111E+01</totfact>
</mgrwt>
</event>
<event>
12    6  0.1663299E-008  0.1678021E+04  0.7818608E-02  0.8774000E-01
          2   -1    0    0  501    0  0.00000000000E+00  0.00000000000E+00  0.15313378453E+04  0.15313378453E+04  0.00000000000E+00 0. -1.
         -1   -1    0    0    0  501 -0.00000000000E+00 -0.00000000000E+00 -0.45968889558E+03  0.45968889558E+03  0.00000000000E+00 0.  1.
         24    2    1    2    0    0  0.16291209128E+03 -0.55270959482E+03  0.33008764187E+03  0.66893397534E+03  0.80539222528E+02 0.  0.
        254    2    1    2    0    0 -0.16291209128E+03  0.55270959482E+03  0.74156130790E+03  0.13220927656E+04  0.93058468810E+03 0.  0.
         23    2    4    4    0    0 -0.27633118156E+03  0.59958450723E+03  0.11959671804E+03  0.68169341861E+03  0.12059037608E+03 0.  0.
         23    2    4    4    0    0  0.11341909028E+03 -0.46874912410E+02  0.62196458985E+03  0.64039934696E+03  0.90610292520E+02 0.  0.
          2    1    3    3  502    0  0.10836538274E+03 -0.35780134353E+03  0.25734106187E+03  0.45386041878E+03  0.00000000000E+00 0. -1.
         -1    1    3    3    0  502  0.54546708539E+02 -0.19490825129E+03  0.72746579999E+02  0.21507355657E+03  0.00000000000E+00 0.  1.
         11    1    5    5    0    0 -0.24965716121E+03  0.49527610542E+03  0.14017258025E+03  0.57207995158E+03  0.00000000000E+00 0. -1.
        -11    1    5    5    0    0 -0.26674020342E+02  0.10430840181E+03 -0.20575862211E+02  0.10961346703E+03  0.00000000000E+00 0.  1.
          1    1    6    6  503    0  0.72916874674E+02 -0.24449259093E+02  0.17639918168E+03  0.19243520515E+03  0.00000000000E+00 0. -1.
         -1    1    6    6    0  503  0.40502215601E+02 -0.22425653317E+02  0.44556540817E+03  0.44796414182E+03  0.00000000000E+00 0.  1.
<mgrwt>
<rscale>  0 0.16780215E+04</rscale>
<asrwt>0</asrwt>
<pdfrwt beam="1">  1        2 0.23559044E+00 0.16780215E+04</pdfrwt>
<pdfrwt beam="2">  1       -1 0.70721369E-01 0.16780215E+04</pdfrwt>
<totfact> 0.26738887E+01</totfact>
</mgrwt>
</event>
<event>
12    6  0.1663299E-008  0.1497663E+04  0.7818608E-02  0.8886008E-01
         -1   -1    0    0    0  501 -0.00000000000E+00  0.00000000000E+00  0.52538791606E+03  0.52538791606E+03  0.00000000000E+00 0.  1.
          2   -1    0    0  501    0  0.00000000000E+00 -0.00000000000E+00 -0.10673044243E+04  0.10673044243E+04  0.00000000000E+00 0. -1.
         24    2    1    2    0    0  0.25089392756E+03  0.35386920482E+03 -0.18994397354E+02  0.44194538233E+03  0.82363564925E+02 0.  0.
        254    2    1    2    0    0 -0.25089392756E+03 -0.35386920482E+03 -0.52292211093E+03  0.11507469581E+04  0.92876253714E+03 0.  0.
         23    2    4    4    0    0 -0.32473934821E+03 -0.43754365040E+03  0.51106020068E+02  0.55890440160E+03  0.11341170379E+03 0.  0.
         23    2    4    4    0    0  0.73845420650E+02  0.83674445575E+02 -0.57402813100E+03  0.59184255647E+03  0.91185292032E+02 0.  0.
          4    1    3    3  502    0  0.19774593883E+02  0.15301306854E+02 -0.19990123503E+02  0.32012022621E+02  0.00000000000E+00 0. -1.
         -3    1    3    3    0  502  0.23111933368E+03  0.33856789797E+03  0.99572614924E+00  0.40993335971E+03  0.00000000000E+00 0.  1.
         11    1    5    5    0    0 -0.32717877366E+03 -0.44077253659E+03  0.43956651968E+02  0.55068917386E+03  0.00000000000E+00 0. -1.
        -11    1    5    5    0    0  0.24394254543E+01  0.32288861920E+01  0.71493681007E+01  0.82152277404E+01  0.00000000000E+00 0.  1.
          2    1    6    6  503    0  0.71374607136E+02  0.68014527623E+02 -0.56512371947E+03  0.57365941884E+03  0.00000000000E+00 0. -1.
         -2    1    6    6    0  503  0.24708135141E+01  0.15659917952E+02 -0.89044115269E+01  0.18183137637E+02  0.00000000000E+00 0.  1.
<mgrwt>
<rscale>  0 0.14976633E+04</rscale>
<asrwt>0</asrwt>
<pdfrwt beam="1">  1        2 0.16420068E+00 0.14976633E+04</pdfrwt>
<pdfrwt beam="2">  1       -1 0.80828912E-01 0.14976633E+04</pdfrwt>
<totfact> 0.38408637E+01</totfact>
</mgrwt>
</event>
<event>
11    6  0.1663299E-008  0.1465109E+04  0.7818608E-02  0.8907992E-01
          2   -1    0    0  501    0  0.00000000000E+00  0.00000000000E+00  0.21579921851E+04  0.21579921851E+04  0.00000000000E+00 0. -1.
         -1   -1    0    0    0  501 -0.00000000000E+00 -0.00000000000E+00 -0.24867374066E+03  0.24867374066E+03  0.00000000000E+00 0.  1.
         24    2    1    2    0    0  0.21328524224E+03 -0.10910526437E+03 -0.20940945613E+02  0.25297842236E+03  0.78517550291E+02 0.  0.
        254    2    1    2    0    0 -0.21328524224E+03  0.10910526437E+03  0.19302593901E+04  0.21536875034E+04  0.92470211212E+03 0.  0.
         23    2    4    4    0    0 -0.14803390482E+03  0.25119330258E+03  0.18784302844E+04  0.19030453605E+04  0.89828716795E+02 0.  0.
          2    1    3    3  502    0  0.65475122062E+02 -0.25998117280E+02  0.29033214091E+02  0.76195939731E+02  0.00000000000E+00 0. -1.
         -1    1    3    3    0  502  0.14781012018E+03 -0.83107147088E+02 -0.49974159705E+02  0.17678248263E+03  0.00000000000E+00 0.  1.
         11    1    4    4    0    0 -0.53187171538E+02 -0.14322921514E+03  0.11188749011E+03  0.18937342404E+03  0.00000000000E+00 0. -1.
        -11    1    4    4    0    0 -0.12064165886E+02  0.11411769334E+01 -0.60058384417E+02  0.61268718953E+02  0.00000000000E+00 0.  1.
          3    1    5    5  503    0 -0.12866032102E+03  0.19379195808E+03  0.12308497081E+04  0.12526371402E+04  0.00000000000E+00 0. -1.
         -3    1    5    5    0  503 -0.19373583803E+02  0.57401344496E+02  0.64758057633E+03  0.65040822022E+03  0.00000000000E+00 0.  1.
<mgrwt>
<rscale>  0 0.14651089E+04</rscale>
<asrwt>0</asrwt>
<pdfrwt beam="1">  1        2 0.33199879E+00 0.14651089E+04</pdfrwt>
<pdfrwt beam="2">  1       -1 0.38257500E-01 0.14651089E+04</pdfrwt>
<totfact> 0.39788851E+01</totfact>
</mgrwt>
</event>
<event>
12    6  0.1663299E-008  0.1999439E+04  0.7818608E-02  0.8606883E-01
          2   -1    0    0  501    0  0.00000000000E+00  0.00000000000E+00  0.12275581084E+04  0.12275581084E+04  0.00000000000E+00 0. -1.
         -1   -1    0    0    0  501 -0.00000000000E+00 -0.00000000000E+00 -0.81416822049E+03  0.81416822049E+03  0.00000000000E+00 0.  1.
         24    2    1    2    0    0 -0.73676212505E+03  0.97735260957E+02  0.44739637271E+03  0.87106870998E+03  0.78908637342E+02 0.  0.
        254    2    1    2    0    0  0.73676212505E+03 -0.97735260957E+02 -0.34006484842E+02  0.11706576189E+04  0.90383195863E+03 0.  0.
         23    2    4    4    0    0  0.74436039749E+02 -0.35668681312E+03 -0.21585759184E+03  0.43048478964E+03  0.77178024684E+02 0.  0.
         23    2    4    4    0    0  0.66232608530E+03  0.25895155216E+03  0.18185110699E+03  0.74017282922E+03  0.95153782671E+02 0.  0.
          4    1    3    3  502    0 -0.40624799482E+03  0.57159332361E+02  0.20111174413E+03  0.45689228073E+03  0.00000000000E+00 0. -1.
         -1    1    3    3    0  502 -0.33051413023E+03  0.40575928596E+02  0.24628462858E+03  0.41417642924E+03  0.00000000000E+00 0.  1.
         11    1    5    5    0    0 -0.79348197166E+01 -0.46999250752E+02 -0.75047601397E+01  0.48251552928E+02  0.00000000000E+00 0.  1.
        -11    1    5    5    0    0  0.82370859465E+02 -0.30968756237E+03 -0.20835283170E+03  0.38223323672E+03  0.00000000000E+00 0. -1.
          3    1    6    6  503    0  0.65598548473E+03  0.26539327925E+03  0.17535078522E+03  0.72903939998E+03  0.00000000000E+00 0. -1.
         -3    1    6    6    0  503  0.63406005746E+01 -0.64417270816E+01  0.65003217784E+01  0.11133429241E+02  0.00000000000E+00 0.  1.
<mgrwt>
<rscale>  0 0.19994387E+04</rscale>
<asrwt>0</asrwt>
<pdfrwt beam="1">  1        2 0.18885509E+00 0.19994387E+04</pdfrwt>
<pdfrwt beam="2">  1       -1 0.12525665E+00 0.19994387E+04</pdfrwt>
<totfact> 0.10756773E+01</totfact>
</mgrwt>
</event>
<event>
11    6  0.1663299E-008  0.1789610E+04  0.7818608E-02  0.8711844E-01
          2   -1    0    0  501    0  0.00000000000E+00  0.00000000000E+00  0.28291150899E+04  0.28291150899E+04  0.00000000000E+00 0. -1.
         -1   -1    0    0    0  501 -0.00000000000E+00 -0.00000000000E+00 -0.28301300542E+03  0.28301300542E+03  0.00000000000E+00 0.  1.
         24    2    1    2    0    0 -0.18616664032E+03  0.63613597124E+03  0.13837681551E+04  0.15363679844E+04  0.79279786351E+02 0.  0.
        254    2    1    2    0    0  0.18616664032E+03 -0.63613597124E+03  0.11623339294E+04  0.15757601109E+04  0.83226965098E+03 0.  0.
         23    2    4    4    0    0 -0.10973327960E+03  0.11753260655E+03  0.43718987483E+02  0.18865155265E+03  0.88446323826E+02 0.  0.
          4    1    3    3  502    0 -0.85518166580E+02  0.30844192195E+03  0.57792090995E+03  0.66063783890E+03  0.00000000000E+00 0. -1.
         -3    1    3    3    0  502 -0.10064847374E+03  0.32769404929E+03  0.80584724512E+03  0.87573014546E+03  0.00000000000E+00 0.  1.
         11    1    4    4    0    0  0.97622193176E+02 -0.42254182931E+03  0.61833881058E+03  0.75525795248E+03  0.00000000000E+00 0.  1.
        -11    1    4    4    0    0  0.19827772674E+03 -0.33112674848E+03  0.50027613131E+03  0.63185060580E+03  0.00000000000E+00 0. -1.
          2    1    5    5  503    0 -0.27470833639E+01  0.25338013679E+02 -0.21260800048E+02  0.33190104291E+02  0.00000000000E+00 0.  1.
         -2    1    5    5    0  503 -0.10698619624E+03  0.92194592870E+02  0.64979787531E+02  0.15546144836E+03  0.00000000000E+00 0. -1.
<mgrwt>
<rscale>  0 0.17896104E+04</rscale>
<asrwt>0</asrwt>
<pdfrwt beam="1">  1        2 0.43524846E+00 0.17896104E+04</pdfrwt>
<pdfrwt beam="2">  1       -1 0.43540464E-01 0.17896104E+04</pdfrwt>
<totfact> 0.12474012E+01</totfact>
</mgrwt>
</event>
<event>
12    6  0.1663299E-008  0.3900779E+04  0.7818608E-02  0.8024867E-01
          2   -1    0    0  501    0  0.00000000000E+00  0.00000000000E+00  0.25571422895E+04  0.25571422895E+04  0.00000000000E+00 0. -1.
         -1   -1    0    0    0  501 -0.00000000000E+00 -0.00000000000E+00 -0.14876058660E+04  0.14876058660E+04  0.00000000000E+00 0.  1.
         24    2    1    2    0    0  0.16491142050E+04  0.21371395192E+03  0.13345014053E+04  0.21332329092E+04  0.67359705277E+02 0.  0.
        254    2    1    2    0    0 -0.16491142050E+04 -0.21371395192E+03 -0.26496498176E+03  0.19115152463E+04  0.90467274804E+03 0.  0.
         23    2    4    4    0    0  0.77295414372E+02  0.20681258081E+01  0.13568157636E+02  0.14691400679E+03  0.12418040208E+03 0.  0.
         23    2    4    4    0    0 -0.17264096194E+04 -0.21578207773E+03 -0.27853313940E+03  0.17646012395E+04  0.95837080307E+02 0.  0.
          4    1    3    3  502    0  0.66204032942E+03  0.81070827737E+02  0.49357712746E+03  0.82975192536E+03  0.00000000000E+00 0. -1.
         -3    1    3    3    0  502  0.98707387556E+03  0.13264312419E+03  0.84092427785E+03  0.13034809839E+04  0.00000000000E+00 0.  1.
         11    1    5    5    0    0  0.12748028559E+02 -0.43409566526E+02 -0.32308549846E+02  0.55594469970E+02  0.00000000000E+00 0. -1.
        -11    1    5    5    0    0  0.64547385812E+02  0.45477692334E+02  0.45876707482E+02  0.91319536818E+02  0.00000000000E+00 0.  1.
          3    1    6    6  503    0 -0.74500215135E+03 -0.64837086183E+02 -0.80956053207E+02  0.75218743396E+03  0.00000000000E+00 0. -1.
         -3    1    6    6    0  503 -0.98140746800E+03 -0.15094499155E+03 -0.19757708619E+03  0.10124138056E+04  0.00000000000E+00 0.  1.
<mgrwt>
<rscale>  0 0.39007793E+04</rscale>
<asrwt>0</asrwt>
<pdfrwt beam="1">  1        2 0.39340651E+00 0.39007793E+04</pdfrwt>
<pdfrwt beam="2">  1       -1 0.22886244E+00 0.39007793E+04</pdfrwt>
<totfact> 0.27986558E-01</totfact>
</mgrwt>
</event>
<event>
11    6  0.1663299E-008  0.1775331E+04  0.7818608E-02  0.8719529E-01
         -1   -1    0    0    0  501 -0.00000000000E+00  0.00000000000E+00  0.49484082267E+03  0.49484082267E+03  0.00000000000E+00 0.  1.
          2   -1    0    0  501    0  0.00000000000E+00 -0.00000000000E+00 -0.15923303511E+04  0.15923303511E+04  0.00000000000E+00 0. -1.
         24    2    1    2    0    0 -0.46105263551E+03 -0.41435520056E+03 -0.66768503226E+03  0.91453264769E+03  0.79415970930E+02 0.  0.
        254    2    1    2    0    0  0.46105263551E+03  0.41435520056E+03 -0.42980449616E+03  0.11726385261E+04  0.89782483980E+03 0.  0.
         23    2    4    4    0    0 -0.19175003454E+03  0.10121335140E+03 -0.34305876673E+03  0.41595307801E+03  0.91188965469E+02 0.  0.
          4    1    3    3  502    0 -0.45341703508E+03 -0.40090574329E+03 -0.62913859157E+03  0.87299930705E+03  0.00000000000E+00 0. -1.
         -3    1    3    3    0  502 -0.76356004326E+01 -0.13449457267E+02 -0.38546440689E+02  0.41533340638E+02  0.00000000000E+00 0.  1.
         11    1    4    4    0    0  0.45502808913E+03  0.23024744802E+03 -0.15268615072E+03  0.53233214241E+03  0.00000000000E+00 0.  1.
        -11    1    4    4    0    0  0.19777458092E+03  0.82894401141E+02  0.65940421293E+02  0.22435330566E+03  0.00000000000E+00 0. -1.
          1    1    5    5  503    0 -0.21433753050E+02 -0.15490639914E+02 -0.22833210306E+02  0.34938820639E+02  0.00000000000E+00 0. -1.
         -1    1    5    5    0  503 -0.17031628149E+03  0.11670399131E+03 -0.32022555643E+03  0.38101425737E+03  0.00000000000E+00 0.  1.
<mgrwt>
<rscale>  0 0.17753310E+04</rscale>
<asrwt>0</asrwt>
<pdfrwt beam="1">  1        2 0.24497391E+00 0.17753310E+04</pdfrwt>
<pdfrwt beam="2">  1       -1 0.76129356E-01 0.17753310E+04</pdfrwt>
<totfact> 0.21030080E+01</totfact>
</mgrwt>
</event>
<event>
11    6  0.1663299E-008  0.1861771E+04  0.7818608E-02  0.8674123E-01
         -1   -1    0    0    0  501 -0.00000000000E+00  0.00000000000E+00  0.51624679276E+03  0.51624679276E+03  0.00000000000E+00 0.  1.
          2   -1    0    0  501    0  0.00000000000E+00 -0.00000000000E+00 -0.16785531815E+04  0.16785531815E+04  0.00000000000E+00 0. -1.
         24    2    1    2    0    0 -0.60151537061E+03 -0.32143634805E+03 -0.20633851612E+03  0.71661821826E+03  0.76315270912E+02 0.  0.
        254    2    1    2    0    0  0.60151537061E+03  0.32143634805E+03 -0.95596787261E+03  0.14781817560E+04  0.89777762467E+03 0.  0.
         23    2    4    4    0    0  0.10076996074E+03 -0.28830235591E+03 -0.28850867470E+03  0.43011411325E+03  0.92130676921E+02 0.  0.
          2    1    3    3  502    0 -0.20986149669E+02 -0.30114600616E+02 -0.93247255022E+01  0.37871600889E+02  0.00000000000E+00 0. -1.
         -3    1    3    3    0  502 -0.58052922094E+03 -0.29132174744E+03 -0.19701379062E+03  0.67874661737E+03  0.00000000000E+00 0.  1.
         11    1    4    4    0    0  0.27453099625E+03  0.30425644011E+03 -0.45600486716E+03  0.61309027730E+03  0.00000000000E+00 0. -1.
        -11    1    4    4    0    0  0.22621441362E+03  0.30548226385E+03 -0.21145433075E+03  0.43497736544E+03  0.00000000000E+00 0.  1.
          1    1    5    5  503    0  0.12862702764E+02  0.39496750536E+01 -0.16597641654E+02  0.21366580538E+02  0.00000000000E+00 0. -1.
         -1    1    5    5    0  503  0.87907257980E+02 -0.29225203096E+03 -0.27191103305E+03  0.40874753271E+03  0.00000000000E+00 0.  1.
<mgrwt>
<rscale>  0 0.18617709E+04</rscale>
<asrwt>0</asrwt>
<pdfrwt beam="1">  1        2 0.25823895E+00 0.18617709E+04</pdfrwt>
<pdfrwt beam="2">  1       -1 0.79422585E-01 0.18617709E+04</pdfrwt>
<totfact> 0.17087530E+01</totfact>
</mgrwt>
</event>
<event>
11    6  0.1663299E-008  0.2245020E+04  0.7818608E-02  0.8499920E-01
          2   -1    0    0  501    0  0.00000000000E+00  0.00000000000E+00  0.30186311699E+04  0.30186311699E+04  0.00000000000E+00 0. -1.
         -1   -1    0    0    0  501 -0.00000000000E+00 -0.00000000000E+00 -0.41741729477E+03  0.41741729477E+03  0.00000000000E+00 0.  1.
         24    2    1    2    0    0  0.63860989538E+03 -0.19928561396E+03  0.94953145891E+02  0.67991520196E+03  0.75704871278E+02 0.  0.
        254    2    1    2    0    0 -0.63860989538E+03  0.19928561396E+03  0.25062607292E+04  0.27561332627E+04  0.93133794322E+03 0.  0.
         23    2    4    4    0    0 -0.83805339866E+02  0.49443144621E+03  0.12609985270E+04  0.13602789055E+04  0.93571500224E+02 0.  0.
          4    1    3    3  502    0  0.34740704741E+03 -0.10979778574E+03  0.89713016981E+02  0.37522744537E+03  0.00000000000E+00 0. -1.
         -3    1    3    3    0  502  0.29120284797E+03 -0.89487828215E+02  0.52401289099E+01  0.30468775659E+03  0.00000000000E+00 0.  1.
         11    1    4    4    0    0 -0.22438123796E+03 -0.98036806151E+02  0.52396006509E+03  0.57835309727E+03  0.00000000000E+00 0. -1.
        -11    1    4    4    0    0 -0.33042331755E+03 -0.19710902611E+03  0.72130213716E+03  0.81750125995E+03  0.00000000000E+00 0.  1.
          4    1    5    5  503    0 -0.80382859092E+02  0.44112167212E+03  0.10331903125E+04  0.11262912392E+04  0.00000000000E+00 0. -1.
         -4    1    5    5    0  503 -0.34224807731E+01  0.53309774095E+02  0.22780821446E+03  0.23398766626E+03  0.00000000000E+00 0.  1.
<mgrwt>
<rscale>  0 0.22450201E+04</rscale>
<asrwt>0</asrwt>
<pdfrwt beam="1">  1        2 0.46440478E+00 0.22450201E+04</pdfrwt>
<pdfrwt beam="2">  1       -1 0.64218047E-01 0.22450201E+04</pdfrwt>
<totfact> 0.43229384E+00</totfact>
</mgrwt>
</event>
<event>
11    6  0.1663299E-008  0.1417603E+04  0.7818608E-02  0.8941174E-01
         -1   -1    0    0    0  501 -0.00000000000E+00  0.00000000000E+00  0.44117288918E+03  0.44117288918E+03  0.00000000000E+00 0.  1.
          2   -1    0    0  501    0  0.00000000000E+00 -0.00000000000E+00 -0.11387812499E+04  0.11387812499E+04  0.00000000000E+00 0. -1.
         24    2    1    2    0    0  0.55575138711E+02  0.30593497376E+03 -0.48834193111E+03  0.58366999537E+03  0.74216019821E+02 0.  0.
        254    2    1    2    0    0 -0.55575138711E+02 -0.30593497376E+03 -0.20926642965E+03  0.99628414374E+03  0.92309525634E+03 0.  0.
         23    2    4    4    0    0  0.38444105437E+03 -0.24090455402E+03 -0.24454901488E+03  0.52364940579E+03  0.92598871907E+02 0.  0.
          2    1    3    3  502    0  0.64853072441E+02  0.22607229808E+03 -0.40158370286E+03  0.46538594238E+03  0.00000000000E+00 0. -1.
         -1    1    3    3    0  502 -0.92779337305E+01  0.79862675689E+02 -0.86758228259E+02  0.11828405300E+03  0.00000000000E+00 0.  1.
         11    1    4    4    0    0 -0.21281813144E+03 -0.23508385748E+01  0.89352146833E+02  0.23082653586E+03  0.00000000000E+00 0. -1.
        -11    1    4    4    0    0 -0.22719806164E+03 -0.62679581171E+02 -0.54069561602E+02  0.24180820210E+03  0.00000000000E+00 0.  1.
          1    1    5    5  503    0  0.16557841936E+03 -0.13596643920E+03 -0.15702560528E+03  0.26563156112E+03  0.00000000000E+00 0. -1.
         -1    1    5    5    0  503  0.21886263501E+03 -0.10493811482E+03 -0.87523409598E+02  0.25801784468E+03  0.00000000000E+00 0.  1.
<mgrwt>
<rscale>  0 0.14176028E+04</rscale>
<asrwt>0</asrwt>
<pdfrwt beam="1">  1        2 0.17519711E+00 0.14176028E+04</pdfrwt>
<pdfrwt beam="2">  1       -1 0.67872753E-01 0.14176028E+04</pdfrwt>
<totfact> 0.50255850E+01</totfact>
</mgrwt>
</event>
<event>
12    6  0.1663299E-008  0.1280386E+04  0.7818608E-02  0.9045266E-01
          2   -1    0    0  501    0  0.00000000000E+00  0.00000000000E+00  0.12035294776E+04  0.12035294776E+04  0.00000000000E+00 0. -1.
         -1   -1    0    0    0  501 -0.00000000000E+00 -0.00000000000E+00 -0.34053756362E+03  0.34053756362E+03  0.00000000000E+00 0.  1.
         24    2    1    2    0    0 -0.20272963548E+03 -0.32182271188E+02 -0.71105090125E+02  0.23080876102E+03  0.77985554041E+02 0.  0.
        254    2    1    2    0    0  0.20272963548E+03  0.32182271188E+02  0.93409700409E+03  0.13132582802E+04  0.89998616309E+03 0.  0.
         23    2    4    4    0    0 -0.33421400815E+03 -0.55144558026E+02  0.48647856345E+03  0.60330486093E+03  0.11214025595E+03 0.  0.
         23    2    4    4    0    0  0.53694364363E+03  0.87326829213E+02  0.44761844065E+03  0.70995341926E+03  0.87961000300E+02 0.  0.
          2    1    3    3  502    0 -0.35379880023E+01  0.13875758985E+02  0.89945226606E-01  0.14319990805E+02  0.00000000000E+00 0. -1.
         -1    1    3    3    0  502 -0.19919164748E+03 -0.46058030173E+02 -0.71195035352E+02  0.21648877021E+03  0.00000000000E+00 0.  1.
         11    1    5    5    0    0 -0.15369420509E+03 -0.82121595748E+02  0.24153674223E+03  0.29783529511E+03  0.00000000000E+00 0. -1.
        -11    1    5    5    0    0 -0.18051980306E+03  0.26977037722E+02  0.24494182121E+03  0.30546956582E+03  0.00000000000E+00 0.  1.
          3    1    6    6  503    0  0.23984065766E+03  0.47416076408E+02  0.14627979754E+03  0.28490279840E+03  0.00000000000E+00 0. -1.
         -3    1    6    6    0  503  0.29710298598E+03  0.39910752805E+02  0.30133864310E+03  0.42505062086E+03  0.00000000000E+00 0.  1.
<mgrwt>
<rscale>  0 0.12803859E+04</rscale>
<asrwt>0</asrwt>
<pdfrwt beam="1">  1        2 0.18515838E+00 0.12803859E+04</pdfrwt>
<pdfrwt beam="2">  1       -1 0.52390395E-01 0.12803859E+04</pdfrwt>
<totfact> 0.77399465E+01</totfact>
</mgrwt>
</event>
<event>
12    6  0.1663299E-008  0.1832669E+04  0.7818608E-02  0.8689117E-01
          2   -1    0    0  501    0  0.00000000000E+00  0.00000000000E+00  0.18595823710E+04  0.18595823710E+04  0.00000000000E+00 0. -1.
         -1   -1    0    0    0  501 -0.00000000000E+00 -0.00000000000E+00 -0.45153604638E+03  0.45153604638E+03  0.00000000000E+00 0.  1.
         24    2    1    2    0    0 -0.27972282007E+03  0.52599724433E+03  0.99597027367E+02  0.60904279500E+03  0.78074331081E+02 0.  0.
        254    2    1    2    0    0  0.27972282007E+03 -0.52599724433E+03  0.13084492973E+04  0.17020756224E+04  0.91110038073E+03 0.  0.
         23    2    4    4    0    0  0.30579733718E+03 -0.17861232770E+03  0.18199911534E+02  0.36244064830E+03  0.74950728650E+02 0.  0.
         23    2    4    4    0    0 -0.26074517112E+02 -0.34738491663E+03  0.12902493858E+04  0.13396349741E+04  0.92315901706E+02 0.  0.
          2    1    3    3  502    0 -0.92985332629E+02  0.21638699371E+03  0.61638999393E+01  0.23560050253E+03  0.00000000000E+00 0. -1.
         -1    1    3    3    0  502 -0.18673748744E+03  0.30961025062E+03  0.93433127428E+02  0.37344229247E+03  0.00000000000E+00 0.  1.
         11    1    5    5    0    0  0.20763041902E+03 -0.12689396004E+03 -0.22224393013E+02  0.24434891373E+03  0.00000000000E+00 0.  1.
        -11    1    5    5    0    0  0.98166918166E+02 -0.51718367657E+02  0.40424304547E+02  0.11809173457E+03  0.00000000000E+00 0. -1.
          1    1    6    6  503    0 -0.42009407074E+02 -0.75722357991E+02  0.25944580914E+03  0.27351561868E+03  0.00000000000E+00 0. -1.
         -1    1    6    6    0  503  0.15934889962E+02 -0.27166255864E+03  0.10308035766E+04  0.10661193555E+04  0.00000000000E+00 0.  1.
<mgrwt>
<rscale>  0 0.18326685E+04</rscale>
<asrwt>0</asrwt>
<pdfrwt beam="1">  1        2 0.28608959E+00 0.18326685E+04</pdfrwt>
<pdfrwt beam="2">  1       -1 0.69467085E-01 0.18326685E+04</pdfrwt>
<totfact> 0.17971044E+01</totfact>
</mgrwt>
</event>
<event>
11    6  0.1663299E-008  0.1380024E+04  0.7818608E-02  0.8968406E-01
          2   -1    0    0  501    0  0.00000000000E+00  0.00000000000E+00  0.14164452322E+04  0.14164452322E+04  0.00000000000E+00 0. -1.
         -1   -1    0    0    0  501 -0.00000000000E+00 -0.00000000000E+00 -0.33613489898E+03  0.33613489898E+03  0.00000000000E+00 0.  1.
         24    2    1    2    0    0  0.38931832449E+03 -0.68035055524E+02  0.29796342277E+03  0.50125117352E+03  0.79202342644E+02 0.  0.
        254    2    1    2    0    0 -0.38931832449E+03  0.68035055524E+02  0.78234691045E+03  0.12513289577E+04  0.89306211732E+03 0.  0.
         23    2    4    4    0    0 -0.45616492696E+03 -0.27236603189E+03  0.54915498828E+03  0.76954355564E+03  0.91413275621E+02 0.  0.
          2    1    3    3  502    0  0.37943055911E+03 -0.75688333310E+02  0.29860016496E+03  0.48873134901E+03  0.00000000000E+00 0. -1.
         -3    1    3    3    0  502  0.98877653841E+01  0.76532777865E+01 -0.63674219816E+00  0.12519824511E+02  0.00000000000E+00 0.  1.
         11    1    4    4    0    0  0.11282013036E+03  0.30478079452E+03  0.26147022548E+03  0.41711676224E+03  0.00000000000E+00 0. -1.
        -11    1    4    4    0    0 -0.45973527895E+02  0.35620292888E+02 -0.28278303308E+02  0.64668639776E+02  0.00000000000E+00 0.  1.
          2    1    5    5  503    0 -0.39840015534E+03 -0.25901149574E+03  0.45263329102E+03  0.65626712156E+03  0.00000000000E+00 0. -1.
         -2    1    5    5    0  503 -0.57764771616E+02 -0.13354536147E+02  0.96521697257E+02  0.11327643408E+03  0.00000000000E+00 0.  1.
<mgrwt>
<rscale>  0 0.13800242E+04</rscale>
<asrwt>0</asrwt>
<pdfrwt beam="1">  1        2 0.21791465E+00 0.13800242E+04</pdfrwt>
<pdfrwt beam="2">  1       -1 0.51713062E-01 0.13800242E+04</pdfrwt>
<totfact> 0.59186816E+01</totfact>
</mgrwt>
</event>
<event>
11    6  0.1663299E-008  0.1672967E+04  0.7818608E-02  0.8776934E-01
         -1   -1    0    0    0  501 -0.00000000000E+00  0.00000000000E+00  0.10479623039E+04  0.10479623039E+04  0.00000000000E+00 0.  1.
          2   -1    0    0  501    0  0.00000000000E+00 -0.00000000000E+00 -0.66768109643E+03  0.66768109643E+03  0.00000000000E+00 0. -1.
         24    2    1    2    0    0 -0.35294730413E+03 -0.15956500282E+03 -0.32083161151E+03  0.50919675435E+03  0.79470888274E+02 0.  0.
        254    2    1    2    0    0  0.35294730413E+03  0.15956500282E+03  0.70111281899E+03  0.12064466460E+04  0.90217600005E+03 0.  0.
         23    2    4    4    0    0  0.52922340789E+02  0.16474317792E+03  0.83111003177E+03  0.85385720520E+03  0.91581401697E+02 0.  0.
          4    1    3    3  502    0 -0.32592940431E+03 -0.12330713254E+03 -0.29812164301E+03  0.45859692494E+03  0.00000000000E+00 0. -1.
         -3    1    3    3    0  502 -0.27017899817E+02 -0.36257870276E+02 -0.22709968493E+02  0.50599829411E+02  0.00000000000E+00 0.  1.
         11    1    4    4    0    0 -0.11744779617E+02 -0.97007353420E+01 -0.13593093850E+01  0.15293522696E+02  0.00000000000E+00 0.  1.
        -11    1    4    4    0    0  0.31176974296E+03  0.45225602425E+01 -0.12863790339E+03  0.33729591810E+03  0.00000000000E+00 0. -1.
          3    1    5    5  503    0  0.49385624470E+02  0.12837723929E+03  0.77352105589E+03  0.78565544571E+03  0.00000000000E+00 0. -1.
         -3    1    5    5    0  503  0.35367163190E+01  0.36365938621E+02  0.57588975883E+02  0.68201759489E+02  0.00000000000E+00 0.  1.
<mgrwt>
<rscale>  0 0.16729670E+04</rscale>
<asrwt>0</asrwt>
<pdfrwt beam="1">  1        2 0.10272017E+00 0.16729670E+04</pdfrwt>
<pdfrwt beam="2">  1       -1 0.16122497E+00 0.16729670E+04</pdfrwt>
<totfact> 0.13548011E+01</totfact>
</mgrwt>
</event>
<event>
12    6  0.1663299E-008  0.1130809E+04  0.7818608E-02  0.9175673E-01
         -1   -1    0    0    0  501 -0.00000000000E+00  0.00000000000E+00  0.36315705905E+03  0.36315705905E+03  0.00000000000E+00 0.  1.
          2   -1    0    0  501    0  0.00000000000E+00 -0.00000000000E+00 -0.88028691275E+03  0.88028691275E+03  0.00000000000E+00 0. -1.
         24    2    1    2    0    0 -0.44229455007E+02 -0.45592400155E+02 -0.29944253754E+03  0.31674686448E+03  0.81411493203E+02 0.  0.
        254    2    1    2    0    0  0.44229455007E+02  0.45592400155E+02 -0.21768731615E+03  0.92669710732E+03  0.89852370556E+03 0.  0.
         23    2    4    4    0    0 -0.51746625379E+02  0.13388863998E+03  0.32002422535E+03  0.36579483964E+03  0.10385797391E+03 0.  0.
         23    2    4    4    0    0  0.95976080386E+02 -0.88296239829E+02 -0.53771154150E+03  0.56090226768E+03  0.92032701004E+02 0.  0.
          4    1    3    3  502    0 -0.42033536361E+02 -0.63233519175E+02 -0.28121601909E+03  0.29128636342E+03  0.00000000000E+00 0. -1.
         -3    1    3    3    0  502 -0.21959186462E+01  0.17641119020E+02 -0.18226518458E+02  0.25460501057E+02  0.00000000000E+00 0.  1.
         11    1    5    5    0    0 -0.13839419993E+02  0.16847085297E+02  0.17174368702E+03  0.17312206058E+03  0.00000000000E+00 0.  1.
        -11    1    5    5    0    0 -0.37907205386E+02  0.11704155469E+03  0.14828053832E+03  0.19267277906E+03  0.00000000000E+00 0. -1.
          1    1    6    6  503    0  0.28760053941E+02 -0.59410718926E+02 -0.12114118338E+03  0.13795637186E+03  0.00000000000E+00 0. -1.
         -1    1    6    6    0  503  0.67216026445E+02 -0.28885520903E+02 -0.41657035811E+03  0.42294589582E+03  0.00000000000E+00 0.  1.
<mgrwt>
<rscale>  0 0.11308093E+04</rscale>
<asrwt>0</asrwt>
<pdfrwt beam="1">  1        2 0.13542876E+00 0.11308093E+04</pdfrwt>
<pdfrwt beam="2">  1       -1 0.55870317E-01 0.11308093E+04</pdfrwt>
<totfact> 0.11082051E+02</totfact>
</mgrwt>
</event>
<event>
12    6  0.1663299E-008  0.3856340E+04  0.7818608E-02  0.8034171E-01
          2   -1    0    0  501    0  0.00000000000E+00  0.00000000000E+00  0.34891535830E+04  0.34891535830E+04  0.00000000000E+00 0. -1.
         -1   -1    0    0    0  501 -0.00000000000E+00 -0.00000000000E+00 -0.10655420932E+04  0.10655420932E+04  0.00000000000E+00 0.  1.
         24    2    1    2    0    0  0.10631092792E+04  0.37708780979E+03  0.28375838744E+04  0.30546197051E+04  0.80142016698E+02 0.  0.
        254    2    1    2    0    0 -0.10631092792E+04 -0.37708780979E+03 -0.41397238450E+03  0.15000759711E+04  0.89803019325E+03 0.  0.
         23    2    4    4    0    0 -0.23818715887E+03 -0.50785568487E+03 -0.33101670262E+03  0.65485922998E+03  0.67956120945E+02 0.  0.
         23    2    4    4    0    0 -0.82492212037E+03  0.13076787508E+03 -0.82955681877E+02  0.84521674111E+03  0.99563810977E+02 0.  0.
          4    1    3    3  502    0  0.89175759690E+03  0.32017928088E+03  0.22997055031E+04  0.24872458231E+04  0.00000000000E+00 0. -1.
         -3    1    3    3    0  502  0.17135168235E+03  0.56908528910E+02  0.53787837132E+03  0.56737388206E+03  0.00000000000E+00 0.  1.
         11    1    5    5    0    0 -0.14843753733E+03 -0.28200781625E+03 -0.22268018112E+03  0.38877830955E+03  0.00000000000E+00 0.  1.
        -11    1    5    5    0    0 -0.89749621545E+02 -0.22584786862E+03 -0.10833652151E+03  0.26608092043E+03  0.00000000000E+00 0. -1.
          3    1    6    6  503    0 -0.17362093755E+03  0.20619534356E+02 -0.57948058162E+02  0.18419384517E+03  0.00000000000E+00 0. -1.
         -3    1    6    6    0  503 -0.65130118282E+03  0.11014834072E+03 -0.25007623715E+02  0.66102289594E+03  0.00000000000E+00 0.  1.
<mgrwt>
<rscale>  0 0.38563402E+04</rscale>
<asrwt>0</asrwt>
<pdfrwt beam="1">  1        2 0.53679285E+00 0.38563402E+04</pdfrwt>
<pdfrwt beam="2">  1       -1 0.16392956E+00 0.38563402E+04</pdfrwt>
<totfact> 0.20419834E-01</totfact>
</mgrwt>
</event>
<event>
11    6  0.1663299E-008  0.2001619E+04  0.7818608E-02  0.8605864E-01
          2   -1    0    0  501    0  0.00000000000E+00  0.00000000000E+00  0.29917718193E+04  0.29917718193E+04  0.00000000000E+00 0. -1.
         -1   -1    0    0    0  501 -0.00000000000E+00 -0.00000000000E+00 -0.33479134688E+03  0.33479134688E+03  0.00000000000E+00 0.  1.
         24    2    1    2    0    0 -0.16910516512E+03 -0.15583727959E+03  0.21369014537E+04  0.21508720374E+04  0.83790716133E+02 0.  0.
        254    2    1    2    0    0  0.16910516512E+03  0.15583727959E+03  0.52007901876E+03  0.11756911288E+04  0.10290216858E+04 0.  0.
         23    2    4    4    0    0  0.18088487391E+03  0.38584112477E+03  0.67847261145E+03  0.80605981888E+03  0.88400429660E+02 0.  0.
          2    1    3    3  502    0 -0.15909346904E+03 -0.99786163710E+02  0.16298709084E+04  0.16406545000E+04  0.00000000000E+00 0. -1.
         -1    1    3    3    0  502 -0.10011696078E+02 -0.56051115882E+02  0.50703054526E+03  0.51021753740E+03  0.00000000000E+00 0.  1.
         11    1    4    4    0    0 -0.10324665813E+03 -0.12345164108E+03 -0.16309110230E+03  0.22912635761E+03  0.00000000000E+00 0.  1.
        -11    1    4    4    0    0  0.91466949343E+02 -0.10655220410E+03  0.46975096207E+01  0.14050495229E+03  0.00000000000E+00 0. -1.
          1    1    5    5  503    0 -0.67304018817E+01  0.30503405134E+02  0.30834421002E+02  0.43892112649E+02  0.00000000000E+00 0. -1.
         -1    1    5    5    0  503  0.18761527579E+03  0.35533771963E+03  0.64763819044E+03  0.76216770623E+03  0.00000000000E+00 0.  1.
<mgrwt>
<rscale>  0 0.20016187E+04</rscale>
<asrwt>0</asrwt>
<pdfrwt beam="1">  1        2 0.46027257E+00 0.20016187E+04</pdfrwt>
<pdfrwt beam="2">  1       -1 0.51506363E-01 0.20016187E+04</pdfrwt>
<totfact> 0.70817010E+00</totfact>
</mgrwt>
</event>
<event>
12    6  0.1663299E-008  0.1155884E+04  0.7818608E-02  0.9152373E-01
         -1   -1    0    0    0  501 -0.00000000000E+00  0.00000000000E+00  0.40757297478E+03  0.40757297478E+03  0.00000000000E+00 0.  1.
          2   -1    0    0  501    0  0.00000000000E+00 -0.00000000000E+00 -0.81952609615E+03  0.81952609615E+03  0.00000000000E+00 0. -1.
         24    2    1    2    0    0 -0.32726194858E+02 -0.17493538027E+03 -0.22736618340E+03  0.29952747215E+03  0.79673923702E+02 0.  0.
        254    2    1    2    0    0  0.32726194858E+02  0.17493538027E+03 -0.18458693797E+03  0.92757159877E+03  0.89142769874E+03 0.  0.
         23    2    4    4    0    0  0.14690333316E+03 -0.21092138005E+03 -0.37667202171E+03  0.47236181032E+03  0.12318867665E+03 0.  0.
         23    2    4    4    0    0 -0.11417713830E+03  0.38585676032E+03  0.19208508374E+03  0.45520978845E+03  0.91637403432E+02 0.  0.
          2    1    3    3  502    0 -0.36723884623E+02 -0.88376661456E+02 -0.17159805236E+03  0.19648147385E+03  0.00000000000E+00 0. -1.
         -1    1    3    3    0  502  0.39976897655E+01 -0.86558718813E+02 -0.55768131041E+02  0.10304599830E+03  0.00000000000E+00 0.  1.
         11    1    5    5    0    0  0.17274773957E+02  0.13543302795E+02 -0.12188458093E+02  0.25107715479E+02  0.00000000000E+00 0.  1.
        -11    1    5    5    0    0  0.12962855920E+03 -0.22446468285E+03 -0.36448356362E+03  0.44725409484E+03  0.00000000000E+00 0. -1.
          3    1    6    6  503    0 -0.11885084484E+03  0.33812408992E+03  0.14100892063E+03  0.38514534814E+03  0.00000000000E+00 0. -1.
         -3    1    6    6    0  503  0.46737065350E+01  0.47732670405E+02  0.51076163117E+02  0.70064440307E+02  0.00000000000E+00 0.  1.
<mgrwt>
<rscale>  0 0.11558835E+04</rscale>
<asrwt>0</asrwt>
<pdfrwt beam="1">  1        2 0.12608094E+00 0.11558835E+04</pdfrwt>
<pdfrwt beam="2">  1       -1 0.62703535E-01 0.11558835E+04</pdfrwt>
<totfact> 0.97192184E+01</totfact>
</mgrwt>
</event>
<event>
12    6  0.1663299E-008  0.2514118E+04  0.7818608E-02  0.8397973E-01
         -3   -1    0    0    0  501 -0.00000000000E+00  0.00000000000E+00  0.89004329600E+03  0.89004329600E+03  0.00000000000E+00 0.  1.
          2   -1    0    0  501    0  0.00000000000E+00 -0.00000000000E+00 -0.17754157861E+04  0.17754157861E+04  0.00000000000E+00 0. -1.
         24    2    1    2    0    0 -0.22655811023E+03 -0.92192600610E+03 -0.93891314310E+03  0.13377857421E+04  0.82684118905E+02 0.  0.
        254    2    1    2    0    0  0.22655811023E+03  0.92192600610E+03  0.53540652958E+02  0.13276733400E+04  0.92659255243E+03 0.  0.
         23    2    4    4    0    0  0.20314451277E+03  0.33804288618E+02 -0.29001772743E+03  0.37056846949E+03  0.10392442139E+03 0.  0.
         23    2    4    4    0    0  0.23413597459E+02  0.88812171749E+03  0.34355838039E+03  0.95710487051E+03  0.93321973903E+02 0.  0.
          4    1    3    3  502    0 -0.23028717442E+03 -0.92022470588E+03 -0.93260054540E+03  0.13302591737E+04  0.00000000000E+00 0. -1.
         -3    1    3    3    0  502  0.37290641878E+01 -0.17013002247E+01 -0.63125976963E+01  0.75265683978E+01  0.00000000000E+00 0.  1.
         11    1    5    5    0    0  0.11704512340E+03 -0.28460996641E+02 -0.18791923111E+03  0.22321117056E+03  0.00000000000E+00 0. -1.
        -11    1    5    5    0    0  0.86099389372E+02  0.62265285259E+02 -0.10209849632E+03  0.14735729894E+03  0.00000000000E+00 0.  1.
          3    1    6    6  503    0  0.52132123294E+01  0.40674260644E+02  0.38474747546E+02  0.56230590078E+02  0.00000000000E+00 0. -1.
         -3    1    6    6    0  503  0.18200385129E+02  0.84744745684E+03  0.30508363284E+03  0.90087428044E+03  0.00000000000E+00 0.  1.
<mgrwt>
<rscale>  0 0.25141177E+04</rscale>
<asrwt>0</asrwt>
<pdfrwt beam="1">  1        2 0.27314089E+00 0.25141177E+04</pdfrwt>
<pdfrwt beam="2">  1       -3 0.13692974E+00 0.25141177E+04</pdfrwt>
<totfact> 0.20529366E+00</totfact>
</mgrwt>
</event>
<event>
12    6  0.1663299E-008  0.2171141E+04  0.7818608E-02  0.8530537E-01
          2   -1    0    0  501    0  0.00000000000E+00  0.00000000000E+00  0.73259311859E+03  0.73259311859E+03  0.00000000000E+00 0. -1.
         -1   -1    0    0    0  501 -0.00000000000E+00 -0.00000000000E+00 -0.16086196475E+04  0.16086196475E+04  0.00000000000E+00 0.  1.
         24    2    1    2    0    0 -0.59676119303E+01 -0.27126815832E+03 -0.12801320696E+04  0.13108406242E+04  0.77090857265E+02 0.  0.
        254    2    1    2    0    0  0.59676119303E+01  0.27126815832E+03  0.40410554069E+03  0.10303721419E+04  0.90815386180E+03 0.  0.
         23    2    4    4    0    0  0.37880101350E+03  0.31264500925E+03  0.40985235784E+03  0.64448381373E+03  0.78379342213E+02 0.  0.
         23    2    4    4    0    0 -0.37283340157E+03 -0.41376850933E+02 -0.57468171536E+01  0.38588832819E+03  0.90332645267E+02 0.  0.
          4    1    3    3  502    0  0.28795911281E+02 -0.72803703960E+02 -0.43785230426E+03  0.44479683470E+03  0.00000000000E+00 0. -1.
         -3    1    3    3    0  502 -0.34763523211E+02 -0.19846445436E+03 -0.84227976535E+03  0.86604378948E+03  0.00000000000E+00 0.  1.
         11    1    5    5    0    0  0.17170933437E+03  0.14705253290E+03  0.13867905205E+03  0.26521768874E+03  0.00000000000E+00 0.  1.
        -11    1    5    5    0    0  0.20709167914E+03  0.16559247635E+03  0.27117330579E+03  0.37926612499E+03  0.00000000000E+00 0. -1.
          1    1    6    6  503    0 -0.58118021327E+02 -0.13264393547E+02 -0.34055251055E+02  0.68654269085E+02  0.00000000000E+00 0. -1.
         -1    1    6    6    0  503 -0.31471538025E+03 -0.28112457386E+02  0.28308433902E+02  0.31723405910E+03  0.00000000000E+00 0.  1.
<mgrwt>
<rscale>  0 0.21711413E+04</rscale>
<asrwt>0</asrwt>
<pdfrwt beam="1">  1        2 0.11270664E+00 0.21711413E+04</pdfrwt>
<pdfrwt beam="2">  1       -1 0.24747994E+00 0.21711413E+04</pdfrwt>
<totfact> 0.29268687E+00</totfact>
</mgrwt>
</event>
<event>
12    6  0.1663299E-008  0.2261930E+04  0.7818608E-02  0.8493085E-01
          2   -1    0    0  501    0  0.00000000000E+00  0.00000000000E+00  0.19222223663E+04  0.19222223663E+04  0.00000000000E+00 0. -1.
         -1   -1    0    0    0  501 -0.00000000000E+00 -0.00000000000E+00 -0.66541810478E+03  0.66541810478E+03  0.00000000000E+00 0.  1.
         24    2    1    2    0    0 -0.60828796769E+03  0.12465200906E+03  0.13643539378E+04  0.15009358196E+04  0.76120247522E+02 0.  0.
        254    2    1    2    0    0  0.60828796769E+03 -0.12465200906E+03 -0.10754967623E+03  0.10867046515E+04  0.88532914315E+03 0.  0.
         23    2    4    4    0    0  0.13979843216E+03 -0.16637758465E+03 -0.44051856044E+03  0.50373786952E+03  0.11166976668E+03 0.  0.
         23    2    4    4    0    0  0.46848953553E+03  0.41725575591E+02  0.33296888421E+03  0.58296678196E+03  0.88082475360E+02 0.  0.
          2    1    3    3  502    0 -0.58033817064E+03  0.12973887121E+03  0.13257077272E+04  0.14529712815E+04  0.00000000000E+00 0. -1.
         -1    1    3    3    0  502 -0.27949797045E+02 -0.50868621536E+01  0.38646210585E+02  0.47964538089E+02  0.00000000000E+00 0.  1.
         11    1    5    5    0    0  0.13501013812E+03 -0.87104913958E+02 -0.24818615770E+03  0.29565414306E+03  0.00000000000E+00 0. -1.
        -11    1    5    5    0    0  0.47882940491E+01 -0.79272670691E+02 -0.19233240274E+03  0.20808372647E+03  0.00000000000E+00 0.  1.
          1    1    6    6  503    0  0.36878120640E+03  0.41956736121E+02  0.30217218919E+03  0.47861046564E+03  0.00000000000E+00 0. -1.
         -1    1    6    6    0  503  0.99708329130E+02 -0.23116053083E+00  0.30796695018E+02  0.10435631633E+03  0.00000000000E+00 0.  1.
<mgrwt>
<rscale>  0 0.22619298E+04</rscale>
<asrwt>0</asrwt>
<pdfrwt beam="1">  1        2 0.29572651E+00 0.22619298E+04</pdfrwt>
<pdfrwt beam="2">  1       -1 0.10237202E+00 0.22619298E+04</pdfrwt>
<totfact> 0.68988778E+00</totfact>
</mgrwt>
</event>
<event>
12    6  0.1663299E-008  0.1427566E+04  0.7818608E-02  0.8934103E-01
         -1   -1    0    0    0  501 -0.00000000000E+00  0.00000000000E+00  0.70645202170E+03  0.70645202170E+03  0.00000000000E+00 0.  1.
          2   -1    0    0  501    0  0.00000000000E+00 -0.00000000000E+00 -0.72119037337E+03  0.72119037337E+03  0.00000000000E+00 0. -1.
         24    2    1    2    0    0 -0.77542387874E+02 -0.17131240112E+03 -0.38285470603E+03  0.43393485200E+03  0.79755684185E+02 0.  0.
        254    2    1    2    0    0  0.77542387874E+02  0.17131240112E+03  0.36811635436E+03  0.99370754307E+03  0.90365052433E+03 0.  0.
         23    2    4    4    0    0 -0.21852712151E+03  0.43848154098E+03  0.12131820464E+03  0.51644835092E+03  0.10945605410E+03 0.  0.
         23    2    4    4    0    0  0.29606950938E+03 -0.26716913986E+03  0.24679814972E+03  0.47725919215E+03  0.88490146954E+02 0.  0.
          4    1    3    3  502    0 -0.75276023009E+02 -0.14751929577E+03 -0.37293916911E+03  0.40805887580E+03  0.00000000000E+00 0. -1.
         -3    1    3    3    0  502 -0.22663648652E+01 -0.23793105350E+02 -0.99155369163E+01  0.25875976199E+02  0.00000000000E+00 0.  1.
         11    1    5    5    0    0 -0.18806261550E+03  0.39150669524E+03  0.14170331125E+03  0.45686416821E+03  0.00000000000E+00 0. -1.
        -11    1    5    5    0    0 -0.30464506011E+02  0.46974845733E+02 -0.20385106616E+02  0.59584182715E+02  0.00000000000E+00 0.  1.
          1    1    6    6  503    0  0.16709912987E+03 -0.17574773323E+03  0.10270964841E+03  0.26336031747E+03  0.00000000000E+00 0. -1.
         -1    1    6    6    0  503  0.12897037951E+03 -0.91421406631E+02  0.14408850132E+03  0.21389887469E+03  0.00000000000E+00 0.  1.
<mgrwt>
<rscale>  0 0.14275663E+04</rscale>
<asrwt>0</asrwt>
<pdfrwt beam="1">  1        2 0.11095237E+00 0.14275663E+04</pdfrwt>
<pdfrwt beam="2">  1       -1 0.10868493E+00 0.14275663E+04</pdfrwt>
<totfact> 0.34373087E+01</totfact>
</mgrwt>
</event>
<event>
12    6  0.1663299E-008  0.1158729E+04  0.7818608E-02  0.9149769E-01
          2   -1    0    0  501    0  0.00000000000E+00  0.00000000000E+00  0.96957310406E+03  0.96957310406E+03  0.00000000000E+00 0. -1.
         -1   -1    0    0    0  501 -0.00000000000E+00 -0.00000000000E+00 -0.34619663823E+03  0.34619663823E+03  0.00000000000E+00 0.  1.
         24    2    1    2    0    0 -0.20148146135E+03 -0.13980282508E+02  0.55706088249E+02  0.23125416059E+03  0.97903477767E+02 0.  0.
        254    2    1    2    0    0  0.20148146135E+03  0.13980282508E+02  0.56767037758E+03  0.10845155817E+04  0.90173951993E+03 0.  0.
         23    2    4    4    0    0  0.39337758928E+03 -0.11220604001E+03  0.68656325309E+03  0.80930487653E+03  0.12755061554E+03 0.  0.
         23    2    4    4    0    0 -0.19189612794E+03  0.12618632252E+03 -0.11889287550E+03  0.27521070517E+03  0.94118566119E+02 0.  0.
          2    1    3    3  502    0 -0.21055568696E+03 -0.12584899384E+02  0.62312955636E+02  0.21994313229E+03  0.00000000000E+00 0. -1.
         -1    1    3    3    0  502  0.90742256126E+01 -0.13953831237E+01 -0.66068673872E+01  0.11311028300E+02  0.00000000000E+00 0.  1.
         11    1    5    5    0    0  0.77893197608E+02 -0.30093077243E+02  0.25584772921E+03  0.26913008764E+03  0.00000000000E+00 0. -1.
        -11    1    5    5    0    0  0.31548439167E+03 -0.82112962765E+02  0.43071552388E+03  0.54017478889E+03  0.00000000000E+00 0.  1.
          3    1    6    6  503    0 -0.36203320936E+02 -0.12454123159E+02 -0.29714158721E+02  0.48463562178E+02  0.00000000000E+00 0. -1.
         -3    1    6    6    0  503 -0.15569280700E+03  0.13864044568E+03 -0.89178716782E+02  0.22674714299E+03  0.00000000000E+00 0.  1.
<mgrwt>
<rscale>  0 0.11587285E+04</rscale>
<asrwt>0</asrwt>
<pdfrwt beam="1">  1        2 0.14916509E+00 0.11587285E+04</pdfrwt>
<pdfrwt beam="2">  1       -1 0.53261022E-01 0.11587285E+04</pdfrwt>
<totfact> 0.10575242E+02</totfact>
</mgrwt>
</event>
<event>
12    6  0.1663299E-008  0.1100144E+04  0.7818608E-02  0.9205051E-01
          2   -1    0    0  501    0  0.00000000000E+00  0.00000000000E+00  0.10491872440E+03  0.10491872440E+03  0.00000000000E+00 0. -1.
         -1   -1    0    0    0  501 -0.00000000000E+00 -0.00000000000E+00 -0.28839410662E+04  0.28839410662E+04  0.00000000000E+00 0.  1.
         24    2    1    2    0    0 -0.14229230216E+03 -0.86515593986E+02 -0.60548569287E+03  0.63308382355E+03  0.80312863953E+02 0.  0.
        254    2    1    2    0    0  0.14229230216E+03  0.86515593986E+02 -0.21735366489E+04  0.23557759670E+04  0.89313313422E+03 0.  0.
         23    2    4    4    0    0 -0.69721579875E+02 -0.34295607416E+03 -0.55623675656E+03  0.66660302602E+03  0.11171525162E+03 0.  0.
         23    2    4    4    0    0  0.21201388204E+03  0.42947166815E+03 -0.16172998923E+04  0.16891729410E+04  0.90832169069E+02 0.  0.
          2    1    3    3  502    0 -0.43102587112E+02 -0.48460213493E+02 -0.12312090710E+03  0.13915812255E+03  0.00000000000E+00 0. -1.
         -1    1    3    3    0  502 -0.99189715048E+02 -0.38055380493E+02 -0.48236478577E+03  0.49392570100E+03  0.00000000000E+00 0.  1.
         11    1    5    5    0    0 -0.11556980150E+01  0.86469735119E+01 -0.18733107058E+02  0.20664827337E+02  0.00000000000E+00 0. -1.
        -11    1    5    5    0    0 -0.68565881860E+02 -0.35160304767E+03 -0.53750364950E+03  0.64593819868E+03  0.00000000000E+00 0.  1.
          2    1    6    6  503    0  0.68681942503E+02  0.93090667851E+02 -0.51415889728E+03  0.52701276391E+03  0.00000000000E+00 0. -1.
         -2    1    6    6    0  503  0.14333193953E+03  0.33638100030E+03 -0.11031409951E+04  0.11621601771E+04  0.00000000000E+00 0.  1.
<mgrwt>
<rscale>  0 0.11001444E+04</rscale>
<asrwt>0</asrwt>
<pdfrwt beam="1">  1        2 0.16141341E-01 0.11001444E+04</pdfrwt>
<pdfrwt beam="2">  1       -1 0.44368328E+00 0.11001444E+04</pdfrwt>
<totfact> 0.15334220E+00</totfact>
</mgrwt>
</event>
<event>
11    6  0.1663299E-008  0.1642454E+04  0.7818608E-02  0.8794883E-01
         -1   -1    0    0    0  501 -0.00000000000E+00  0.00000000000E+00  0.37270874901E+03  0.37270874901E+03  0.00000000000E+00 0.  1.
          2   -1    0    0  501    0  0.00000000000E+00 -0.00000000000E+00 -0.18094932975E+04  0.18094932975E+04  0.00000000000E+00 0. -1.
         24    2    1    2    0    0  0.39820232637E+03 -0.23929289201E+03 -0.64329508205E+02  0.47616869090E+03  0.82293108317E+02 0.  0.
        254    2    1    2    0    0 -0.39820232637E+03  0.23929289201E+03 -0.13724550403E+04  0.17060333556E+04  0.90060579166E+03 0.  0.
         23    2    4    4    0    0 -0.64791306048E+03  0.12453553833E+03 -0.11477651733E+04  0.13270464131E+04  0.91579775853E+02 0.  0.
          2    1    3    3  502    0  0.86909845456E+02 -0.76897585735E+02 -0.45215117527E+02  0.12454303185E+03  0.00000000000E+00 0. -1.
         -1    1    3    3    0  502  0.31129248091E+03 -0.16239530628E+03 -0.19114390678E+02  0.35162565905E+03  0.00000000000E+00 0.  1.
         11    1    4    4    0    0  0.12714297022E+03  0.88192246342E+02 -0.19708586014E+03  0.25057143384E+03  0.00000000000E+00 0.  1.
        -11    1    4    4    0    0  0.12256776389E+03  0.26565107339E+02 -0.27604006904E+02  0.12841550868E+03  0.00000000000E+00 0. -1.
          4    1    5    5  503    0 -0.82238416025E+02 -0.81526561344E+01 -0.10850125234E+03  0.13638967935E+03  0.00000000000E+00 0. -1.
         -4    1    5    5    0  503 -0.56567464445E+03  0.13268819446E+03 -0.10392639209E+04  0.11906567338E+04  0.00000000000E+00 0.  1.
<mgrwt>
<rscale>  0 0.16424542E+04</rscale>
<asrwt>0</asrwt>
<pdfrwt beam="1">  1        2 0.27838358E+00 0.16424542E+04</pdfrwt>
<pdfrwt beam="2">  1       -1 0.57339808E-01 0.16424542E+04</pdfrwt>
<totfact> 0.28587445E+01</totfact>
</mgrwt>
</event>
<event>
11    6  0.1663299E-008  0.1702830E+04  0.7818608E-02  0.8759752E-01
          2   -1    0    0  501    0  0.00000000000E+00  0.00000000000E+00  0.10721453192E+04  0.10721453192E+04  0.00000000000E+00 0. -1.
         -1   -1    0    0    0  501 -0.00000000000E+00 -0.00000000000E+00 -0.67612772825E+03  0.67612772825E+03  0.00000000000E+00 0.  1.
         24    2    1    2    0    0  0.12118794158E+03 -0.32569634594E+03  0.63357856143E+03  0.72732761703E+03  0.82577491181E+02 0.  0.
        254    2    1    2    0    0 -0.12118794158E+03  0.32569634594E+03 -0.23756097051E+03  0.10209454304E+04  0.93012350266E+03 0.  0.
         23    2    4    4    0    0 -0.47214357950E+03  0.10435174975E+03 -0.27322778180E+03  0.56286069717E+03  0.91377767161E+02 0.  0.
          2    1    3    3  502    0  0.42552812069E+02 -0.12246442385E+03  0.32187777023E+03  0.34700659344E+03  0.00000000000E+00 0. -1.
         -1    1    3    3    0  502  0.78635129514E+02 -0.20323192209E+03  0.31170079121E+03  0.38032102360E+03  0.00000000000E+00 0.  1.
         11    1    4    4    0    0  0.35711250370E+03  0.19022002986E+03  0.70781853362E+02  0.41075913967E+03  0.00000000000E+00 0. -1.
        -11    1    4    4    0    0 -0.61568657754E+01  0.31124566331E+02 -0.35115042074E+02  0.47325593555E+02  0.00000000000E+00 0.  1.
          4    1    5    5  503    0 -0.19930845729E+03  0.17074858593E+02 -0.15458672833E+03  0.25280915434E+03  0.00000000000E+00 0. -1.
         -4    1    5    5    0  503 -0.27283512222E+03  0.87276891158E+02 -0.11864105347E+03  0.31005154284E+03  0.00000000000E+00 0.  1.
<mgrwt>
<rscale>  0 0.17028296E+04</rscale>
<asrwt>0</asrwt>
<pdfrwt beam="1">  1        2 0.16494543E+00 0.17028296E+04</pdfrwt>
<pdfrwt beam="2">  1       -1 0.10401965E+00 0.17028296E+04</pdfrwt>
<totfact> 0.21411876E+01</totfact>
</mgrwt>
</event>
<event>
12    6  0.1663299E-008  0.1164236E+04  0.7818608E-02  0.9144750E-01
          2   -1    0    0  501    0  0.00000000000E+00  0.00000000000E+00  0.11387201760E+04  0.11387201760E+04  0.00000000000E+00 0. -1.
         -1   -1    0    0    0  501 -0.00000000000E+00 -0.00000000000E+00 -0.29758102027E+03  0.29758102027E+03  0.00000000000E+00 0.  1.
         24    2    1    2    0    0 -0.20183942670E+03  0.77574296935E+02  0.25932336235E+03  0.34732673554E+03  0.81426833699E+02 0.  0.
        254    2    1    2    0    0  0.20183942670E+03 -0.77574296935E+02  0.58181579334E+03  0.10889744607E+04  0.89476188618E+03 0.  0.
         23    2    4    4    0    0  0.52904671033E+03 -0.13068818284E+03  0.46751539007E+03  0.72665914414E+03  0.11177230856E+03 0.  0.
         23    2    4    4    0    0 -0.32720728363E+03  0.53113885905E+02  0.11430040327E+03  0.36231531656E+03  0.91225627378E+02 0.  0.
          2    1    3    3  502    0 -0.19067360131E+03  0.58279862129E+02  0.25646838004E+03  0.32485226569E+03  0.00000000000E+00 0. -1.
         -1    1    3    3    0  502 -0.11165825391E+02  0.19294434806E+02  0.28549823152E+01  0.22474469852E+02  0.00000000000E+00 0.  1.
         11    1    5    5    0    0  0.14671324305E+03  0.37139362285E+01  0.86203143548E+02  0.17020443874E+03  0.00000000000E+00 0. -1.
        -11    1    5    5    0    0  0.38233346728E+03 -0.13440211907E+03  0.38131224653E+03  0.55645470540E+03  0.00000000000E+00 0.  1.
          1    1    6    6  503    0 -0.19419160784E+02  0.27664339747E+02  0.26073573284E+01  0.33900115213E+02  0.00000000000E+00 0. -1.
         -1    1    6    6    0  503 -0.30778812285E+03  0.25449546158E+02  0.11169304594E+03  0.32841520135E+03  0.00000000000E+00 0.  1.
<mgrwt>
<rscale>  0 0.11642363E+04</rscale>
<asrwt>0</asrwt>
<pdfrwt beam="1">  1        2 0.17518772E+00 0.11642363E+04</pdfrwt>
<pdfrwt beam="2">  1       -1 0.45781696E-01 0.11642363E+04</pdfrwt>
<totfact> 0.11023250E+02</totfact>
</mgrwt>
</event>
<event>
12    6  0.1663299E-008  0.1551362E+04  0.7818608E-02  0.8850998E-01
          2   -1    0    0  501    0  0.00000000000E+00  0.00000000000E+00  0.10342749621E+04  0.10342749621E+04  0.00000000000E+00 0. -1.
         -1   -1    0    0    0  501 -0.00000000000E+00 -0.00000000000E+00 -0.58174193025E+03  0.58174193025E+03  0.00000000000E+00 0.  1.
         24    2    1    2    0    0  0.33057065349E+03 -0.24428004974E+03  0.47051296050E+03  0.62969778966E+03  0.78658506632E+02 0.  0.
        254    2    1    2    0    0 -0.33057065349E+03  0.24428004974E+03 -0.17979928613E+02  0.98631910271E+03  0.89641084046E+03 0.  0.
         23    2    4    4    0    0 -0.39376705203E+03  0.93710243698E+02 -0.38697144712E+03  0.57219282077E+03  0.11757390108E+03 0.  0.
         23    2    4    4    0    0  0.63196398545E+02  0.15056980604E+03  0.36899151850E+03  0.41412628194E+03  0.93170732471E+02 0.  0.
          4    1    3    3  502    0  0.27755253849E+03 -0.17280886643E+03  0.39676813900E+03  0.51412379061E+03  0.00000000000E+00 0. -1.
         -1    1    3    3    0  502  0.53018114995E+02 -0.71471183304E+02  0.73744821492E+02  0.11557399905E+03  0.00000000000E+00 0.  1.
         11    1    5    5    0    0 -0.55399280215E+01  0.11539685200E+02  0.56210071751E+01  0.13980374053E+02  0.00000000000E+00 0.  1.
        -11    1    5    5    0    0 -0.38822712401E+03  0.82170558497E+02 -0.39259245429E+03  0.55821244672E+03  0.00000000000E+00 0. -1.
          4    1    6    6  503    0  0.26332156721E+02  0.14184198935E+03  0.24336165379E+03  0.28290886687E+03  0.00000000000E+00 0. -1.
         -4    1    6    6    0  503  0.36864241824E+02  0.87278166874E+01  0.12562986472E+03  0.13121741507E+03  0.00000000000E+00 0.  1.
<mgrwt>
<rscale>  0 0.15513621E+04</rscale>
<asrwt>0</asrwt>
<pdfrwt beam="1">  1        2 0.15911923E+00 0.15513621E+04</pdfrwt>
<pdfrwt beam="2">  1       -1 0.89498758E-01 0.15513621E+04</pdfrwt>
<totfact> 0.32166752E+01</totfact>
</mgrwt>
</event>
<event>
11    6  0.1663299E-008  0.1400845E+04  0.7818608E-02  0.8953207E-01
          2   -1    0    0  501    0  0.00000000000E+00  0.00000000000E+00  0.15794781481E+04  0.15794781481E+04  0.00000000000E+00 0. -1.
         -1   -1    0    0    0  501 -0.00000000000E+00 -0.00000000000E+00 -0.31060379147E+03  0.31060379147E+03  0.00000000000E+00 0.  1.
         24    2    1    2    0    0  0.26646728557E+03  0.87140855645E+02  0.76620715037E+03  0.81990905421E+03  0.81111755606E+02 0.  0.
        254    2    1    2    0    0 -0.26646728557E+03 -0.87140855645E+02  0.50266720623E+03  0.10701728853E+04  0.90221801206E+03 0.  0.
         23    2    4    4    0    0 -0.16358032296E+03  0.25801531870E+03  0.59126540390E+03  0.67126325728E+03  0.87573717351E+02 0.  0.
          2    1    3    3  502    0  0.71632978128E+02  0.46426332163E+02  0.32243527683E+03  0.33354339391E+03  0.00000000000E+00 0. -1.
         -1    1    3    3    0  502  0.19483430745E+03  0.40714523482E+02  0.44377187354E+03  0.48636566030E+03  0.00000000000E+00 0.  1.
         11    1    4    4    0    0 -0.42474076573E+02 -0.22114444607E+03  0.16057426644E+02  0.22575817629E+03  0.00000000000E+00 0. -1.
        -11    1    4    4    0    0 -0.60412886037E+02 -0.12401172827E+03 -0.10465562432E+03  0.17315145177E+03  0.00000000000E+00 0.  1.
          3    1    5    5  503    0 -0.43023383824E+02  0.32437695061E+02  0.17097268829E+03  0.17926203100E+03  0.00000000000E+00 0. -1.
         -3    1    5    5    0  503 -0.12055693914E+03  0.22557762364E+03  0.42029271562E+03  0.49200122628E+03  0.00000000000E+00 0.  1.
<mgrwt>
<rscale>  0 0.14008453E+04</rscale>
<asrwt>0</asrwt>
<pdfrwt beam="1">  1        2 0.24299663E+00 0.14008453E+04</pdfrwt>
<pdfrwt beam="2">  1       -1 0.47785199E-01 0.14008453E+04</pdfrwt>
<totfact> 0.55541093E+01</totfact>
</mgrwt>
</event>
<event>
11    6  0.1663299E-008  0.2011043E+04  0.7818608E-02  0.8601475E-01
          2   -1    0    0  501    0  0.00000000000E+00  0.00000000000E+00  0.18547996249E+04  0.18547996249E+04  0.00000000000E+00 0. -1.
         -1   -1    0    0    0  501 -0.00000000000E+00 -0.00000000000E+00 -0.54511219806E+03  0.54511219806E+03  0.00000000000E+00 0.  1.
         24    2    1    2    0    0 -0.20251172361E+03  0.24309036518E+03 -0.36043318153E+03  0.48799449047E+03  0.90125582070E+02 0.  0.
        254    2    1    2    0    0  0.20251172361E+03 -0.24309036518E+03  0.16701206083E+04  0.19119173324E+04  0.87522632266E+03 0.  0.
         23    2    4    4    0    0 -0.56118307833E+02  0.26443753863E+03  0.64481578834E+03  0.70500865584E+03  0.90406457739E+02 0.  0.
          2    1    3    3  502    0 -0.49449645873E+02  0.16947795634E+02 -0.87401757196E+02  0.10184086810E+03  0.00000000000E+00 0. -1.
         -1    1    3    3    0  502 -0.15306207773E+03  0.22614256954E+03 -0.27303142434E+03  0.38615362238E+03  0.00000000000E+00 0.  1.
         11    1    4    4    0    0  0.20190055472E+03 -0.31804374302E+03  0.39301935292E+03  0.54440781427E+03  0.00000000000E+00 0. -1.
        -11    1    4    4    0    0  0.56729476720E+02 -0.18948416079E+03  0.63228546707E+03  0.66250086233E+03  0.00000000000E+00 0.  1.
          2    1    5    5  503    0 -0.62895384079E+02  0.15367467931E+03  0.46444670099E+03  0.49323673268E+03  0.00000000000E+00 0. -1.
         -2    1    5    5    0  503  0.67770762463E+01  0.11076285933E+03  0.18036908735E+03  0.21177192316E+03  0.00000000000E+00 0.  1.
<mgrwt>
<rscale>  0 0.20110434E+04</rscale>
<asrwt>0</asrwt>
<pdfrwt beam="1">  1        2 0.28535378E+00 0.20110434E+04</pdfrwt>
<pdfrwt beam="2">  1       -1 0.83863416E-01 0.20110434E+04</pdfrwt>
<totfact> 0.11986032E+01</totfact>
</mgrwt>
</event>
<event>
11    6  0.1663299E-008  0.1399477E+04  0.7818608E-02  0.8954197E-01
          2   -1    0    0  501    0  0.00000000000E+00  0.00000000000E+00  0.75754883502E+03  0.75754883502E+03  0.00000000000E+00 0. -1.
         -1   -1    0    0    0  501 -0.00000000000E+00 -0.00000000000E+00 -0.64633991434E+03  0.64633991434E+03  0.00000000000E+00 0.  1.
         24    2    1    2    0    0 -0.18939704997E+03 -0.93045502151E+02  0.37934229219E+03  0.44139113143E+03  0.79980299174E+02 0.  0.
        254    2    1    2    0    0  0.18939704997E+03  0.93045502151E+02 -0.26813337151E+03  0.96249761793E+03  0.89998747302E+03 0.  0.
         23    2    4    4    0    0 -0.16468281642E+03  0.25868259653E+02 -0.45072661757E+03  0.48899352665E+03  0.90391307347E+02 0.  0.
          2    1    3    3  502    0 -0.18416955471E+03 -0.79124769528E+02  0.30090188670E+03  0.36155372969E+03  0.00000000000E+00 0. -1.
         -1    1    3    3    0  502 -0.52274952636E+01 -0.13920732623E+02  0.78440405493E+02  0.79837401745E+02  0.00000000000E+00 0.  1.
         11    1    4    4    0    0  0.37005466893E+03  0.18693252788E+02  0.19809210275E+03  0.42015518189E+03  0.00000000000E+00 0.  1.
        -11    1    4    4    0    0 -0.15974802536E+02  0.48483989710E+02 -0.15498856700E+02  0.53348909392E+02  0.00000000000E+00 0. -1.
          1    1    5    5  503    0  0.51892886763E+01  0.18918512223E+02 -0.46839781020E+02  0.50781925009E+02  0.00000000000E+00 0. -1.
         -1    1    5    5    0  503 -0.16987210510E+03  0.69497474304E+01 -0.40388683655E+03  0.43821160164E+03  0.00000000000E+00 0.  1.
<mgrwt>
<rscale>  0 0.13994771E+04</rscale>
<asrwt>0</asrwt>
<pdfrwt beam="1">  1        2 0.11654597E+00 0.13994771E+04</pdfrwt>
<pdfrwt beam="2">  1       -1 0.99436910E-01 0.13994771E+04</pdfrwt>
<totfact> 0.39738938E+01</totfact>
</mgrwt>
</event>
<event>
11    6  0.1663299E-008  0.1141526E+04  0.7818608E-02  0.9165637E-01
          2   -1    0    0  501    0  0.00000000000E+00  0.00000000000E+00  0.37514162616E+03  0.37514162616E+03  0.00000000000E+00 0. -1.
         -1   -1    0    0    0  501 -0.00000000000E+00 -0.00000000000E+00 -0.86839365624E+03  0.86839365624E+03  0.00000000000E+00 0.  1.
         24    2    1    2    0    0 -0.46568457688E+01  0.12994682032E+03  0.75716020047E+02  0.17078734274E+03  0.80793183022E+02 0.  0.
        254    2    1    2    0    0  0.46568457688E+01 -0.12994682032E+03 -0.56896805013E+03  0.10727479397E+04  0.90008646121E+03 0.  0.
         23    2    4    4    0    0  0.23803985576E+03 -0.34010195339E+03 -0.59043976764E+03  0.72800954095E+03  0.95112884921E+02 0.  0.
          4    1    3    3  502    0  0.26540562515E+02  0.10911629995E+03  0.71288715432E+02  0.13301447034E+03  0.00000000000E+00 0. -1.
         -3    1    3    3    0  502 -0.31197408283E+02  0.20830520376E+02  0.44273046158E+01  0.37772872394E+02  0.00000000000E+00 0.  1.
         11    1    4    4    0    0 -0.22807539873E+03  0.13622414529E+03 -0.58968039803E+01  0.26572575631E+03  0.00000000000E+00 0.  1.
        -11    1    4    4    0    0 -0.53076112554E+01  0.73930987772E+02  0.27368521492E+02  0.79012642399E+02  0.00000000000E+00 0. -1.
          3    1    5    5  503    0  0.51610268422E+02 -0.10921376646E+03 -0.24088431649E+03  0.26947452667E+03  0.00000000000E+00 0. -1.
         -3    1    5    5    0  503  0.18642958734E+03 -0.23088818693E+03 -0.34955545115E+03  0.45853501429E+03  0.00000000000E+00 0.  1.
<mgrwt>
<rscale>  0 0.11415264E+04</rscale>
<asrwt>0</asrwt>
<pdfrwt beam="1">  1        2 0.57714097E-01 0.11415264E+04</pdfrwt>
<pdfrwt beam="2">  1       -1 0.13359902E+00 0.11415264E+04</pdfrwt>
<totfact> 0.45869395E+01</totfact>
</mgrwt>
</event>
<event>
12    6  0.1663299E-008  0.1766195E+04  0.7818608E-02  0.8724486E-01
          2   -1    0    0  501    0  0.00000000000E+00  0.00000000000E+00  0.17399872513E+04  0.17399872513E+04  0.00000000000E+00 0. -1.
         -1   -1    0    0    0  501 -0.00000000000E+00 -0.00000000000E+00 -0.44819925961E+03  0.44819925961E+03  0.00000000000E+00 0.  1.
         24    2    1    2    0    0  0.55727548602E+03 -0.51619562598E+02  0.66687172062E+02  0.56877220307E+03  0.76381237926E+02 0.  0.
        254    2    1    2    0    0 -0.55727548602E+03  0.51619562598E+02  0.12251008196E+04  0.16194143078E+04  0.89911630818E+03 0.  0.
         23    2    4    4    0    0  0.16920416838E+03  0.79409212250E+02  0.30794436313E+02  0.21868066691E+03  0.10925686792E+03 0.  0.
         23    2    4    4    0    0 -0.72647965440E+03 -0.27789649653E+02  0.11943063833E+04  0.14007336409E+04  0.84510607161E+02 0.  0.
          4    1    3    3  502    0  0.13403136305E+02  0.10348405251E+02  0.62704075364E+01  0.18056897982E+02  0.00000000000E+00 0. -1.
         -3    1    3    3    0  502  0.54387234972E+03 -0.61967967849E+02  0.60416764526E+02  0.55071530509E+03  0.00000000000E+00 0.  1.
         11    1    5    5    0    0  0.53797608433E+01 -0.21644663427E+02 -0.50975215715E+01  0.22878330529E+02  0.00000000000E+00 0. -1.
        -11    1    5    5    0    0  0.16382440753E+03  0.10105387568E+03  0.35891957884E+02  0.19580233638E+03  0.00000000000E+00 0.  1.
          4    1    6    6  503    0 -0.16946492918E+03 -0.38562719402E+02  0.31585650278E+03  0.36051459873E+03  0.00000000000E+00 0.  1.
         -4    1    6    6    0  503 -0.55701472522E+03  0.10773069749E+02  0.87844988055E+03  0.10402190422E+04  0.00000000000E+00 0. -1.
<mgrwt>
<rscale>  0 0.17661948E+04</rscale>
<asrwt>0</asrwt>
<pdfrwt beam="1">  1        2 0.26769034E+00 0.17661948E+04</pdfrwt>
<pdfrwt beam="2">  1       -1 0.68953733E-01 0.17661948E+04</pdfrwt>
<totfact> 0.21378025E+01</totfact>
</mgrwt>
</event>
<event>
11    6  0.1663299E-008  0.1308353E+04  0.7818608E-02  0.9022967E-01
          2   -1    0    0  501    0  0.00000000000E+00  0.00000000000E+00  0.94586760417E+03  0.94586760417E+03  0.00000000000E+00 0. -1.
         -1   -1    0    0    0  501 -0.00000000000E+00 -0.00000000000E+00 -0.45243873160E+03  0.45243873160E+03  0.00000000000E+00 0.  1.
         24    2    1    2    0    0  0.10225989005E+03 -0.25432849458E+03  0.35612991217E+03  0.45649379001E+03  0.80112406745E+02 0.  0.
        254    2    1    2    0    0 -0.10225989005E+03  0.25432849458E+03  0.13729896040E+03  0.94181254576E+03  0.89051659084E+03 0.  0.
         23    2    4    4    0    0  0.19840580742E+03  0.37758262459E+03  0.10815402766E+03  0.44887559364E+03  0.88648192598E+02 0.  0.
          2    1    3    3  502    0  0.48117317249E+02 -0.16515687772E+03  0.16296786635E+03  0.23696116969E+03  0.00000000000E+00 0. -1.
         -1    1    3    3    0  502  0.54142572802E+02 -0.89171616852E+02  0.19316204582E+03  0.21953262032E+03  0.00000000000E+00 0.  1.
         11    1    4    4    0    0 -0.36085930507E+03 -0.16845862230E+02 -0.18503377427E+02  0.36172585766E+03  0.00000000000E+00 0. -1.
        -11    1    4    4    0    0  0.60193607592E+02 -0.10640826778E+03  0.47648310172E+02  0.13121109446E+03  0.00000000000E+00 0.  1.
          1    1    5    5  503    0  0.19796647622E+03  0.37006829636E+03  0.90014583751E+02  0.42923640918E+03  0.00000000000E+00 0. -1.
         -1    1    5    5    0  503  0.43933120028E+00  0.75143282259E+01  0.18139443908E+02  0.19639184450E+02  0.00000000000E+00 0.  1.
<mgrwt>
<rscale>  0 0.13083534E+04</rscale>
<asrwt>0</asrwt>
<pdfrwt beam="1">  1        2 0.14551809E+00 0.13083534E+04</pdfrwt>
<pdfrwt beam="2">  1       -1 0.69605959E-01 0.13083534E+04</pdfrwt>
<totfact> 0.63757350E+01</totfact>
</mgrwt>
</event>
<event>
11    6  0.1663299E-008  0.2116173E+04  0.7818608E-02  0.8554152E-01
         -1   -1    0    0    0  501 -0.00000000000E+00  0.00000000000E+00  0.50881481454E+03  0.50881481454E+03  0.00000000000E+00 0.  1.
          2   -1    0    0  501    0  0.00000000000E+00 -0.00000000000E+00 -0.22003034026E+04  0.22003034026E+04  0.00000000000E+00 0. -1.
         24    2    1    2    0    0 -0.32817180326E+03  0.42823789420E+03  0.16546658514E+03  0.56988143637E+03  0.79380313950E+02 0.  0.
        254    2    1    2    0    0  0.32817180326E+03 -0.42823789420E+03 -0.18569551731E+04  0.21392367807E+04  0.91485903966E+03 0.  0.
         23    2    4    4    0    0 -0.19835805003E+03 -0.42632331777E+03 -0.96613817228E+03  0.10784745881E+04  0.92665970041E+02 0.  0.
          2    1    3    3  502    0 -0.16449998222E+02  0.19234455867E+02  0.27647585638E+02  0.37482739036E+02  0.00000000000E+00 0. -1.
         -1    1    3    3    0  502 -0.31172180504E+03  0.40900343833E+03  0.13781899950E+03  0.53239869734E+03  0.00000000000E+00 0.  1.
         11    1    4    4    0    0  0.14139159994E+03  0.48889584990E+02 -0.10078875903E+03  0.18038888547E+03  0.00000000000E+00 0. -1.
        -11    1    4    4    0    0  0.38513825335E+03 -0.50804161418E+02 -0.79002824184E+03  0.88037330714E+03  0.00000000000E+00 0.  1.
          3    1    5    5  503    0 -0.62644502667E+01 -0.47060286394E+02 -0.16276193729E+03  0.16954457267E+03  0.00000000000E+00 0. -1.
         -3    1    5    5    0  503 -0.19209359976E+03 -0.37926303137E+03 -0.80337623499E+03  0.90893001545E+03  0.00000000000E+00 0.  1.
<mgrwt>
<rscale>  0 0.21161729E+04</rscale>
<asrwt>0</asrwt>
<pdfrwt beam="1">  1        2 0.33850822E+00 0.21161729E+04</pdfrwt>
<pdfrwt beam="2">  1       -1 0.78279202E-01 0.21161729E+04</pdfrwt>
<totfact> 0.88335958E+00</totfact>
</mgrwt>
</event>
<event>
12    6  0.1663299E-008  0.3747915E+04  0.7818608E-02  0.8057426E-01
         -1   -1    0    0    0  501 -0.00000000000E+00  0.00000000000E+00  0.17774242799E+04  0.17774242799E+04  0.00000000000E+00 0.  1.
          2   -1    0    0  501    0  0.00000000000E+00 -0.00000000000E+00 -0.19757331733E+04  0.19757331733E+04  0.00000000000E+00 0. -1.
         24    2    1    2    0    0 -0.28655329156E+03 -0.10601846083E+04  0.13143760018E+04  0.17148509850E+04  0.83817862472E+02 0.  0.
        254    2    1    2    0    0  0.28655329156E+03  0.10601846083E+04 -0.15126848952E+04  0.20383064682E+04  0.81263366499E+03 0.  0.
         23    2    4    4    0    0 -0.11121706208E+03  0.91126664212E+03 -0.11217179662E+04  0.14536695393E+04  0.11012631755E+03 0.  0.
         23    2    4    4    0    0  0.39777035363E+03  0.14891796616E+03 -0.39096692904E+03  0.58463692891E+03  0.92452064167E+02 0.  0.
          2    1    3    3  502    0 -0.59489995433E+02 -0.12310600438E+03  0.18071621131E+03  0.22661089316E+03  0.00000000000E+00 0. -1.
         -3    1    3    3    0  502 -0.22706329612E+03 -0.93707860390E+03  0.11336597905E+04  0.14882400918E+04  0.00000000000E+00 0.  1.
         11    1    5    5    0    0 -0.58429904658E+02  0.16077146809E+03 -0.23751097040E+03  0.29269947006E+03  0.00000000000E+00 0. -1.
        -11    1    5    5    0    0 -0.52787157421E+02  0.75049517403E+03 -0.88420699578E+03  0.11609700692E+04  0.00000000000E+00 0.  1.
          3    1    6    6  503    0  0.25967319613E+03  0.12210621503E+03 -0.21081259334E+03  0.35606466555E+03  0.00000000000E+00 0. -1.
         -3    1    6    6    0  503  0.13809715750E+03  0.26811751129E+02 -0.18015433570E+03  0.22857226337E+03  0.00000000000E+00 0.  1.
<mgrwt>
<rscale>  0 0.37479147E+04</rscale>
<asrwt>0</asrwt>
<pdfrwt beam="1">  1        2 0.30395895E+00 0.37479147E+04</pdfrwt>
<pdfrwt beam="2">  1       -1 0.27344989E+00 0.37479147E+04</pdfrwt>
<totfact> 0.30984161E-01</totfact>
</mgrwt>
</event>
<event>
12    6  0.1663299E-008  0.1200794E+04  0.7818608E-02  0.9112162E-01
          2   -1    0    0  501    0  0.00000000000E+00  0.00000000000E+00  0.14409501465E+04  0.14409501465E+04  0.00000000000E+00 0. -1.
         -1   -1    0    0    0  501 -0.00000000000E+00 -0.00000000000E+00 -0.25016592628E+03  0.25016592628E+03  0.00000000000E+00 0.  1.
         24    2    1    2    0    0 -0.11564057601E+03  0.18293043596E+03  0.44217894891E+03  0.49919688295E+03  0.82698354717E+02 0.  0.
        254    2    1    2    0    0  0.11564057601E+03 -0.18293043596E+03  0.74860527134E+03  0.11919191899E+04  0.90190089015E+03 0.  0.
         23    2    4    4    0    0  0.38578493752E+03 -0.17686622904E+03  0.79360874644E+03  0.90297316285E+03  0.73715733765E+02 0.  0.
         23    2    4    4    0    0 -0.27014436151E+03 -0.60642069215E+01 -0.45003475106E+02  0.28894602700E+03  0.91922484117E+02 0.  0.
          2    1    3    3  502    0 -0.61913043534E+02  0.16279251308E+03  0.33979115314E+03  0.38182804380E+03  0.00000000000E+00 0. -1.
         -1    1    3    3    0  502 -0.53727532473E+02  0.20137922881E+02  0.10238779577E+03  0.11736883916E+03  0.00000000000E+00 0.  1.
         11    1    5    5    0    0  0.11628337029E+03 -0.56092126533E+02  0.31701063154E+03  0.34229211118E+03  0.00000000000E+00 0. -1.
        -11    1    5    5    0    0  0.26950156723E+03 -0.12077410251E+03  0.47659811490E+03  0.56068105167E+03  0.00000000000E+00 0.  1.
          1    1    6    6  503    0 -0.94003904260E+02  0.10134726228E+02 -0.59102328732E+02  0.11150126436E+03  0.00000000000E+00 0. -1.
         -1    1    6    6    0  503 -0.17614045726E+03 -0.16198933150E+02  0.14098853626E+02  0.17744476265E+03  0.00000000000E+00 0.  1.
<mgrwt>
<rscale>  0 0.12007941E+04</rscale>
<asrwt>0</asrwt>
<pdfrwt beam="1">  1        2 0.22168463E+00 0.12007941E+04</pdfrwt>
<pdfrwt beam="2">  1       -1 0.38487066E-01 0.12007941E+04</pdfrwt>
<totfact> 0.10070195E+02</totfact>
</mgrwt>
</event>
<event>
11    6  0.1663299E-008  0.2582786E+04  0.7818608E-02  0.8374072E-01
          2   -1    0    0  501    0  0.00000000000E+00  0.00000000000E+00  0.22894843290E+04  0.22894843290E+04  0.00000000000E+00 0. -1.
         -1   -1    0    0    0  501 -0.00000000000E+00 -0.00000000000E+00 -0.72841546858E+03  0.72841546858E+03  0.00000000000E+00 0.  1.
         24    2    1    2    0    0  0.34345341145E+03  0.10711262070E+04  0.64961158619E+03  0.13015297627E+04  0.81932368289E+02 0.  0.
        254    2    1    2    0    0 -0.34345341145E+03 -0.10711262070E+04  0.91145727425E+03  0.17163700349E+04  0.92190028566E+03 0.  0.
         23    2    4    4    0    0 -0.49282562534E+03 -0.38713750147E+03  0.36199897846E+03  0.72957228885E+03  0.92086493137E+02 0.  0.
          2    1    3    3  502    0  0.10850043757E+02  0.69825924538E+01  0.68793634154E+01  0.14622095880E+02  0.00000000000E+00 0. -1.
         -1    1    3    3    0  502  0.33260336769E+03  0.10641436146E+04  0.64273222277E+03  0.12869076668E+04  0.00000000000E+00 0.  1.
         11    1    4    4    0    0 -0.43431376749E+02 -0.48129338023E+03  0.51285983093E+03  0.70466645197E+03  0.00000000000E+00 0. -1.
        -11    1    4    4    0    0  0.19280359064E+03 -0.20269532534E+03  0.36598464863E+02  0.28213129410E+03  0.00000000000E+00 0.  1.
          3    1    5    5  503    0 -0.45351568257E+03 -0.32001849607E+03  0.32759072550E+03  0.64451842146E+03  0.00000000000E+00 0. -1.
         -3    1    5    5    0  503 -0.39309942762E+02 -0.67119005403E+02  0.34408252952E+02  0.85053867387E+02  0.00000000000E+00 0.  1.
<mgrwt>
<rscale>  0 0.25827859E+04</rscale>
<asrwt>0</asrwt>
<pdfrwt beam="1">  1        2 0.35222836E+00 0.25827859E+04</pdfrwt>
<pdfrwt beam="2">  1       -1 0.11206392E+00 0.25827859E+04</pdfrwt>
<totfact> 0.33809742E+00</totfact>
</mgrwt>
</event>
<event>
12    6  0.1663299E-008  0.2181359E+04  0.7818608E-02  0.8526227E-01
         -1   -1    0    0    0  501 -0.00000000000E+00  0.00000000000E+00  0.49012735600E+03  0.49012735600E+03  0.00000000000E+00 0.  1.
          2   -1    0    0  501    0  0.00000000000E+00 -0.00000000000E+00 -0.24270874691E+04  0.24270874691E+04  0.00000000000E+00 0. -1.
         24    2    1    2    0    0  0.37010573827E+03 -0.65606692820E+03 -0.13994416919E+03  0.76999075819E+03  0.76807066351E+02 0.  0.
        254    2    1    2    0    0 -0.37010573827E+03  0.65606692820E+03 -0.17970159439E+04  0.21472240669E+04  0.90216562729E+03 0.  0.
         23    2    4    4    0    0 -0.66257680003E+03  0.41906225320E+03 -0.11492119192E+04  0.13928122172E+04  0.67945929721E+02 0.  0.
         23    2    4    4    0    0  0.29247106176E+03  0.23700467500E+03 -0.64780402478E+03  0.75441184969E+03  0.88185296356E+02 0.  0.
          4    1    3    3  502    0  0.10910298313E+03 -0.18999553768E+03 -0.76475074944E+02  0.23205646372E+03  0.00000000000E+00 0. -1.
         -1    1    3    3    0  502  0.26100275514E+03 -0.46607139052E+03 -0.63469094248E+02  0.53793429447E+03  0.00000000000E+00 0.  1.
         11    1    5    5    0    0 -0.14115856910E+03  0.57578997581E+02 -0.22318935282E+03  0.27028608881E+03  0.00000000000E+00 0. -1.
        -11    1    5    5    0    0 -0.52141823092E+03  0.36148325562E+03 -0.92602256635E+03  0.11225261284E+04  0.00000000000E+00 0.  1.
          3    1    6    6  503    0  0.59173731931E+02  0.99665804739E+02 -0.19622941641E+03  0.22790521506E+03  0.00000000000E+00 0. -1.
         -3    1    6    6    0  503  0.23329732983E+03  0.13733887026E+03 -0.45157460837E+03  0.52650663463E+03  0.00000000000E+00 0.  1.
<mgrwt>
<rscale>  0 0.21813592E+04</rscale>
<asrwt>0</asrwt>
<pdfrwt beam="1">  1        2 0.37339807E+00 0.21813592E+04</pdfrwt>
<pdfrwt beam="2">  1       -1 0.75404209E-01 0.21813592E+04</pdfrwt>
<totfact> 0.70646113E+00</totfact>
</mgrwt>
</event>
<event>
11    6  0.1663299E-008  0.1487347E+04  0.7818608E-02  0.8892911E-01
          2   -1    0    0  501    0  0.00000000000E+00  0.00000000000E+00  0.87044249277E+03  0.87044249277E+03  0.00000000000E+00 0. -1.
         -3   -1    0    0    0  501 -0.00000000000E+00 -0.00000000000E+00 -0.63536694123E+03  0.63536694123E+03  0.00000000000E+00 0.  1.
         24    2    1    2    0    0 -0.33163784763E+03  0.17412050329E+03  0.30858823470E+03  0.49183069140E+03  0.79806758884E+02 0.  0.
        254    2    1    2    0    0  0.33163784763E+03 -0.17412050329E+03 -0.73512683162E+02  0.10139787426E+04  0.93938658933E+03 0.  0.
         23    2    4    4    0    0  0.36764458065E+03 -0.23555659400E+03 -0.26226104198E+03  0.51726254338E+03  0.90167832334E+02 0.  0.
          4    1    3    3  502    0 -0.31601693950E+03  0.17712399886E+03  0.30864802435E+03  0.47592354423E+03  0.00000000000E+00 0. -1.
         -3    1    3    3    0  502 -0.15620908126E+02 -0.30034955608E+01 -0.59789646571E-01  0.15907147169E+02  0.00000000000E+00 0.  1.
         11    1    4    4    0    0 -0.17419859059E+03 -0.11038038907E+03 -0.37257343965E+00  0.20622589087E+03  0.00000000000E+00 0.  1.
        -11    1    4    4    0    0  0.13819185757E+03  0.17181647978E+03  0.18912093225E+03  0.29049030834E+03  0.00000000000E+00 0. -1.
          3    1    5    5  503    0  0.11090400605E+03 -0.97046601063E+02 -0.46876152726E+02  0.15464512611E+03  0.00000000000E+00 0. -1.
         -3    1    5    5    0  503  0.25674057460E+03 -0.13850999294E+03 -0.21538488925E+03  0.36261741727E+03  0.00000000000E+00 0.  1.
<mgrwt>
<rscale>  0 0.14873471E+04</rscale>
<asrwt>0</asrwt>
<pdfrwt beam="1">  1        2 0.13391423E+00 0.14873471E+04</pdfrwt>
<pdfrwt beam="2">  1       -3 0.97748760E-01 0.14873471E+04</pdfrwt>
<totfact> 0.17335293E+01</totfact>
</mgrwt>
</event>
<event>
12    6  0.1663299E-008  0.1687679E+04  0.7818608E-02  0.8768423E-01
          2   -1    0    0  501    0  0.00000000000E+00  0.00000000000E+00  0.25255653163E+04  0.25255653163E+04  0.00000000000E+00 0. -1.
         -1   -1    0    0    0  501 -0.00000000000E+00 -0.00000000000E+00 -0.28194287970E+03  0.28194287970E+03  0.00000000000E+00 0.  1.
         24    2    1    2    0    0  0.60855958282E+02  0.11648735377E+03 -0.16557444267E+03  0.22562972875E+03  0.78874122397E+02 0.  0.
        254    2    1    2    0    0 -0.60855958282E+02 -0.11648735377E+03  0.24091968793E+04  0.25818784673E+04  0.91901798965E+03 0.  0.
         23    2    4    4    0    0 -0.29385335781E+03 -0.85057516228E+02  0.22740060994E+04  0.22952746474E+04  0.59978246163E+02 0.  0.
         23    2    4    4    0    0  0.23299739953E+03 -0.31429837546E+02  0.13519077993E+03  0.28660381988E+03  0.92679985541E+02 0.  0.
          2    1    3    3  502    0  0.18306836230E+01  0.20913924946E+02  0.48201057390E+01  0.21540127171E+02  0.00000000000E+00 0. -1.
         -1    1    3    3    0  502  0.59025274659E+02  0.95573428828E+02 -0.17039454841E+03  0.20408960158E+03  0.00000000000E+00 0.  1.
         11    1    5    5    0    0 -0.13697435248E+03 -0.70866234795E+02  0.11243592110E+04  0.11348866163E+04  0.00000000000E+00 0. -1.
        -11    1    5    5    0    0 -0.15687900533E+03 -0.14191281433E+02  0.11496468884E+04  0.11603880311E+04  0.00000000000E+00 0.  1.
          2    1    6    6  503    0  0.13120280941E+03  0.28754246957E+02  0.67064386584E+02  0.15012866437E+03  0.00000000000E+00 0. -1.
         -2    1    6    6    0  503  0.10179459011E+03 -0.60184084503E+02  0.68126393343E+02  0.13647515552E+03  0.00000000000E+00 0.  1.
<mgrwt>
<rscale>  0 0.16876791E+04</rscale>
<asrwt>0</asrwt>
<pdfrwt beam="1">  1        2 0.38854850E+00 0.16876791E+04</pdfrwt>
<pdfrwt beam="2">  1       -1 0.43375829E-01 0.16876791E+04</pdfrwt>
<totfact> 0.19171230E+01</totfact>
</mgrwt>
</event>
<event>
12    6  0.1663299E-008  0.2501426E+04  0.7818608E-02  0.8402478E-01
          2   -1    0    0  501    0  0.00000000000E+00  0.00000000000E+00  0.78205724483E+03  0.78205724483E+03  0.00000000000E+00 0. -1.
         -1   -1    0    0    0  501 -0.00000000000E+00 -0.00000000000E+00 -0.20002154672E+04  0.20002154672E+04  0.00000000000E+00 0.  1.
         24    2    1    2    0    0  0.44914593814E+03  0.57845561521E+03 -0.14197944205E+04  0.15994098289E+04  0.77153300139E+02 0.  0.
        254    2    1    2    0    0 -0.44914593814E+03 -0.57845561521E+03  0.20163619820E+03  0.11828628831E+04  0.90673285549E+03 0.  0.
         23    2    4    4    0    0 -0.55959519336E+03 -0.74330799072E+03  0.22779162923E+03  0.96367731395E+03  0.10550540072E+03 0.  0.
         23    2    4    4    0    0  0.11044925522E+03  0.16485237551E+03 -0.26155431031E+02  0.21918556913E+03  0.89346871530E+02 0.  0.
          2    1    3    3  502    0  0.23318158065E+03  0.24481485406E+03 -0.69160156835E+03  0.76981860959E+03  0.00000000000E+00 0. -1.
         -3    1    3    3    0  502  0.21596435748E+03  0.33364076115E+03 -0.72819285219E+03  0.82959121933E+03  0.00000000000E+00 0.  1.
         11    1    5    5    0    0 -0.40226078646E+03 -0.59006340134E+03  0.20435742634E+03  0.74279910852E+03  0.00000000000E+00 0. -1.
        -11    1    5    5    0    0 -0.15733440690E+03 -0.15324458938E+03  0.23434202898E+02  0.22087820543E+03  0.00000000000E+00 0.  1.
          4    1    6    6  503    0  0.99963083270E+02  0.16148282849E+03 -0.46965740348E+02  0.19564023789E+03  0.00000000000E+00 0. -1.
         -4    1    6    6    0  503  0.10486171950E+02  0.33695470154E+01  0.20810309318E+02  0.23545331239E+02  0.00000000000E+00 0.  1.
<mgrwt>
<rscale>  0 0.25014260E+04</rscale>
<asrwt>0</asrwt>
<pdfrwt beam="1">  1        2 0.12031650E+00 0.25014260E+04</pdfrwt>
<pdfrwt beam="2">  1       -1 0.30772546E+00 0.25014260E+04</pdfrwt>
<totfact> 0.10625027E+00</totfact>
</mgrwt>
</event>
<event>
12    6  0.1663299E-008  0.1206178E+04  0.7818608E-02  0.9107466E-01
          2   -1    0    0  501    0  0.00000000000E+00  0.00000000000E+00  0.30733502093E+04  0.30733502093E+04  0.00000000000E+00 0. -1.
         -1   -1    0    0    0  501 -0.00000000000E+00 -0.00000000000E+00 -0.11834523356E+03  0.11834523356E+03  0.00000000000E+00 0.  1.
         24    2    1    2    0    0 -0.52782373073E+02  0.24941049557E+03  0.86941880117E+03  0.90948076777E+03  0.79212631071E+02 0.  0.
        254    2    1    2    0    0  0.52782373073E+02 -0.24941049557E+03  0.20855861745E+04  0.22822146750E+04  0.89097842701E+03 0.  0.
         23    2    4    4    0    0  0.29312893669E+03 -0.28587509712E+03  0.42069359288E+03  0.59733620905E+03  0.11035534818E+03 0.  0.
         23    2    4    4    0    0 -0.24034656362E+03  0.36464601554E+02  0.16648925817E+04  0.16848784660E+04  0.88611505543E+02 0.  0.
          2    1    3    3  502    0 -0.59862033943E+02  0.21688841585E+03  0.81676775579E+03  0.84719160462E+03  0.00000000000E+00 0. -1.
         -1    1    3    3    0  502  0.70796608692E+01  0.32522079721E+02  0.52651045375E+02  0.62289163155E+02  0.00000000000E+00 0.  1.
         11    1    5    5    0    0  0.80989509537E+02 -0.19895824545E+02  0.72199834742E+02  0.11030847939E+03  0.00000000000E+00 0.  1.
        -11    1    5    5    0    0  0.21213942716E+03 -0.26597927258E+03  0.34849375813E+03  0.48702772966E+03  0.00000000000E+00 0. -1.
          4    1    6    6  503    0 -0.24236860115E+03  0.29935543486E+02  0.14922607690E+04  0.15121113975E+04  0.00000000000E+00 0. -1.
         -4    1    6    6    0  503  0.20220375297E+01  0.65290580679E+01  0.17263181262E+03  0.17276706852E+03  0.00000000000E+00 0.  1.
<mgrwt>
<rscale>  0 0.12061780E+04</rscale>
<asrwt>0</asrwt>
<pdfrwt beam="1">  1        2 0.47282305E+00 0.12061780E+04</pdfrwt>
<pdfrwt beam="2">  1       -1 0.18206961E-01 0.12061780E+04</pdfrwt>
<totfact> 0.42729296E+01</totfact>
</mgrwt>
</event>
<event>
12    6  0.1663299E-008  0.1859494E+04  0.7818608E-02  0.8675286E-01
          2   -1    0    0  501    0  0.00000000000E+00  0.00000000000E+00  0.79089972833E+03  0.79089972833E+03  0.00000000000E+00 0. -1.
         -1   -1    0    0    0  501 -0.00000000000E+00 -0.00000000000E+00 -0.10929691875E+04  0.10929691875E+04  0.00000000000E+00 0.  1.
         24    2    1    2    0    0  0.95429466794E+02  0.50989064655E+03 -0.60683377495E+03  0.80220239416E+03  0.78652375632E+02 0.  0.
        254    2    1    2    0    0 -0.95429466794E+02 -0.50989064655E+03  0.30476431575E+03  0.10816665217E+04  0.89890262068E+03 0.  0.
         23    2    4    4    0    0 -0.28841286368E+03  0.14966358652E+03  0.91391727215E+02  0.35602794615E+03  0.11323551374E+03 0.  0.
         23    2    4    4    0    0  0.19298339688E+03 -0.65955423307E+03  0.21337258854E+03  0.72563857556E+03  0.93643488656E+02 0.  0.
          4    1    3    3  502    0  0.11040939647E+02  0.41125802650E+01 -0.11205963774E+02  0.16260051932E+02  0.00000000000E+00 0. -1.
         -3    1    3    3    0  502  0.84388527146E+02  0.50577806628E+03 -0.59562781118E+03  0.78594234222E+03  0.00000000000E+00 0.  1.
         11    1    5    5    0    0 -0.41143235609E+02  0.36847950300E+02  0.61403439914E+02  0.82588859484E+02  0.00000000000E+00 0.  1.
        -11    1    5    5    0    0 -0.24726962807E+03  0.11281563622E+03  0.29988287301E+02  0.27343908667E+03  0.00000000000E+00 0. -1.
          3    1    6    6  503    0  0.18059853260E+03 -0.50881025338E+03  0.19122079664E+03  0.57277316365E+03  0.00000000000E+00 0. -1.
         -3    1    6    6    0  503  0.12384864279E+02 -0.15074397969E+03  0.22151791900E+02  0.15286541191E+03  0.00000000000E+00 0.  1.
<mgrwt>
<rscale>  0 0.18594935E+04</rscale>
<asrwt>0</asrwt>
<pdfrwt beam="1">  1        2 0.12167688E+00 0.18594935E+04</pdfrwt>
<pdfrwt beam="2">  1       -1 0.16814911E+00 0.18594935E+04</pdfrwt>
<totfact> 0.95245773E+00</totfact>
</mgrwt>
</event>
<event>
12    6  0.1663299E-008  0.1286978E+04  0.7818608E-02  0.9039956E-01
         -1   -1    0    0    0  501 -0.00000000000E+00  0.00000000000E+00  0.33214468243E+03  0.33214468243E+03  0.00000000000E+00 0.  1.
          2   -1    0    0  501    0  0.00000000000E+00 -0.00000000000E+00 -0.12466792595E+04  0.12466792595E+04  0.00000000000E+00 0. -1.
         24    2    1    2    0    0  0.19495504376E+03  0.23755993966E+03 -0.60351274471E+03  0.68210004910E+03  0.81182818005E+02 0.  0.
        254    2    1    2    0    0 -0.19495504376E+03 -0.23755993966E+03 -0.31102183239E+03  0.89672389287E+03  0.78290290956E+03 0.  0.
         23    2    4    4    0    0 -0.92822289217E+02 -0.44879382468E+03 -0.41939315215E+03  0.62441178407E+03  0.62988773381E+02 0.  0.
         23    2    4    4    0    0 -0.10213275454E+03  0.21123388502E+03  0.10837131976E+03  0.27231210879E+03  0.85782794994E+02 0.  0.
          4    1    3    3  502    0  0.13785388364E+03  0.14937347302E+03 -0.47103772604E+03  0.51302306676E+03  0.00000000000E+00 0. -1.
         -3    1    3    3    0  502  0.57101160124E+02  0.88186466642E+02 -0.13247501867E+03  0.16907698234E+03  0.00000000000E+00 0.  1.
         11    1    5    5    0    0  0.56950766136E+01 -0.46610062789E+01 -0.40464061451E+01  0.83983498295E+01  0.00000000000E+00 0. -1.
        -11    1    5    5    0    0 -0.98517365830E+02 -0.44413281840E+03 -0.41534674600E+03  0.61601343424E+03  0.00000000000E+00 0.  1.
          1    1    6    6  503    0 -0.77681930712E+00  0.95600354204E+02  0.33657465045E+02  0.10135509916E+03  0.00000000000E+00 0. -1.
         -1    1    6    6    0  503 -0.10135593524E+03  0.11563353082E+03  0.74713854713E+02  0.17095700964E+03  0.00000000000E+00 0.  1.
<mgrwt>
<rscale>  0 0.12869777E+04</rscale>
<asrwt>0</asrwt>
<pdfrwt beam="1">  1        2 0.19179680E+00 0.12869777E+04</pdfrwt>
<pdfrwt beam="2">  1       -1 0.51099183E-01 0.12869777E+04</pdfrwt>
<totfact> 0.76495996E+01</totfact>
</mgrwt>
</event>
<event>
12    6  0.1663299E-008  0.2280596E+04  0.7818608E-02  0.8485611E-01
          2   -1    0    0  501    0  0.00000000000E+00  0.00000000000E+00  0.72190012035E+03  0.72190012035E+03  0.00000000000E+00 0. -1.
         -1   -1    0    0    0  501 -0.00000000000E+00 -0.00000000000E+00 -0.18011910917E+04  0.18011910917E+04  0.00000000000E+00 0.  1.
         24    2    1    2    0    0  0.35214406484E+03  0.19914495588E+03 -0.14131752773E+04  0.14718668865E+04  0.75256969252E+02 0.  0.
        254    2    1    2    0    0 -0.35214406484E+03 -0.19914495588E+03  0.33388430598E+03  0.10512243255E+04  0.91100477326E+03 0.  0.
         23    2    4    4    0    0 -0.61413615877E+03  0.12550962882E+02  0.32422466065E+03  0.70270630091E+03  0.10655405479E+03 0.  0.
         23    2    4    4    0    0  0.26199209393E+03 -0.21169591876E+03  0.96596453278E+01  0.34851802459E+03  0.88974633520E+02 0.  0.
          4    1    3    3  502    0  0.20255500020E+03  0.10385064657E+03 -0.92089243065E+03  0.94860758680E+03  0.00000000000E+00 0. -1.
         -3    1    3    3    0  502  0.14958906463E+03  0.95294309312E+02 -0.49228284667E+03  0.52325929974E+03  0.00000000000E+00 0.  1.
         11    1    5    5    0    0 -0.57200690174E+03  0.15123249602E+02  0.26656921088E+03  0.63125252673E+03  0.00000000000E+00 0.  1.
        -11    1    5    5    0    0 -0.42129257035E+02 -0.25722867201E+01  0.57655449767E+02  0.71453774184E+02  0.00000000000E+00 0. -1.
          4    1    6    6  503    0  0.72144359370E+02 -0.11222257343E+03 -0.65819175572E+01  0.13357408511E+03  0.00000000000E+00 0. -1.
         -4    1    6    6    0  503  0.18984773456E+03 -0.99473345335E+02  0.16241562885E+02  0.21494393947E+03  0.00000000000E+00 0.  1.
<mgrwt>
<rscale>  0 0.22805965E+04</rscale>
<asrwt>0</asrwt>
<pdfrwt beam="1">  1        2 0.11106156E+00 0.22805965E+04</pdfrwt>
<pdfrwt beam="2">  1       -1 0.27710632E+00 0.22805965E+04</pdfrwt>
<totfact> 0.18969695E+00</totfact>
</mgrwt>
</event>
<event>
12    6  0.1663299E-008  0.3317572E+04  0.7818608E-02  0.8158439E-01
         -1   -1    0    0    0  501 -0.00000000000E+00  0.00000000000E+00  0.10586395059E+04  0.10586395059E+04  0.00000000000E+00 0.  1.
          2   -1    0    0  501    0  0.00000000000E+00 -0.00000000000E+00 -0.25991574097E+04  0.25991574097E+04  0.00000000000E+00 0. -1.
         24    2    1    2    0    0  0.80302262620E+02 -0.22806062732E+03  0.96373449677E+03  0.99680763858E+03  0.79882319319E+02 0.  0.
        254    2    1    2    0    0 -0.80302262620E+02  0.22806062732E+03 -0.25042524005E+04  0.26609892771E+04  0.86667395486E+03 0.  0.
         23    2    4    4    0    0 -0.11662285440E+03  0.27441244231E+03 -0.24973280866E+03  0.40385787653E+03  0.10877329656E+03 0.  0.
         23    2    4    4    0    0  0.36320591777E+02 -0.46351814997E+02 -0.22545195918E+04  0.22571314005E+04  0.91191518834E+02 0.  0.
          2    1    3    3  502    0  0.61122670146E+02 -0.98492510259E+02  0.33247446021E+03  0.35210228922E+03  0.00000000000E+00 0. -1.
         -1    1    3    3    0  502  0.19179592474E+02 -0.12956811706E+03  0.63126003657E+03  0.64470534936E+03  0.00000000000E+00 0.  1.
         11    1    5    5    0    0 -0.92288453362E+02  0.10514683737E+03 -0.72486396803E+02  0.15756679141E+03  0.00000000000E+00 0. -1.
        -11    1    5    5    0    0 -0.24334401035E+02  0.16926560495E+03 -0.17724641186E+03  0.24629108512E+03  0.00000000000E+00 0.  1.
          1    1    6    6  503    0  0.32562398812E+02 -0.73650316306E+02 -0.17664052906E+04  0.17682398959E+04  0.00000000000E+00 0. -1.
         -1    1    6    6    0  503  0.37581929658E+01  0.27298501308E+02 -0.48811430125E+03  0.48889150460E+03  0.00000000000E+00 0.  1.
<mgrwt>
<rscale>  0 0.33175718E+04</rscale>
<asrwt>0</asrwt>
<pdfrwt beam="1">  1        2 0.39987037E+00 0.33175718E+04</pdfrwt>
<pdfrwt beam="2">  1       -1 0.16286762E+00 0.33175718E+04</pdfrwt>
<totfact> 0.80252162E-01</totfact>
</mgrwt>
</event>
<event>
12    6  0.1663299E-008  0.3554071E+04  0.7818608E-02  0.8101094E-01
          2   -1    0    0  501    0  0.00000000000E+00  0.00000000000E+00  0.40324152553E+04  0.40324152553E+04  0.00000000000E+00 0. -1.
         -1   -1    0    0    0  501 -0.00000000000E+00 -0.00000000000E+00 -0.78311772263E+03  0.78311772263E+03  0.00000000000E+00 0.  1.
         24    2    1    2    0    0 -0.57942312675E+03 -0.38453655499E+03 -0.52352802252E+03  0.87420473822E+03  0.80949441150E+02 0.  0.
        254    2    1    2    0    0  0.57942312675E+03  0.38453655499E+03  0.37728255552E+04  0.39413282397E+04  0.90346892658E+03 0.  0.
         23    2    4    4    0    0  0.24926001320E+03  0.65006403100E+03  0.22546924375E+04  0.23625238172E+04  0.11474755112E+03 0.  0.
         23    2    4    4    0    0  0.33016311356E+03 -0.26552747601E+03  0.15181331177E+04  0.15788044225E+04  0.91557192345E+02 0.  0.
          4    1    3    3  502    0 -0.19370819342E+03 -0.13194794312E+03 -0.12988846509E+03  0.26796294008E+03  0.00000000000E+00 0. -1.
         -3    1    3    3    0  502 -0.38571493334E+03 -0.25258861187E+03 -0.39363955742E+03  0.60624179814E+03  0.00000000000E+00 0.  1.
         11    1    5    5    0    0  0.24879349244E+03  0.64673974658E+03  0.21740499398E+04  0.22818114826E+04  0.00000000000E+00 0.  1.
        -11    1    5    5    0    0  0.46652076046E+00  0.33242844247E+01  0.80642497764E+02  0.80712334585E+02  0.00000000000E+00 0. -1.
          1    1    6    6  503    0  0.13024020459E+03 -0.11907895976E+03  0.79610789232E+03  0.81543245322E+03  0.00000000000E+00 0. -1.
         -1    1    6    6    0  503  0.19992290897E+03 -0.14644851625E+03  0.72202522536E+03  0.76337196929E+03  0.00000000000E+00 0.  1.
<mgrwt>
<rscale>  0 0.35540714E+04</rscale>
<asrwt>0</asrwt>
<pdfrwt beam="1">  1        2 0.62037157E+00 0.35540714E+04</pdfrwt>
<pdfrwt beam="2">  1       -1 0.12047965E+00 0.35540714E+04</pdfrwt>
<totfact> 0.18269957E-01</totfact>
</mgrwt>
</event>
<event>
11    6  0.1663299E-008  0.2730407E+04  0.7818608E-02  0.8325206E-01
          2   -1    0    0  501    0  0.00000000000E+00  0.00000000000E+00  0.21837643494E+04  0.21837643494E+04  0.00000000000E+00 0. -1.
         -1   -1    0    0    0  501 -0.00000000000E+00 -0.00000000000E+00 -0.85347148223E+03  0.85347148223E+03  0.00000000000E+00 0.  1.
         24    2    1    2    0    0  0.11412493712E+04 -0.59491843274E+02  0.10618678043E+04  0.15620013526E+04  0.79344722490E+02 0.  0.
        254    2    1    2    0    0 -0.11412493712E+04  0.59491843274E+02  0.26842506288E+03  0.14752344791E+04  0.89346256069E+03 0.  0.
         23    2    4    4    0    0 -0.49219809297E+03 -0.18442367610E+02  0.45462445547E+02  0.50333660401E+03  0.93176280961E+02 0.  0.
          4    1    3    3  502    0  0.10014932067E+04 -0.53000895324E+02  0.96550549095E+03  0.13921201784E+04  0.00000000000E+00 0. -1.
         -3    1    3    3    0  502  0.13975616444E+03 -0.64909479499E+01  0.96362313371E+02  0.16988117419E+03  0.00000000000E+00 0.  1.
         11    1    4    4    0    0 -0.68172960589E+03  0.26389149457E+03  0.80637233809E+02  0.73545655203E+03  0.00000000000E+00 0.  1.
        -11    1    4    4    0    0  0.32678327695E+02 -0.18595728368E+03  0.14232538353E+03  0.23644132307E+03  0.00000000000E+00 0. -1.
          2    1    5    5  503    0 -0.30353619965E+03  0.10197232228E+02  0.67880821333E+02  0.31120092215E+03  0.00000000000E+00 0. -1.
         -2    1    5    5    0  503 -0.18866189332E+03 -0.28639599838E+02 -0.22418375786E+02  0.19213568185E+03  0.00000000000E+00 0.  1.
<mgrwt>
<rscale>  0 0.27304070E+04</rscale>
<asrwt>0</asrwt>
<pdfrwt beam="1">  1        2 0.33596374E+00 0.27304070E+04</pdfrwt>
<pdfrwt beam="2">  1       -1 0.13130331E+00 0.27304070E+04</pdfrwt>
<totfact> 0.25951967E+00</totfact>
</mgrwt>
</event>
<event>
12    6  0.1663299E-008  0.2067916E+04  0.7818608E-02  0.8575510E-01
         -1   -1    0    0    0  501 -0.00000000000E+00  0.00000000000E+00  0.37184493356E+03  0.37184493356E+03  0.00000000000E+00 0.  1.
          2   -1    0    0  501    0  0.00000000000E+00 -0.00000000000E+00 -0.28750414888E+04  0.28750414888E+04  0.00000000000E+00 0. -1.
         24    2    1    2    0    0 -0.34435260415E+03 -0.70458877256E+03 -0.14706435474E+04  0.16688264804E+04  0.84648235338E+02 0.  0.
        254    2    1    2    0    0  0.34435260415E+03  0.70458877256E+03 -0.10325530079E+04  0.15780599420E+04  0.89949064034E+03 0.  0.
         23    2    4    4    0    0  0.58163376418E+03  0.42742847920E+03 -0.37547079027E+03  0.82090814301E+03  0.10917382670E+03 0.  0.
         23    2    4    4    0    0 -0.23728116003E+03  0.27716029336E+03 -0.65708221761E+03  0.75715179900E+03  0.91660399863E+02 0.  0.
          4    1    3    3  502    0 -0.30819913799E+03 -0.60720451977E+03 -0.12135786934E+04  0.13915664852E+04  0.00000000000E+00 0. -1.
         -3    1    3    3    0  502 -0.36153466164E+02 -0.97384252792E+02 -0.25706485397E+03  0.27725999523E+03  0.00000000000E+00 0.  1.
         11    1    5    5    0    0  0.25285243908E+03  0.13560741325E+03 -0.10952607329E+03  0.30711510417E+03  0.00000000000E+00 0. -1.
        -11    1    5    5    0    0  0.32878132510E+03  0.29182106595E+03 -0.26594471698E+03  0.51379303884E+03  0.00000000000E+00 0.  1.
          4    1    6    6  503    0 -0.82800772567E+02  0.16392354206E+03 -0.29399269330E+03  0.34663900429E+03  0.00000000000E+00 0. -1.
         -4    1    6    6    0  503 -0.15448038746E+03  0.11323675130E+03 -0.36308952431E+03  0.41051279471E+03  0.00000000000E+00 0.  1.
<mgrwt>
<rscale>  0 0.20679165E+04</rscale>
<asrwt>0</asrwt>
<pdfrwt beam="1">  1        2 0.44231408E+00 0.20679165E+04</pdfrwt>
<pdfrwt beam="2">  1       -1 0.57206912E-01 0.20679165E+04</pdfrwt>
<totfact> 0.67819475E+00</totfact>
</mgrwt>
</event>
<event>
12    6  0.1663299E-008  0.2125397E+04  0.7818608E-02  0.8550138E-01
          2   -1    0    0  501    0  0.00000000000E+00  0.00000000000E+00  0.26912274861E+04  0.26912274861E+04  0.00000000000E+00 0. -1.
         -1   -1    0    0    0  501 -0.00000000000E+00 -0.00000000000E+00 -0.41963300645E+03  0.41963300645E+03  0.00000000000E+00 0.  1.
         24    2    1    2    0    0 -0.24058185661E+03 -0.79290478009E+03  0.53542696076E+03  0.98952909666E+03  0.76864704618E+02 0.  0.
        254    2    1    2    0    0  0.24058185661E+03  0.79290478009E+03  0.17361675189E+04  0.21213313959E+04  0.89397517722E+03 0.  0.
         23    2    4    4    0    0  0.38703254090E+03  0.10370738587E+03  0.28276042852E+03  0.50341264043E+03  0.11367241095E+03 0.  0.
         23    2    4    4    0    0 -0.14645068429E+03  0.68919739422E+03  0.14534070903E+04  0.16179187554E+04  0.93957851132E+02 0.  0.
          2    1    3    3  502    0 -0.12368831613E+01 -0.39137076875E+02  0.11276341664E+02  0.40747963723E+02  0.00000000000E+00 0. -1.
         -1    1    3    3    0  502 -0.23934497345E+03 -0.75376770321E+03  0.52415061910E+03  0.94878113294E+03  0.00000000000E+00 0.  1.
         11    1    5    5    0    0  0.23642549136E+03  0.45960976116E+02  0.23174717764E+03  0.33423970236E+03  0.00000000000E+00 0. -1.
        -11    1    5    5    0    0  0.15060704954E+03  0.57746409755E+02  0.51013250884E+02  0.16917293808E+03  0.00000000000E+00 0.  1.
          1    1    6    6  503    0 -0.11054613932E+03  0.55220490363E+03  0.10692552248E+04  0.12084938727E+04  0.00000000000E+00 0. -1.
         -1    1    6    6    0  503 -0.35904544970E+02  0.13699249059E+03  0.38415186552E+03  0.40942488274E+03  0.00000000000E+00 0.  1.
<mgrwt>
<rscale>  0 0.21253968E+04</rscale>
<asrwt>0</asrwt>
<pdfrwt beam="1">  1        2 0.41403499E+00 0.21253968E+04</pdfrwt>
<pdfrwt beam="2">  1       -1 0.64558926E-01 0.21253968E+04</pdfrwt>
<totfact> 0.68479848E+00</totfact>
</mgrwt>
</event>
<event>
11    6  0.1663299E-008  0.3312205E+04  0.7818608E-02  0.8159797E-01
         -1   -1    0    0    0  501 -0.00000000000E+00  0.00000000000E+00  0.10591695799E+04  0.10591695799E+04  0.00000000000E+00 0.  1.
          2   -1    0    0  501    0  0.00000000000E+00 -0.00000000000E+00 -0.25894588055E+04  0.25894588055E+04  0.00000000000E+00 0. -1.
         24    2    1    2    0    0 -0.61657197562E+03 -0.30836208772E+03  0.79826865645E+03  0.10580359443E+04  0.83420820193E+02 0.  0.
        254    2    1    2    0    0  0.61657197562E+03  0.30836208772E+03 -0.23285578820E+04  0.25905924411E+04  0.90207494594E+03 0.  0.
         23    2    4    4    0    0  0.49956786645E+03 -0.13762094565E+03 -0.72445145488E+03  0.89507444995E+03  0.88435188703E+02 0.  0.
          2    1    3    3  502    0 -0.97108233880E+02 -0.34808880089E+02  0.16413216483E+03  0.19385828523E+03  0.00000000000E+00 0. -1.
         -1    1    3    3    0  502 -0.51946374174E+03 -0.27355320764E+03  0.63413649163E+03  0.86417765905E+03  0.00000000000E+00 0.  1.
         11    1    4    4    0    0  0.11741700153E+03  0.32721143506E+02 -0.22591788512E+03  0.25670277813E+03  0.00000000000E+00 0. -1.
        -11    1    4    4    0    0 -0.41289236567E+00  0.41326188987E+03 -0.13781885420E+04  0.14388152131E+04  0.00000000000E+00 0.  1.
          3    1    5    5  503    0  0.40755686859E+02  0.12583368018E+02 -0.66518346602E+02  0.79019349508E+02  0.00000000000E+00 0. -1.
         -3    1    5    5    0  503  0.45881217959E+03 -0.15020431367E+03 -0.65793310828E+03  0.81605510044E+03  0.00000000000E+00 0.  1.
<mgrwt>
<rscale>  0 0.33122053E+04</rscale>
<asrwt>0</asrwt>
<pdfrwt beam="1">  1        2 0.39837827E+00 0.33122053E+04</pdfrwt>
<pdfrwt beam="2">  1       -1 0.16294917E+00 0.33122053E+04</pdfrwt>
<totfact> 0.81234126E-01</totfact>
</mgrwt>
</event>
<event>
12    6  0.1663299E-008  0.1421848E+04  0.7818608E-02  0.8938154E-01
          2   -1    0    0  501    0  0.00000000000E+00  0.00000000000E+00  0.29710784192E+04  0.29710784192E+04  0.00000000000E+00 0. -1.
         -1   -1    0    0    0  501 -0.00000000000E+00 -0.00000000000E+00 -0.17011095961E+03  0.17011095961E+03  0.00000000000E+00 0.  1.
         24    2    1    2    0    0 -0.86663279567E+02 -0.24635198539E+03  0.16069352875E+04  0.16300098572E+04  0.80568552819E+02 0.  0.
        254    2    1    2    0    0  0.86663279567E+02  0.24635198539E+03  0.11940321722E+04  0.15111795217E+04  0.88867929750E+03 0.  0.
         23    2    4    4    0    0  0.29041261540E+03 -0.13279236301E+03  0.94842685812E+03  0.10072441174E+04  0.11425369990E+03 0.  0.
         23    2    4    4    0    0 -0.20374933583E+03  0.37914434839E+03  0.24560531404E+03  0.50393540428E+03  0.91458693597E+02 0.  0.
          2    1    3    3  502    0 -0.48060411202E+02 -0.21833050320E+03  0.12405653021E+04  0.12605476114E+04  0.00000000000E+00 0. -1.
         -1    1    3    3    0  502 -0.38602868365E+02 -0.28021482183E+02  0.36636998537E+03  0.36946224582E+03  0.00000000000E+00 0.  1.
         11    1    5    5    0    0  0.94505601286E+02  0.12083795010E+02  0.28336564512E+03  0.29895386870E+03  0.00000000000E+00 0. -1.
        -11    1    5    5    0    0  0.19590701411E+03 -0.14487615802E+03  0.66506121300E+03  0.70829024868E+03  0.00000000000E+00 0.  1.
          3    1    6    6  503    0 -0.17728943147E+03  0.24689511132E+03  0.18708184353E+03  0.35691505248E+03  0.00000000000E+00 0. -1.
         -3    1    6    6    0  503 -0.26459904362E+02  0.13224923707E+03  0.58523470512E+02  0.14702035181E+03  0.00000000000E+00 0.  1.
<mgrwt>
<rscale>  0 0.14218481E+04</rscale>
<asrwt>0</asrwt>
<pdfrwt beam="1">  1        2 0.45708895E+00 0.14218481E+04</pdfrwt>
<pdfrwt beam="2">  1       -1 0.26170919E-01 0.14218481E+04</pdfrwt>
<totfact> 0.26223191E+01</totfact>
</mgrwt>
</event>
<event>
12    6  0.1663299E-008  0.2048040E+04  0.7818608E-02  0.8584484E-01
          2   -1    0    0  501    0  0.00000000000E+00  0.00000000000E+00  0.16789069945E+04  0.16789069945E+04  0.00000000000E+00 0. -1.
         -1   -1    0    0    0  501 -0.00000000000E+00 -0.00000000000E+00 -0.62458326258E+03  0.62458326258E+03  0.00000000000E+00 0.  1.
         24    2    1    2    0    0 -0.43760010395E+03 -0.49908722432E+03  0.95434734127E+03  0.11652579621E+04  0.80407474748E+02 0.  0.
        254    2    1    2    0    0  0.43760010395E+03  0.49908722432E+03  0.99976390627E+02  0.11382322950E+04  0.91923640602E+03 0.  0.
         23    2    4    4    0    0  0.49258729132E+03 -0.86873980090E+01  0.29067634380E+03  0.58527286659E+03  0.12383004915E+03 0.  0.
         23    2    4    4    0    0 -0.54987187363E+02  0.50777462232E+03 -0.19069995318E+03  0.55295942837E+03  0.92406706635E+02 0.  0.
          2    1    3    3  502    0 -0.25792628633E+03 -0.31595422365E+03  0.52099255825E+03  0.66165420453E+03  0.00000000000E+00 0. -1.
         -3    1    3    3    0  502 -0.17967381762E+03 -0.18313300067E+03  0.43335478302E+03  0.50360375757E+03  0.00000000000E+00 0.  1.
         11    1    5    5    0    0  0.44553372327E+03 -0.36901006427E+01  0.29988000299E+03  0.53706790223E+03  0.00000000000E+00 0.  1.
        -11    1    5    5    0    0  0.47053568050E+02 -0.49972973663E+01 -0.92036591828E+01  0.48204964366E+02  0.00000000000E+00 0. -1.
          4    1    6    6  503    0 -0.47717589064E+02  0.50358832171E+03 -0.19659747806E+03  0.54270501605E+03  0.00000000000E+00 0.  1.
         -4    1    6    6    0  503 -0.72695982991E+01  0.41863006124E+01  0.58975248808E+01  0.10254412317E+02  0.00000000000E+00 0. -1.
<mgrwt>
<rscale>  0 0.20480402E+04</rscale>
<asrwt>0</asrwt>
<pdfrwt beam="1">  1        2 0.25829338E+00 0.20480402E+04</pdfrwt>
<pdfrwt beam="2">  1       -1 0.96089733E-01 0.20480402E+04</pdfrwt>
<totfact> 0.11083004E+01</totfact>
</mgrwt>
</event>
<event>
12    6  0.1663299E-008  0.2153120E+04  0.7818608E-02  0.8538198E-01
          2   -1    0    0  501    0  0.00000000000E+00  0.00000000000E+00  0.28613060200E+04  0.28613060200E+04  0.00000000000E+00 0. -1.
         -1   -1    0    0    0  501 -0.00000000000E+00 -0.00000000000E+00 -0.40505322396E+03  0.40505322396E+03  0.00000000000E+00 0.  1.
         24    2    1    2    0    0  0.26252854764E+03 -0.83032197518E+03  0.96167703480E+03  0.12997133454E+04  0.77950242070E+02 0.  0.
        254    2    1    2    0    0 -0.26252854764E+03  0.83032197518E+03  0.14945757612E+04  0.19666458985E+04  0.93572622241E+03 0.  0.
         23    2    4    4    0    0 -0.34266441245E+03  0.45370528942E+02  0.91378708896E+03  0.98268578105E+03  0.10576916315E+03 0.  0.
         23    2    4    4    0    0  0.80135864802E+02  0.78495144624E+03  0.58078867229E+03  0.98396011748E+03  0.91057680381E+02 0.  0.
          4    1    3    3  502    0  0.11211110699E+03 -0.29594523228E+03  0.30083416424E+03  0.43663906742E+03  0.00000000000E+00 0. -1.
         -3    1    3    3    0  502  0.15041744066E+03 -0.53437674290E+03  0.66084287055E+03  0.86307427801E+03  0.00000000000E+00 0.  1.
         11    1    5    5    0    0  0.72058007589E+01 -0.88588143795E+00  0.93837345880E+01  0.11864351028E+02  0.00000000000E+00 0. -1.
        -11    1    5    5    0    0 -0.34987021321E+03  0.46256410380E+02  0.90440335437E+03  0.97082143002E+03  0.00000000000E+00 0.  1.
          3    1    6    6  503    0  0.21601254175E+02  0.10369995661E+03  0.44148859176E+02  0.11475808011E+03  0.00000000000E+00 0. -1.
         -3    1    6    6    0  503  0.58534610627E+02  0.68125148963E+03  0.53663981311E+03  0.86920203738E+03  0.00000000000E+00 0.  1.
<mgrwt>
<rscale>  0 0.21531198E+04</rscale>
<asrwt>0</asrwt>
<pdfrwt beam="1">  1        2 0.44020091E+00 0.21531198E+04</pdfrwt>
<pdfrwt beam="2">  1       -1 0.62315882E-01 0.21531198E+04</pdfrwt>
<totfact> 0.57932273E+00</totfact>
</mgrwt>
</event>
<event>
12    6  0.1663299E-008  0.3899338E+04  0.7818608E-02  0.8025167E-01
         -1   -1    0    0    0  501 -0.00000000000E+00  0.00000000000E+00  0.21790884047E+04  0.21790884047E+04  0.00000000000E+00 0.  1.
          2   -1    0    0  501    0  0.00000000000E+00 -0.00000000000E+00 -0.17444033844E+04  0.17444033844E+04  0.00000000000E+00 0. -1.
         24    2    1    2    0    0  0.96240227012E+02 -0.36058008454E+03  0.20234783084E+04  0.20590595658E+04  0.77341141147E+02 0.  0.
        254    2    1    2    0    0 -0.96240227012E+02  0.36058008454E+03 -0.15887932882E+04  0.18644322233E+04  0.90142288846E+03 0.  0.
         23    2    4    4    0    0 -0.10792843990E+03  0.53413414690E+03 -0.46903757867E+03  0.72767457882E+03  0.11209909649E+03 0.  0.
         23    2    4    4    0    0  0.11688212892E+02 -0.17355406236E+03 -0.11197557095E+04  0.11367576444E+04  0.90041469761E+02 0.  0.
          2    1    3    3  502    0  0.84611273373E+02 -0.25311312874E+03  0.12588851004E+04  0.12868632482E+04  0.00000000000E+00 0. -1.
         -1    1    3    3    0  502  0.11628953639E+02 -0.10746695580E+03  0.76459320807E+03  0.77219631764E+03  0.00000000000E+00 0.  1.
         11    1    5    5    0    0  0.18697071813E+01  0.26927441127E+03 -0.23993265098E+03  0.36066588607E+03  0.00000000000E+00 0.  1.
        -11    1    5    5    0    0 -0.10979814709E+03  0.26485973563E+03 -0.22910492769E+03  0.36700869275E+03  0.00000000000E+00 0. -1.
          2    1    6    6  503    0 -0.19134347114E+02 -0.10152746665E+03 -0.41526254723E+03  0.42792164336E+03  0.00000000000E+00 0.  1.
         -2    1    6    6    0  503  0.30822560006E+02 -0.72026595714E+02 -0.70449316230E+03  0.70883600108E+03  0.00000000000E+00 0. -1.
<mgrwt>
<rscale>  0 0.38993380E+04</rscale>
<asrwt>0</asrwt>
<pdfrwt beam="1">  1        2 0.26836975E+00 0.38993380E+04</pdfrwt>
<pdfrwt beam="2">  1       -1 0.33524437E+00 0.38993380E+04</pdfrwt>
<totfact> 0.16305813E-01</totfact>
</mgrwt>
</event>
<event>
12    6  0.1663299E-008  0.3589763E+04  0.7818608E-02  0.8092841E-01
          2   -1    0    0  501    0  0.00000000000E+00  0.00000000000E+00  0.21431320754E+04  0.21431320754E+04  0.00000000000E+00 0. -1.
         -1   -1    0    0    0  501 -0.00000000000E+00 -0.00000000000E+00 -0.15032205953E+04  0.15032205953E+04  0.00000000000E+00 0.  1.
         24    2    1    2    0    0 -0.16712075678E+04 -0.13017594340E+03  0.42873894981E+03  0.17321937720E+04  0.82447956512E+02 0.  0.
        254    2    1    2    0    0  0.16712075678E+04  0.13017594340E+03  0.21117253027E+03  0.19141588987E+04  0.89973881808E+03 0.  0.
         23    2    4    4    0    0  0.25496843187E+02  0.47105844297E+02  0.22580747098E+03  0.26379836168E+03  0.12542532479E+03 0.  0.
         23    2    4    4    0    0  0.16457107247E+04  0.83070099107E+02 -0.14634940704E+02  0.16503605370E+04  0.90616168142E+02 0.  0.
          2    1    3    3  502    0 -0.82259685810E+03 -0.41459287879E+02  0.24620439029E+03  0.85965171163E+03  0.00000000000E+00 0. -1.
         -1    1    3    3    0  502 -0.84861070974E+03 -0.88716655525E+02  0.18253455953E+03  0.87254206035E+03  0.00000000000E+00 0.  1.
         11    1    5    5    0    0  0.37419551219E+01 -0.39908398194E+02  0.11160535675E+03  0.11858515139E+03  0.00000000000E+00 0. -1.
        -11    1    5    5    0    0  0.21754888065E+02  0.87014242491E+02  0.11420211422E+03  0.14521321030E+03  0.00000000000E+00 0.  1.
          1    1    6    6  503    0  0.29598647905E+03  0.28298506374E+02  0.29565626536E+02  0.29880248914E+03  0.00000000000E+00 0. -1.
         -1    1    6    6    0  503  0.13497242456E+04  0.54771592732E+02 -0.44200567240E+02  0.13515580478E+04  0.00000000000E+00 0.  1.
<mgrwt>
<rscale>  0 0.35897634E+04</rscale>
<asrwt>0</asrwt>
<pdfrwt beam="1">  1        2 0.32971263E+00 0.35897634E+04</pdfrwt>
<pdfrwt beam="2">  1       -1 0.23126471E+00 0.35897634E+04</pdfrwt>
<totfact> 0.47735972E-01</totfact>
</mgrwt>
</event>
<event>
12    6  0.1663299E-008  0.1839109E+04  0.7818608E-02  0.8685774E-01
         -1   -1    0    0    0  501 -0.00000000000E+00  0.00000000000E+00  0.88450969669E+03  0.88450969669E+03  0.00000000000E+00 0.  1.
          2   -1    0    0  501    0  0.00000000000E+00 -0.00000000000E+00 -0.95598782713E+03  0.95598782713E+03  0.00000000000E+00 0. -1.
         24    2    1    2    0    0  0.65589601200E+03 -0.13461354765E+03 -0.23070682733E+03  0.71195574932E+03  0.73040831381E+02 0.  0.
        254    2    1    2    0    0 -0.65589601200E+03  0.13461354765E+03  0.15922869689E+03  0.11285417745E+04  0.89438938563E+03 0.  0.
         23    2    4    4    0    0 -0.22535177192E+03  0.48409824845E+03  0.14553570173E+03  0.56716888919E+03  0.12395714230E+03 0.  0.
         23    2    4    4    0    0 -0.43054424008E+03 -0.34948470080E+03  0.13692995162E+02  0.56137288532E+03  0.86279310958E+02 0.  0.
          4    1    3    3  502    0  0.63655922959E+03 -0.13413872227E+03 -0.23579709284E+03  0.69195456395E+03  0.00000000000E+00 0. -1.
         -3    1    3    3    0  502  0.19336782409E+02 -0.47482538614E+00  0.50902655113E+01  0.20001185367E+02  0.00000000000E+00 0.  1.
         11    1    5    5    0    0 -0.18603268587E+03  0.25454076466E+03  0.82959868726E+02  0.32600843686E+03  0.00000000000E+00 0. -1.
        -11    1    5    5    0    0 -0.39319086053E+02  0.22955748379E+03  0.62575833001E+02  0.24116045233E+03  0.00000000000E+00 0.  1.
          1    1    6    6  503    0 -0.10752307140E+03 -0.60770160763E+02  0.32534421921E+02  0.12772122742E+03  0.00000000000E+00 0. -1.
         -1    1    6    6    0  503 -0.32302116867E+03 -0.28871454003E+03 -0.18841426759E+02  0.43365165790E+03  0.00000000000E+00 0.  1.
<mgrwt>
<rscale>  0 0.18391090E+04</rscale>
<asrwt>0</asrwt>
<pdfrwt beam="1">  1        2 0.14707505E+00 0.18391090E+04</pdfrwt>
<pdfrwt beam="2">  1       -1 0.13607841E+00 0.18391090E+04</pdfrwt>
<totfact> 0.13039645E+01</totfact>
</mgrwt>
</event>
<event>
12    6  0.1663299E-008  0.1550869E+04  0.7818608E-02  0.8851313E-01
          2   -1    0    0  501    0  0.00000000000E+00  0.00000000000E+00  0.15251109306E+04  0.15251109306E+04  0.00000000000E+00 0. -1.
         -1   -1    0    0    0  501 -0.00000000000E+00 -0.00000000000E+00 -0.39426537164E+03  0.39426537164E+03  0.00000000000E+00 0.  1.
         24    2    1    2    0    0 -0.40023194776E+03  0.29100863896E+03  0.53994079532E+03  0.73668431840E+03  0.79347857980E+02 0.  0.
        254    2    1    2    0    0  0.40023194776E+03 -0.29100863896E+03  0.59090476360E+03  0.11826919838E+04  0.89706200954E+03 0.  0.
         23    2    4    4    0    0  0.57609049315E+03 -0.37705295558E+03  0.65893779132E+03  0.95602924575E+03  0.75787322688E+02 0.  0.
         23    2    4    4    0    0 -0.17585854539E+03  0.86044316625E+02 -0.68033027722E+02  0.22666273806E+03  0.91747760487E+02 0.  0.
          4    1    3    3  502    0 -0.37858483673E+03  0.29043756549E+03  0.52905922775E+03  0.71244938383E+03  0.00000000000E+00 0. -1.
         -3    1    3    3    0  502 -0.21647111029E+02  0.57107346846E+00  0.10881567572E+02  0.24234934570E+02  0.00000000000E+00 0.  1.
         11    1    5    5    0    0  0.22141630308E+03 -0.17344906201E+03  0.22949484085E+03  0.36301189837E+03  0.00000000000E+00 0.  1.
        -11    1    5    5    0    0  0.35467419006E+03 -0.20360389358E+03  0.42944295047E+03  0.59301734737E+03  0.00000000000E+00 0. -1.
          4    1    6    6  503    0 -0.75672028314E+02  0.53275262614E+02 -0.77663289379E+02  0.12081430376E+03  0.00000000000E+00 0. -1.
         -4    1    6    6    0  503 -0.10018651707E+03  0.32769054011E+02  0.96302616576E+01  0.10584843430E+03  0.00000000000E+00 0.  1.
<mgrwt>
<rscale>  0 0.15508687E+04</rscale>
<asrwt>0</asrwt>
<pdfrwt beam="1">  1        2 0.23463245E+00 0.15508687E+04</pdfrwt>
<pdfrwt beam="2">  1       -1 0.60656212E-01 0.15508687E+04</pdfrwt>
<totfact> 0.37139780E+01</totfact>
</mgrwt>
</event>
<event>
11    6  0.1663299E-008  0.1126801E+04  0.7818608E-02  0.9179457E-01
          2   -1    0    0  501    0  0.00000000000E+00  0.00000000000E+00  0.30819173337E+04  0.30819173337E+04  0.00000000000E+00 0. -1.
         -1   -1    0    0    0  501 -0.00000000000E+00 -0.00000000000E+00 -0.10299430639E+03  0.10299430639E+03  0.00000000000E+00 0.  1.
         24    2    1    2    0    0  0.17545680514E+03 -0.82179616837E+02  0.29370760277E+03  0.36074203588E+03  0.79574371710E+02 0.  0.
        254    2    1    2    0    0 -0.17545680514E+03  0.82179616837E+02  0.26852154245E+04  0.28241696042E+04  0.85323706981E+03 0.  0.
         23    2    4    4    0    0 -0.26835166056E+03  0.13944905835E+03  0.79748389484E+03  0.85771247839E+03  0.90727501039E+02 0.  0.
          4    1    3    3  502    0 -0.67242744612E+01  0.24159145143E+01  0.39279350379E+01  0.81535994280E+01  0.00000000000E+00 0. -1.
         -3    1    3    3    0  502  0.18218107960E+03 -0.84595531351E+02  0.28977966773E+03  0.35258843645E+03  0.00000000000E+00 0.  1.
         11    1    4    4    0    0 -0.78791044332E+01 -0.32220258563E+02  0.18582040558E+04  0.18585000776E+04  0.00000000000E+00 0.  1.
        -11    1    4    4    0    0  0.10077395985E+03 -0.25049182953E+02  0.29527473882E+02  0.10795704824E+03  0.00000000000E+00 0. -1.
          2    1    5    5  503    0 -0.17554228632E+02  0.57197577380E+01  0.14287474812E+03  0.14406269545E+03  0.00000000000E+00 0. -1.
         -2    1    5    5    0  503 -0.25079743193E+03  0.13372930062E+03  0.65460914673E+03  0.71364978293E+03  0.00000000000E+00 0.  1.
<mgrwt>
<rscale>  0 0.11268007E+04</rscale>
<asrwt>0</asrwt>
<pdfrwt beam="1">  1        2 0.47414106E+00 0.11268007E+04</pdfrwt>
<pdfrwt beam="2">  1       -1 0.15845280E-01 0.11268007E+04</pdfrwt>
<totfact> 0.53519003E+01</totfact>
</mgrwt>
</event>
<event>
12    6  0.1663299E-008  0.2026225E+04  0.7818608E-02  0.8594457E-01
         -1   -1    0    0    0  501 -0.00000000000E+00  0.00000000000E+00  0.75302654792E+03  0.75302654792E+03  0.00000000000E+00 0.  1.
          2   -1    0    0  501    0  0.00000000000E+00 -0.00000000000E+00 -0.13630285145E+04  0.13630285145E+04  0.00000000000E+00 0. -1.
         24    2    1    2    0    0 -0.14441704644E+03 -0.61899839391E+03 -0.77033316831E+03  0.10020678252E+04  0.81923385193E+02 0.  0.
        254    2    1    2    0    0  0.14441704644E+03  0.61899839391E+03  0.16033120168E+03  0.11139872373E+04  0.90069205374E+03 0.  0.
         23    2    4    4    0    0  0.22279471980E+03  0.71531030230E+03  0.37845840982E+03  0.84577842429E+03  0.10394257682E+03 0.  0.
         23    2    4    4    0    0 -0.78377673362E+02 -0.96311908391E+02 -0.21812720813E+03  0.26820881302E+03  0.94538061514E+02 0.  0.
          4    1    3    3  502    0 -0.15478854353E+03 -0.56155248882E+03 -0.69856377740E+03  0.90955595870E+03  0.00000000000E+00 0. -1.
         -3    1    3    3    0  502  0.10371497085E+02 -0.57445905090E+02 -0.71769390912E+02  0.92511866456E+02  0.00000000000E+00 0.  1.
         11    1    5    5    0    0  0.16203942585E+03  0.61702507860E+03  0.34610972851E+03  0.72578830751E+03  0.00000000000E+00 0. -1.
        -11    1    5    5    0    0  0.60755293952E+02  0.98285223702E+02  0.32348681308E+02  0.11999011677E+03  0.00000000000E+00 0.  1.
          4    1    6    6  503    0  0.21855870550E+01 -0.70036342946E+02 -0.11579456114E+03  0.13534491684E+03  0.00000000000E+00 0. -1.
         -4    1    6    6    0  503 -0.80563260417E+02 -0.26275565444E+02 -0.10233264699E+03  0.13286389618E+03  0.00000000000E+00 0.  1.
<mgrwt>
<rscale>  0 0.20262247E+04</rscale>
<asrwt>0</asrwt>
<pdfrwt beam="1">  1        2 0.20969669E+00 0.20262247E+04</pdfrwt>
<pdfrwt beam="2">  1       -1 0.11585024E+00 0.20262247E+04</pdfrwt>
<totfact> 0.10828347E+01</totfact>
</mgrwt>
</event>
<event>
11    6  0.1663299E-008  0.1645801E+04  0.7818608E-02  0.8792894E-01
         -1   -1    0    0    0  501 -0.00000000000E+00  0.00000000000E+00  0.17689662378E+04  0.17689662378E+04  0.00000000000E+00 0.  1.
          2   -1    0    0  501    0  0.00000000000E+00 -0.00000000000E+00 -0.38280300740E+03  0.38280300740E+03  0.00000000000E+00 0. -1.
         24    2    1    2    0    0 -0.42766840634E+03 -0.39102706100E+03  0.50164973730E+03  0.77130072848E+03  0.86312957349E+02 0.  0.
        254    2    1    2    0    0  0.42766840634E+03  0.39102706100E+03  0.88451349309E+03  0.13804685167E+04  0.88742705500E+03 0.  0.
         23    2    4    4    0    0  0.30340577628E+03 -0.11643556485E+03  0.20216654914E+02  0.33964036941E+03  0.96615534749E+02 0.  0.
          2    1    3    3  502    0 -0.40112045115E+03 -0.34149424949E+03  0.42855360007E+03  0.67909802451E+03  0.00000000000E+00 0. -1.
         -1    1    3    3    0  502 -0.26547955189E+02 -0.49532811504E+02  0.73096137232E+02  0.92202703965E+02  0.00000000000E+00 0.  1.
         11    1    4    4    0    0 -0.27909176142E+02  0.28571678057E+03  0.29728318413E+03  0.41326782161E+03  0.00000000000E+00 0. -1.
        -11    1    4    4    0    0  0.15217180620E+03  0.22174584528E+03  0.56701365405E+03  0.62756032569E+03  0.00000000000E+00 0.  1.
          4    1    5    5  503    0  0.20300520402E+03 -0.68454416557E+02  0.58300628699E+02  0.22202721300E+03  0.00000000000E+00 0. -1.
         -4    1    5    5    0  503  0.10040057226E+03 -0.47981148293E+02 -0.38083973785E+02  0.11761315641E+03  0.00000000000E+00 0.  1.
<mgrwt>
<rscale>  0 0.16458014E+04</rscale>
<asrwt>0</asrwt>
<pdfrwt beam="1">  1        2 0.58892771E-01 0.16458014E+04</pdfrwt>
<pdfrwt beam="2">  1       -1 0.27214865E+00 0.16458014E+04</pdfrwt>
<totfact> 0.45741204E+00</totfact>
</mgrwt>
</event>
<event>
12    6  0.1663299E-008  0.3774590E+04  0.7818608E-02  0.8051630E-01
         -1   -1    0    0    0  501 -0.00000000000E+00  0.00000000000E+00  0.10713228750E+04  0.10713228750E+04  0.00000000000E+00 0.  1.
          2   -1    0    0  501    0  0.00000000000E+00 -0.00000000000E+00 -0.33247511431E+04  0.33247511431E+04  0.00000000000E+00 0. -1.
         24    2    1    2    0    0 -0.17770583172E+02  0.15905947624E+04 -0.19988038388E+04  0.25557563428E+04  0.79788507389E+02 0.  0.
        254    2    1    2    0    0  0.17770583172E+02 -0.15905947624E+04 -0.25462442933E+03  0.18403176753E+04  0.88973482236E+03 0.  0.
         23    2    4    4    0    0 -0.73081682903E+02 -0.31837293521E+03  0.28994744575E+03  0.45052833244E+03  0.11047171034E+03 0.  0.
         23    2    4    4    0    0  0.90852266076E+02 -0.12722218272E+04 -0.54457187509E+03  0.13897893429E+04  0.90296060162E+02 0.  0.
          4    1    3    3  502    0  0.30022385580E+02  0.45475628740E+03 -0.58525346150E+03  0.74177236318E+03  0.00000000000E+00 0. -1.
         -3    1    3    3    0  502 -0.47792968753E+02  0.11358384750E+04 -0.14135503773E+04  0.18139839796E+04  0.00000000000E+00 0.  1.
         11    1    5    5    0    0  0.20174315636E+02 -0.10089065444E+03  0.12589591329E+03  0.16259061519E+03  0.00000000000E+00 0.  1.
        -11    1    5    5    0    0 -0.93255998540E+02 -0.21748228077E+03  0.16405153246E+03  0.28793771725E+03  0.00000000000E+00 0. -1.
          2    1    6    6  503    0  0.53380311052E+02 -0.11115250839E+04 -0.49088844208E+03  0.12162684458E+04  0.00000000000E+00 0. -1.
         -2    1    6    6    0  503  0.37471955024E+02 -0.16069674332E+03 -0.53683433002E+02  0.17352089703E+03  0.00000000000E+00 0.  1.
<mgrwt>
<rscale>  0 0.37745898E+04</rscale>
<asrwt>0</asrwt>
<pdfrwt beam="1">  1        2 0.51150017E+00 0.37745898E+04</pdfrwt>
<pdfrwt beam="2">  1       -1 0.16481891E+00 0.37745898E+04</pdfrwt>
<totfact> 0.26252245E-01</totfact>
</mgrwt>
</event>
<event>
12    6  0.1663299E-008  0.2246654E+04  0.7818608E-02  0.8499257E-01
         -1   -1    0    0    0  501 -0.00000000000E+00  0.00000000000E+00  0.44997481294E+03  0.44997481294E+03  0.00000000000E+00 0.  1.
          2   -1    0    0  501    0  0.00000000000E+00 -0.00000000000E+00 -0.28042977353E+04  0.28042977353E+04  0.00000000000E+00 0. -1.
         24    2    1    2    0    0  0.28367520610E+02 -0.89863686297E+03 -0.60060731405E+03  0.10844085046E+04  0.82823496325E+02 0.  0.
        254    2    1    2    0    0 -0.28367520610E+02  0.89863686297E+03 -0.17537156083E+04  0.21698640436E+04  0.90798601595E+03 0.  0.
         23    2    4    4    0    0  0.18714140941E+03 -0.91111057673E+02 -0.20758644911E+03  0.31908224957E+03  0.12408954908E+03 0.  0.
         23    2    4    4    0    0 -0.21550893002E+03  0.98974792064E+03 -0.15461291592E+04  0.18507817941E+04  0.93983119911E+02 0.  0.
          4    1    3    3  502    0  0.66711366779E+01 -0.39665872248E+03 -0.21638914045E+03  0.45189258269E+03  0.00000000000E+00 0. -1.
         -3    1    3    3    0  502  0.21696383932E+02 -0.50197814048E+03 -0.38421817359E+03  0.63251592195E+03  0.00000000000E+00 0.  1.
         11    1    5    5    0    0 -0.77476785200E+00  0.10347200480E+02 -0.56597535798E+02  0.57540819262E+02  0.00000000000E+00 0. -1.
        -11    1    5    5    0    0  0.18791617727E+03 -0.10145825815E+03 -0.15098891331E+03  0.26154143031E+03  0.00000000000E+00 0.  1.
          3    1    6    6  503    0 -0.33348983914E+02  0.11345330885E+03 -0.23809467979E+03  0.26584372206E+03  0.00000000000E+00 0. -1.
         -3    1    6    6    0  503 -0.18215994611E+03  0.87629461179E+03 -0.13080344794E+04  0.15849380720E+04  0.00000000000E+00 0.  1.
<mgrwt>
<rscale>  0 0.22466538E+04</rscale>
<asrwt>0</asrwt>
<pdfrwt beam="1">  1        2 0.43143042E+00 0.22466538E+04</pdfrwt>
<pdfrwt beam="2">  1       -1 0.69226894E-01 0.22466538E+04</pdfrwt>
<totfact> 0.50294240E+00</totfact>
</mgrwt>
</event>
<event>
12    6  0.1663299E-008  0.1516712E+04  0.7818608E-02  0.8873415E-01
          2   -1    0    0  501    0  0.00000000000E+00  0.00000000000E+00  0.21913167834E+04  0.21913167834E+04  0.00000000000E+00 0. -1.
         -1   -1    0    0    0  501 -0.00000000000E+00 -0.00000000000E+00 -0.26244680903E+03  0.26244680903E+03  0.00000000000E+00 0.  1.
         24    2    1    2    0    0 -0.37354557930E+03 -0.36681919745E+02  0.13078330168E+03  0.40548057350E+03  0.80177056813E+02 0.  0.
        254    2    1    2    0    0  0.37354557930E+03  0.36681919745E+02  0.17980866727E+04  0.20482830189E+04  0.90634749410E+03 0.  0.
         23    2    4    4    0    0 -0.29659666726E+02 -0.23923184091E+03  0.13676845129E+04  0.13908238178E+04  0.75620076170E+02 0.  0.
         23    2    4    4    0    0  0.40320524602E+03  0.27591376065E+03  0.43040215979E+03  0.65745920108E+03  0.91124684918E+02 0.  0.
          2    1    3    3  502    0 -0.12369924926E+02  0.14227130494E+02  0.94088867836E+01  0.21070202545E+02  0.00000000000E+00 0. -1.
         -1    1    3    3    0  502 -0.36117565437E+03 -0.50909050239E+02  0.12137441489E+03  0.38441037095E+03  0.00000000000E+00 0.  1.
         11    1    5    5    0    0 -0.65200891355E+01 -0.21532950875E+03  0.12540632337E+04  0.12724322783E+04  0.00000000000E+00 0.  1.
        -11    1    5    5    0    0 -0.23139577590E+02 -0.23902332152E+02  0.11362127919E+03  0.11839153947E+03  0.00000000000E+00 0. -1.
          4    1    6    6  503    0  0.14348667368E+03  0.11967004354E+03  0.21927125349E+03  0.28807850918E+03  0.00000000000E+00 0. -1.
         -4    1    6    6    0  503  0.25971857234E+03  0.15624371711E+03  0.21113090630E+03  0.36938069190E+03  0.00000000000E+00 0.  1.
<mgrwt>
<rscale>  0 0.15167124E+04</rscale>
<asrwt>0</asrwt>
<pdfrwt beam="1">  1        2 0.33712565E+00 0.15167124E+04</pdfrwt>
<pdfrwt beam="2">  1       -1 0.40376434E-01 0.15167124E+04</pdfrwt>
<totfact> 0.34398182E+01</totfact>
</mgrwt>
</event>
<event>
12    6  0.1663299E-008  0.1650225E+04  0.7818608E-02  0.8790273E-01
          2   -1    0    0  501    0  0.00000000000E+00  0.00000000000E+00  0.78535410577E+03  0.78535410577E+03  0.00000000000E+00 0. -1.
         -1   -1    0    0    0  501 -0.00000000000E+00 -0.00000000000E+00 -0.86688407592E+03  0.86688407592E+03  0.00000000000E+00 0.  1.
         24    2    1    2    0    0 -0.35347260526E+03  0.21889142077E+03  0.36863937650E+03  0.56142225461E+03  0.80272170229E+02 0.  0.
        254    2    1    2    0    0  0.35347260526E+03 -0.21889142077E+03 -0.45016934664E+03  0.10908159271E+04  0.90242484970E+03 0.  0.
         23    2    4    4    0    0  0.28036907708E+03  0.11372697780E+03 -0.62458860260E+03  0.69842698280E+03  0.78413538023E+02 0.  0.
         23    2    4    4    0    0  0.73103528181E+02 -0.33261839857E+03  0.17441925596E+03  0.39238894428E+03  0.86993573599E+02 0.  0.
          2    1    3    3  502    0 -0.28791871916E+03  0.16109605949E+03  0.32735115786E+03  0.46476651104E+03  0.00000000000E+00 0. -1.
         -1    1    3    3    0  502 -0.65553886100E+02  0.57795361278E+02  0.41288218632E+02  0.96655743574E+02  0.00000000000E+00 0.  1.
         11    1    5    5    0    0  0.16196437823E+03  0.89307693799E+02 -0.44532686584E+03  0.48220777828E+03  0.00000000000E+00 0.  1.
        -11    1    5    5    0    0  0.11840469885E+03  0.24419284000E+02 -0.17926173675E+03  0.21621920452E+03  0.00000000000E+00 0. -1.
          3    1    6    6  503    0  0.52784063653E+01  0.35907188075E+01 -0.20054422865E+01  0.66915345083E+01  0.00000000000E+00 0. -1.
         -3    1    6    6    0  503  0.67825121816E+02 -0.33620911737E+03  0.17642469824E+03  0.38569740977E+03  0.00000000000E+00 0.  1.
<mgrwt>
<rscale>  0 0.16502254E+04</rscale>
<asrwt>0</asrwt>
<pdfrwt beam="1">  1        2 0.12082371E+00 0.16502254E+04</pdfrwt>
<pdfrwt beam="2">  1       -1 0.13336678E+00 0.16502254E+04</pdfrwt>
<totfact> 0.18299321E+01</totfact>
</mgrwt>
</event>
<event>
11    6  0.1663299E-008  0.2087633E+04  0.7818608E-02  0.8566711E-01
          2   -1    0    0  501    0  0.00000000000E+00  0.00000000000E+00  0.20486589666E+04  0.20486589666E+04  0.00000000000E+00 0. -1.
         -1   -1    0    0    0  501 -0.00000000000E+00 -0.00000000000E+00 -0.53183696522E+03  0.53183696522E+03  0.00000000000E+00 0.  1.
         24    2    1    2    0    0  0.26343881548E+03  0.32266627184E+03 -0.30082027208E+03  0.51985763906E+03  0.79029085195E+02 0.  0.
        254    2    1    2    0    0 -0.26343881548E+03 -0.32266627184E+03  0.18176422735E+04  0.20606382928E+04  0.87686555802E+03 0.  0.
         23    2    4    4    0    0 -0.39001809879E+03  0.63381132185E+02  0.13807969235E+04  0.14394435291E+04  0.96261331793E+02 0.  0.
          2    1    3    3  502    0  0.12595724695E+03  0.16078997148E+03 -0.19575377468E+03  0.28291020358E+03  0.00000000000E+00 0. -1.
         -1    1    3    3    0  502  0.13748156853E+03  0.16187630036E+03 -0.10506649740E+03  0.23694743548E+03  0.00000000000E+00 0.  1.
         11    1    4    4    0    0  0.61680027081E+02 -0.21760574521E+03  0.11876689262E+03  0.25546479380E+03  0.00000000000E+00 0. -1.
        -11    1    4    4    0    0  0.64899256231E+02 -0.16844165882E+03  0.31807845735E+03  0.36572996994E+03  0.00000000000E+00 0.  1.
          3    1    5    5  503    0 -0.20038419165E+03  0.47415864116E+02  0.55409326891E+03  0.59111880285E+03  0.00000000000E+00 0. -1.
         -3    1    5    5    0  503 -0.18963390715E+03  0.15965268068E+02  0.82670365464E+03  0.84832472622E+03  0.00000000000E+00 0.  1.
<mgrwt>
<rscale>  0 0.20876327E+04</rscale>
<asrwt>0</asrwt>
<pdfrwt beam="1">  1        2 0.31517830E+00 0.20876327E+04</pdfrwt>
<pdfrwt beam="2">  1       -1 0.81821073E-01 0.20876327E+04</pdfrwt>
<totfact> 0.97980590E+00</totfact>
</mgrwt>
</event>
<event>
11    6  0.1663299E-008  0.1547130E+04  0.7818608E-02  0.8853703E-01
         -1   -1    0    0    0  501 -0.00000000000E+00  0.00000000000E+00  0.57719907093E+03  0.57719907093E+03  0.00000000000E+00 0.  1.
          2   -1    0    0  501    0  0.00000000000E+00 -0.00000000000E+00 -0.10367358049E+04  0.10367358049E+04  0.00000000000E+00 0. -1.
         24    2    1    2    0    0 -0.24933758009E+03  0.25078381260E+03  0.22601335934E+03  0.42683865007E+03  0.77765320604E+02 0.  0.
        254    2    1    2    0    0  0.24933758009E+03 -0.25078381260E+03 -0.68555009332E+03  0.11870962258E+04  0.90230636111E+03 0.  0.
         23    2    4    4    0    0 -0.21599969477E+03 -0.24417274581E+03 -0.24505144775E+03  0.41604950445E+03  0.82284750563E+02 0.  0.
          2    1    3    3  502    0 -0.47317621523E+02  0.38378440749E+02  0.78468551512E+01  0.61428292803E+02  0.00000000000E+00 0. -1.
         -1    1    3    3    0  502 -0.20201995857E+03  0.21240537185E+03  0.21816650418E+03  0.36541035727E+03  0.00000000000E+00 0.  1.
         11    1    4    4    0    0 -0.78914337115E+02 -0.97802660230E+01 -0.16716825800E+02  0.81256251886E+02  0.00000000000E+00 0. -1.
        -11    1    4    4    0    0  0.54425161198E+03  0.31691992381E+01 -0.42378181977E+03  0.68979046944E+03  0.00000000000E+00 0.  1.
          2    1    5    5  503    0 -0.14617818389E+03 -0.15449169499E+03 -0.20539501176E+03  0.29567356345E+03  0.00000000000E+00 0. -1.
         -2    1    5    5    0  503 -0.69821510879E+02 -0.89681050819E+02 -0.39656435989E+02  0.12037594100E+03  0.00000000000E+00 0.  1.
<mgrwt>
<rscale>  0 0.15471302E+04</rscale>
<asrwt>0</asrwt>
<pdfrwt beam="1">  1        2 0.15949781E+00 0.15471302E+04</pdfrwt>
<pdfrwt beam="2">  1       -1 0.88799858E-01 0.15471302E+04</pdfrwt>
<totfact> 0.32620119E+01</totfact>
</mgrwt>
</event>
<event>
12    6  0.1663299E-008  0.2132413E+04  0.7818608E-02  0.8547098E-01
         -1   -1    0    0    0  501 -0.00000000000E+00  0.00000000000E+00  0.97548348787E+03  0.97548348787E+03  0.00000000000E+00 0.  1.
          2   -1    0    0  501    0  0.00000000000E+00 -0.00000000000E+00 -0.11653675103E+04  0.11653675103E+04  0.00000000000E+00 0. -1.
         24    2    1    2    0    0  0.56067414092E+02 -0.24671289566E+03 -0.92603629059E+03  0.96336727869E+03  0.80761961003E+02 0.  0.
        254    2    1    2    0    0 -0.56067414092E+02  0.24671289566E+03  0.73615226820E+03  0.11774837194E+04  0.88348001662E+03 0.  0.
         23    2    4    4    0    0 -0.31437309442E+03  0.45224795514E+03  0.35267211156E+03  0.66284957040E+03  0.10785768069E+03 0.  0.
         23    2    4    4    0    0  0.25830568033E+03 -0.20553505948E+03  0.38348015664E+03  0.51463414904E+03  0.93940362206E+02 0.  0.
          2    1    3    3  502    0  0.53149010378E+02 -0.24671176178E+03 -0.83549882995E+03  0.87278279403E+03  0.00000000000E+00 0. -1.
         -1    1    3    3    0  502  0.29184037138E+01 -0.11338806990E-02 -0.90537460639E+02  0.90584484657E+02  0.00000000000E+00 0.  1.
         11    1    5    5    0    0 -0.28357410295E+03  0.33267995130E+03  0.26173962979E+03  0.50950746379E+03  0.00000000000E+00 0.  1.
        -11    1    5    5    0    0 -0.30798991477E+02  0.11956800384E+03  0.90932481777E+02  0.15334210661E+03  0.00000000000E+00 0. -1.
          3    1    6    6  503    0  0.59346737467E+02 -0.10414232751E+03  0.13034942135E+03  0.17708368438E+03  0.00000000000E+00 0. -1.
         -3    1    6    6    0  503  0.19895894286E+03 -0.10139273197E+03  0.25313073529E+03  0.33755046466E+03  0.00000000000E+00 0.  1.
<mgrwt>
<rscale>  0 0.21324134E+04</rscale>
<asrwt>0</asrwt>
<pdfrwt beam="1">  1        2 0.17928731E+00 0.21324134E+04</pdfrwt>
<pdfrwt beam="2">  1       -1 0.15007438E+00 0.21324134E+04</pdfrwt>
<totfact> 0.72561833E+00</totfact>
</mgrwt>
</event>
<event>
12    6  0.1663299E-008  0.1822945E+04  0.7818608E-02  0.8694192E-01
          2   -1    0    0  501    0  0.00000000000E+00  0.00000000000E+00  0.12670613800E+04  0.12670613800E+04  0.00000000000E+00 0. -1.
         -1   -1    0    0    0  501 -0.00000000000E+00 -0.00000000000E+00 -0.65567641443E+03  0.65567641443E+03  0.00000000000E+00 0.  1.
         24    2    1    2    0    0 -0.65653726107E+03 -0.13239749637E+03  0.38097602989E+03  0.77471237171E+03  0.80413004572E+02 0.  0.
        254    2    1    2    0    0  0.65653726107E+03  0.13239749637E+03  0.23040893572E+03  0.11480254228E+04  0.90349533559E+03 0.  0.
         23    2    4    4    0    0 -0.16013416620E+03 -0.15620715085E+03  0.10171506431E+03  0.26765814803E+03  0.10607216760E+03 0.  0.
         23    2    4    4    0    0  0.81667142726E+03  0.28860464722E+03  0.12869387141E+03  0.88036727473E+03  0.90772040692E+02 0.  0.
          4    1    3    3  502    0 -0.30552031105E+03 -0.85429583025E+02  0.14260861516E+03  0.34781904956E+03  0.00000000000E+00 0. -1.
         -3    1    3    3    0  502 -0.35101695002E+03 -0.46967913344E+02  0.23836741474E+03  0.42689332214E+03  0.00000000000E+00 0.  1.
         11    1    5    5    0    0 -0.15402213834E+03 -0.92446938169E+02  0.53332859920E+02  0.18738636402E+03  0.00000000000E+00 0. -1.
        -11    1    5    5    0    0 -0.61120278603E+01 -0.63760212684E+02  0.48382204392E+02  0.80271784009E+02  0.00000000000E+00 0.  1.
          3    1    6    6  503    0  0.15728097432E+03  0.19165709985E+02  0.29744091697E+02  0.16121209729E+03  0.00000000000E+00 0. -1.
         -3    1    6    6    0  503  0.65939045295E+03  0.26943893724E+03  0.98949779710E+02  0.71915517744E+03  0.00000000000E+00 0.  1.
<mgrwt>
<rscale>  0 0.18229452E+04</rscale>
<asrwt>0</asrwt>
<pdfrwt beam="1">  1        2 0.19493252E+00 0.18229452E+04</pdfrwt>
<pdfrwt beam="2">  1       -1 0.10087329E+00 0.18229452E+04</pdfrwt>
<totfact> 0.17348237E+01</totfact>
</mgrwt>
</event>
<event>
12    6  0.1663299E-008  0.1623976E+04  0.7818608E-02  0.8805953E-01
          2   -1    0    0  501    0  0.00000000000E+00  0.00000000000E+00  0.62567473775E+03  0.62567473775E+03  0.00000000000E+00 0. -1.
         -1   -1    0    0    0  501 -0.00000000000E+00 -0.00000000000E+00 -0.10537815851E+04  0.10537815851E+04  0.00000000000E+00 0.  1.
         24    2    1    2    0    0 -0.21734514722E+03 -0.44551804043E+03  0.38064353387E+02  0.50352467562E+03  0.79768205424E+02 0.  0.
        254    2    1    2    0    0  0.21734514722E+03  0.44551804043E+03 -0.46617120074E+03  0.11759316472E+04  0.95904870221E+03 0.  0.
         23    2    4    4    0    0  0.46721038816E+03  0.53152446489E+03 -0.52678064930E+03  0.88963271412E+03  0.11465038152E+03 0.  0.
         23    2    4    4    0    0 -0.24986524094E+03 -0.86006424466E+02  0.60609448552E+02  0.28629893312E+03  0.91999077007E+02 0.  0.
          2    1    3    3  502    0 -0.87501943709E+02 -0.24077862220E+03 -0.99358045177E+01  0.25637795395E+03  0.00000000000E+00 0. -1.
         -1    1    3    3    0  502 -0.12984320351E+03 -0.20473941823E+03  0.48000157905E+02  0.24714672167E+03  0.00000000000E+00 0.  1.
         11    1    5    5    0    0  0.83200112473E+02  0.14423271280E+03 -0.16965462375E+03  0.23771416768E+03  0.00000000000E+00 0.  1.
        -11    1    5    5    0    0  0.38401027569E+03  0.38729175209E+03 -0.35712602555E+03  0.65191854644E+03  0.00000000000E+00 0. -1.
          1    1    6    6  503    0 -0.16815084049E+03 -0.59933252651E+02 -0.45692928125E+01  0.17857093371E+03  0.00000000000E+00 0. -1.
         -1    1    6    6    0  503 -0.81714400457E+02 -0.26073171815E+02  0.65178741365E+02  0.10772799941E+03  0.00000000000E+00 0.  1.
<mgrwt>
<rscale>  0 0.16239760E+04</rscale>
<asrwt>0</asrwt>
<pdfrwt beam="1">  1        2 0.96257653E-01 0.16239760E+04</pdfrwt>
<pdfrwt beam="2">  1       -1 0.16212024E+00 0.16239760E+04</pdfrwt>
<totfact> 0.14513742E+01</totfact>
</mgrwt>
</event>
<event>
12    6  0.1663299E-008  0.1239453E+04  0.7818608E-02  0.9079008E-01
         -1   -1    0    0    0  501 -0.00000000000E+00  0.00000000000E+00  0.66149299850E+03  0.66149299850E+03  0.00000000000E+00 0.  1.
          2   -1    0    0  501    0  0.00000000000E+00 -0.00000000000E+00 -0.58059686391E+03  0.58059686391E+03  0.00000000000E+00 0. -1.
         24    2    1    2    0    0 -0.16219918474E+03  0.18997012350E+02  0.17850944983E+03  0.25449722032E+03  0.78954097181E+02 0.  0.
        254    2    1    2    0    0  0.16219918474E+03 -0.18997012350E+02 -0.97613315240E+02  0.98759264209E+03  0.96909308396E+03 0.  0.
         23    2    4    4    0    0 -0.13315323332E+03  0.13193111014E+03  0.35537996233E+03  0.41856499950E+03  0.11732919422E+03 0.  0.
         23    2    4    4    0    0  0.29535241806E+03 -0.15092812249E+03 -0.45299327757E+03  0.56902764258E+03  0.92613171224E+02 0.  0.
          4    1    3    3  502    0 -0.14770340940E+03  0.39523119794E+02  0.13364493355E+03  0.20307472125E+03  0.00000000000E+00 0. -1.
         -3    1    3    3    0  502 -0.14495775347E+02 -0.20526107444E+02  0.44864516285E+02  0.51422499076E+02  0.00000000000E+00 0.  1.
         11    1    5    5    0    0 -0.13968431268E+03  0.14486867378E+03  0.34870575421E+03  0.40260941726E+03  0.00000000000E+00 0. -1.
        -11    1    5    5    0    0  0.65310793629E+01 -0.12937563637E+02  0.66742081240E+01  0.15955582239E+02  0.00000000000E+00 0.  1.
          3    1    6    6  503    0  0.19549353158E+03 -0.89894177243E+02 -0.36060361065E+03  0.41992100210E+03  0.00000000000E+00 0. -1.
         -3    1    6    6    0  503  0.99858886485E+02 -0.61033945248E+02 -0.92389666926E+02  0.14910664049E+03  0.00000000000E+00 0.  1.
<mgrwt>
<rscale>  0 0.12394527E+04</rscale>
<asrwt>0</asrwt>
<pdfrwt beam="1">  1        2 0.89322594E-01 0.12394527E+04</pdfrwt>
<pdfrwt beam="2">  1       -1 0.10176815E+00 0.12394527E+04</pdfrwt>
<totfact> 0.53168937E+01</totfact>
</mgrwt>
</event>
<event>
11    6  0.1663299E-008  0.1898818E+04  0.7818608E-02  0.8655445E-01
          2   -1    0    0  501    0  0.00000000000E+00  0.00000000000E+00  0.20580548130E+04  0.20580548130E+04  0.00000000000E+00 0. -1.
         -3   -1    0    0    0  501 -0.00000000000E+00 -0.00000000000E+00 -0.43797562098E+03  0.43797562098E+03  0.00000000000E+00 0.  1.
         24    2    1    2    0    0 -0.57664376401E+03  0.45614522305E+02  0.12235693319E+04  0.13556661358E+04  0.78166786698E+02 0.  0.
        254    2    1    2    0    0  0.57664376401E+03 -0.45614522305E+02  0.39650986015E+03  0.11403642982E+04  0.89922852948E+03 0.  0.
         23    2    4    4    0    0  0.55326771555E+03  0.32294322764E+03  0.36262617724E+03  0.74130960585E+03  0.87433940507E+02 0.  0.
          4    1    3    3  502    0 -0.30319414130E+03  0.34845250454E+02  0.73163634344E+03  0.79273742048E+03  0.00000000000E+00 0. -1.
         -3    1    3    3    0  502 -0.27344962271E+03  0.10769271851E+02  0.49193298845E+03  0.56292871530E+03  0.00000000000E+00 0.  1.
         11    1    4    4    0    0  0.53550734148E+01 -0.63495259163E+02 -0.51305976764E+02  0.81808483662E+02  0.00000000000E+00 0.  1.
        -11    1    4    4    0    0  0.18020975042E+02 -0.30506249078E+03  0.85189659678E+02  0.31724620871E+03  0.00000000000E+00 0. -1.
          1    1    5    5  503    0  0.32516283920E+03  0.19232743301E+03  0.16398576371E+03  0.41183982831E+03  0.00000000000E+00 0. -1.
         -1    1    5    5    0  503  0.22810487635E+03  0.13061579463E+03  0.19864041353E+03  0.32946977754E+03  0.00000000000E+00 0.  1.
<mgrwt>
<rscale>  0 0.18988184E+04</rscale>
<asrwt>0</asrwt>
<pdfrwt beam="1">  1        2 0.31662381E+00 0.18988184E+04</pdfrwt>
<pdfrwt beam="2">  1       -3 0.67380866E-01 0.18988184E+04</pdfrwt>
<totfact> 0.78870278E+00</totfact>
</mgrwt>
</event>
<event>
12    6  0.1663299E-008  0.1628256E+04  0.7818608E-02  0.8803375E-01
          2   -1    0    0  501    0  0.00000000000E+00  0.00000000000E+00  0.12762157060E+04  0.12762157060E+04  0.00000000000E+00 0. -1.
         -1   -1    0    0    0  501 -0.00000000000E+00 -0.00000000000E+00 -0.51935116920E+03  0.51935116920E+03  0.00000000000E+00 0.  1.
         24    2    1    2    0    0 -0.43659771314E+01 -0.55881080256E+03  0.19966444325E+03  0.59888750430E+03  0.80695589035E+02 0.  0.
        254    2    1    2    0    0  0.43659771314E+01  0.55881080256E+03  0.55720009358E+03  0.11966793709E+04  0.89960046561E+03 0.  0.
         23    2    4    4    0    0  0.14146234352E+03  0.60643800025E+03  0.18752464147E+02  0.63198893002E+03  0.10620597896E+03 0.  0.
         23    2    4    4    0    0 -0.13709636639E+03 -0.47627197690E+02  0.53844762944E+03  0.56469044092E+03  0.88801355769E+02 0.  0.
          4    1    3    3  502    0  0.65204198539E+01 -0.11382247371E+03  0.75609444252E+02  0.13680226408E+03  0.00000000000E+00 0. -1.
         -3    1    3    3    0  502 -0.10886396985E+02 -0.44498832885E+03  0.12405499900E+03  0.46208524022E+03  0.00000000000E+00 0.  1.
         11    1    5    5    0    0  0.21495047436E+02  0.13221781727E+02  0.86568447754E+01  0.26679459098E+02  0.00000000000E+00 0. -1.
        -11    1    5    5    0    0  0.11996729608E+03  0.59321621853E+03  0.10095619372E+02  0.60530947092E+03  0.00000000000E+00 0.  1.
          4    1    6    6  503    0 -0.76379370598E+02 -0.87009820588E+01  0.13952838817E+03  0.15930375528E+03  0.00000000000E+00 0. -1.
         -4    1    6    6    0  503 -0.60716995788E+02 -0.38926215631E+02  0.39891924127E+03  0.40538668564E+03  0.00000000000E+00 0.  1.
<mgrwt>
<rscale>  0 0.16282557E+04</rscale>
<asrwt>0</asrwt>
<pdfrwt beam="1">  1        2 0.19634088E+00 0.16282557E+04</pdfrwt>
<pdfrwt beam="2">  1       -1 0.79900180E-01 0.16282557E+04</pdfrwt>
<totfact> 0.29126907E+01</totfact>
</mgrwt>
</event>
<event>
12    6  0.1663299E-008  0.2432116E+04  0.7818608E-02  0.8427577E-01
         -3   -1    0    0    0  501 -0.00000000000E+00  0.00000000000E+00  0.25083448272E+04  0.25083448272E+04  0.00000000000E+00 0.  1.
          4   -1    0    0  501    0  0.00000000000E+00 -0.00000000000E+00 -0.58955099737E+03  0.58955099737E+03  0.00000000000E+00 0. -1.
         24    2    1    2    0    0 -0.92416003745E+03 -0.48805239464E+03  0.78242055804E+03  0.13079425053E+04  0.79150191107E+02 0.  0.
        254    2    1    2    0    0  0.92416003745E+03  0.48805239464E+03  0.11363732718E+04  0.17899533193E+04  0.90571615738E+03 0.  0.
         23    2    4    4    0    0 -0.16586993049E+03  0.14336056227E+02  0.76548181957E+02  0.19495474191E+03  0.66553518938E+02 0.  0.
         23    2    4    4    0    0  0.10900299679E+04  0.47371633841E+03  0.10598250899E+04  0.15949985774E+04  0.90657269824E+02 0.  0.
          2    1    3    3  502    0 -0.72503809146E+03 -0.37572530568E+03  0.56996859359E+03  0.99584835044E+03  0.00000000000E+00 0. -1.
         -1    1    3    3    0  502 -0.19912194599E+03 -0.11232708896E+03  0.21245196445E+03  0.31209415485E+03  0.00000000000E+00 0.  1.
         11    1    5    5    0    0 -0.17718791050E+00 -0.67375722337E+00  0.18849526087E+02  0.18862395873E+02  0.00000000000E+00 0.  1.
        -11    1    5    5    0    0 -0.16569274258E+03  0.15009813451E+02  0.57698655870E+02  0.17609234604E+03  0.00000000000E+00 0. -1.
          4    1    6    6  503    0  0.35876527793E+03  0.13409543073E+03  0.39213492888E+03  0.54814588536E+03  0.00000000000E+00 0. -1.
         -4    1    6    6    0  503  0.73126469001E+03  0.33962090768E+03  0.66769016099E+03  0.10468526921E+04  0.00000000000E+00 0.  1.
<mgrwt>
<rscale>  0 0.24321161E+04</rscale>
<asrwt>0</asrwt>
<pdfrwt beam="1">  1        4 0.90700155E-01 0.24321161E+04</pdfrwt>
<pdfrwt beam="2">  1       -3 0.38589920E+00 0.24321161E+04</pdfrwt>
<totfact> 0.26999265E-02</totfact>
</mgrwt>
</event>
<event>
11    6  0.1663299E-008  0.3195420E+04  0.7818608E-02  0.8190028E-01
         -1   -1    0    0    0  501 -0.00000000000E+00  0.00000000000E+00  0.11189297169E+04  0.11189297169E+04  0.00000000000E+00 0.  1.
          2   -1    0    0  501    0  0.00000000000E+00 -0.00000000000E+00 -0.22813560273E+04  0.22813560273E+04  0.00000000000E+00 0. -1.
         24    2    1    2    0    0 -0.12358288546E+03 -0.31840016847E+03 -0.20579488779E+04  0.20874120043E+04  0.74053322981E+02 0.  0.
        254    2    1    2    0    0  0.12358288546E+03  0.31840016847E+03  0.89552256749E+03  0.13128737399E+04  0.89723207209E+03 0.  0.
         23    2    4    4    0    0 -0.25275503672E+03  0.39209910267E+03  0.73996667129E+03  0.87946269476E+03  0.90978799541E+02 0.  0.
          4    1    3    3  502    0 -0.85842363231E+02 -0.26115734434E+03 -0.17816083303E+04  0.18026925175E+04  0.00000000000E+00 0. -1.
         -3    1    3    3    0  502 -0.37740522231E+02 -0.57242824123E+02 -0.27634054758E+03  0.28471948681E+03  0.00000000000E+00 0.  1.
         11    1    4    4    0    0  0.10736403488E+03  0.11454136947E+02  0.97261343610E+02  0.14532034338E+03  0.00000000000E+00 0. -1.
        -11    1    4    4    0    0  0.26897388731E+03 -0.85153071147E+02  0.58294552596E+02  0.28809070176E+03  0.00000000000E+00 0.  1.
          1    1    5    5  503    0 -0.12246567198E+03  0.11267532951E+03  0.28026577898E+03  0.32594858116E+03  0.00000000000E+00 0. -1.
         -1    1    5    5    0  503 -0.13028936475E+03  0.27942377316E+03  0.45970089231E+03  0.55351411361E+03  0.00000000000E+00 0.  1.
<mgrwt>
<rscale>  0 0.31954199E+04</rscale>
<asrwt>0</asrwt>
<pdfrwt beam="1">  1        2 0.35097785E+00 0.31954199E+04</pdfrwt>
<pdfrwt beam="2">  1       -1 0.17214303E+00 0.31954199E+04</pdfrwt>
<totfact> 0.10556605E+00</totfact>
</mgrwt>
</event>
<event>
12    6  0.1663299E-008  0.1545064E+04  0.7818608E-02  0.8855027E-01
          2   -1    0    0  501    0  0.00000000000E+00  0.00000000000E+00  0.45155493908E+03  0.45155493908E+03  0.00000000000E+00 0. -1.
         -1   -1    0    0    0  501 -0.00000000000E+00 -0.00000000000E+00 -0.13216672376E+04  0.13216672376E+04  0.00000000000E+00 0.  1.
         24    2    1    2    0    0 -0.13938648357E+02 -0.28489119201E+03  0.17371315174E+03  0.34329946094E+03  0.79504613635E+02 0.  0.
        254    2    1    2    0    0  0.13938648357E+02  0.28489119201E+03 -0.10438254502E+04  0.14299227157E+04  0.93474602173E+03 0.  0.
         23    2    4    4    0    0 -0.41544213822E+03  0.29938713341E+03 -0.41534547506E+03  0.66278712991E+03  0.67454355430E+02 0.  0.
         23    2    4    4    0    0  0.42938078657E+03 -0.14495941396E+02 -0.62847997515E+03  0.76713558578E+03  0.94508918176E+02 0.  0.
          4    1    3    3  502    0 -0.12405623838E+02 -0.29025691923E+03  0.17023414286E+03  0.33672339102E+03  0.00000000000E+00 0. -1.
         -1    1    3    3    0  502 -0.15330245199E+01  0.53657272203E+01  0.34790088781E+01  0.65760699171E+01  0.00000000000E+00 0.  1.
         11    1    5    5    0    0 -0.11905512230E+03  0.58462036349E+02 -0.82846860234E+02  0.15638265278E+03  0.00000000000E+00 0. -1.
        -11    1    5    5    0    0 -0.29638701592E+03  0.24092509706E+03 -0.33249861483E+03  0.50640447713E+03  0.00000000000E+00 0.  1.
          2    1    6    6  503    0  0.38282924517E+03  0.11889455586E+02 -0.51639903768E+03  0.64293666580E+03  0.00000000000E+00 0. -1.
         -2    1    6    6    0  503  0.46551541399E+02 -0.26385396981E+02 -0.11208093747E+03  0.12419891998E+03  0.00000000000E+00 0.  1.
<mgrwt>
<rscale>  0 0.15450636E+04</rscale>
<asrwt>0</asrwt>
<pdfrwt beam="1">  1        2 0.69469993E-01 0.15450636E+04</pdfrwt>
<pdfrwt beam="2">  1       -1 0.20333342E+00 0.15450636E+04</pdfrwt>
<totfact> 0.10888053E+01</totfact>
</mgrwt>
</event>
<event>
11    6  0.1663299E-008  0.1419126E+04  0.7818608E-02  0.8940090E-01
          2   -1    0    0  501    0  0.00000000000E+00  0.00000000000E+00  0.20947040782E+04  0.20947040782E+04  0.00000000000E+00 0. -1.
         -1   -1    0    0    0  501 -0.00000000000E+00 -0.00000000000E+00 -0.24035827047E+03  0.24035827047E+03  0.00000000000E+00 0.  1.
         24    2    1    2    0    0 -0.37638746871E+03 -0.18464286426E+03  0.52819066569E+03  0.67917029218E+03  0.80786091190E+02 0.  0.
        254    2    1    2    0    0  0.37638746871E+03  0.18464286426E+03  0.13261551420E+04  0.16558920565E+04  0.89862702389E+03 0.  0.
         23    2    4    4    0    0  0.29598889872E+03 -0.21250839455E+03  0.78182063351E+03  0.86704268161E+03  0.88035577076E+02 0.  0.
          2    1    3    3  502    0 -0.20278352225E+03 -0.10362270383E+03  0.34980371425E+03  0.41739844292E+03  0.00000000000E+00 0. -1.
         -1    1    3    3    0  502 -0.17360394645E+03 -0.81020160429E+02  0.17838695145E+03  0.26177184926E+03  0.00000000000E+00 0.  1.
         11    1    4    4    0    0  0.15073888930E+03  0.42917810534E+03  0.33276062143E+03  0.56360064765E+03  0.00000000000E+00 0.  1.
        -11    1    4    4    0    0 -0.70340319323E+02 -0.32026846531E+02  0.21157388705E+03  0.22524872720E+03  0.00000000000E+00 0. -1.
          4    1    5    5  503    0  0.58392451899E+02 -0.80014420633E+02  0.26667905035E+03  0.28448146134E+03  0.00000000000E+00 0. -1.
         -4    1    5    5    0  503  0.23759644683E+03 -0.13249397392E+03  0.51514158316E+03  0.58256122027E+03  0.00000000000E+00 0.  1.
<mgrwt>
<rscale>  0 0.14191257E+04</rscale>
<asrwt>0</asrwt>
<pdfrwt beam="1">  1        2 0.32226215E+00 0.14191257E+04</pdfrwt>
<pdfrwt beam="2">  1       -1 0.36978197E-01 0.14191257E+04</pdfrwt>
<totfact> 0.46073025E+01</totfact>
</mgrwt>
</event>
<event>
11    6  0.1663299E-008  0.2514659E+04  0.7818608E-02  0.8397782E-01
          2   -1    0    0  501    0  0.00000000000E+00  0.00000000000E+00  0.17035077080E+04  0.17035077080E+04  0.00000000000E+00 0. -1.
         -1   -1    0    0    0  501 -0.00000000000E+00 -0.00000000000E+00 -0.92801324518E+03  0.92801324518E+03  0.00000000000E+00 0.  1.
         24    2    1    2    0    0  0.10510732570E+04 -0.21642379459E+03  0.13554438382E+03  0.10846029085E+04  0.79980864904E+02 0.  0.
        254    2    1    2    0    0 -0.10510732570E+04  0.21642379459E+03  0.63995007898E+03  0.15469180447E+04  0.91204445225E+03 0.  0.
         23    2    4    4    0    0 -0.97157786134E+03  0.45984096554E+03  0.37029875834E+03  0.11402738288E+04  0.87669721001E+02 0.  0.
          4    1    3    3  502    0  0.15711067749E+03 -0.37903241575E+02 -0.77130566522E+01  0.16180207646E+03  0.00000000000E+00 0. -1.
         -3    1    3    3    0  502  0.89396257949E+03 -0.17852055302E+03  0.14325744047E+03  0.92280083205E+03  0.00000000000E+00 0.  1.
         11    1    4    4    0    0 -0.14289070402E+02 -0.39283813989E+00  0.10493664323E+03  0.10590576447E+03  0.00000000000E+00 0. -1.
        -11    1    4    4    0    0 -0.65206325238E+02 -0.24302433281E+03  0.16471467742E+03  0.30073845139E+03  0.00000000000E+00 0.  1.
          2    1    5    5  503    0 -0.11894660559E+03  0.29862956769E+02  0.57364949237E+02  0.13539139031E+03  0.00000000000E+00 0. -1.
         -2    1    5    5    0  503 -0.85263125575E+03  0.42997800877E+03  0.31293380910E+03  0.10048824385E+04  0.00000000000E+00 0.  1.
<mgrwt>
<rscale>  0 0.25146592E+04</rscale>
<asrwt>0</asrwt>
<pdfrwt beam="1">  1        2 0.26207811E+00 0.25146592E+04</pdfrwt>
<pdfrwt beam="2">  1       -1 0.14277127E+00 0.25146592E+04</pdfrwt>
<totfact> 0.39417471E+00</totfact>
</mgrwt>
</event>
<event>
11    6  0.1663299E-008  0.2578903E+04  0.7818608E-02  0.8375403E-01
          2   -1    0    0  501    0  0.00000000000E+00  0.00000000000E+00  0.32688404854E+04  0.32688404854E+04  0.00000000000E+00 0. -1.
         -1   -1    0    0    0  501 -0.00000000000E+00 -0.00000000000E+00 -0.50864688239E+03  0.50864688239E+03  0.00000000000E+00 0.  1.
         24    2    1    2    0    0 -0.65592662626E+03  0.90867332744E+03  0.10425399838E+04  0.15327794023E+04  0.81216521620E+02 0.  0.
        254    2    1    2    0    0  0.65592662626E+03 -0.90867332744E+03  0.17176536192E+04  0.22447079655E+04  0.91238859019E+03 0.  0.
         23    2    4    4    0    0  0.32565479213E+03 -0.93764104564E+03  0.13911253415E+04  0.17113427904E+04  0.90789075868E+02 0.  0.
          4    1    3    3  502    0 -0.23727962626E+03  0.31035581237E+03  0.41484692337E+03  0.56984236517E+03  0.00000000000E+00 0. -1.
         -3    1    3    3    0  502 -0.41864699999E+03  0.59831751507E+03  0.62769306039E+03  0.96293703715E+03  0.00000000000E+00 0.  1.
         11    1    4    4    0    0  0.92240995637E+02  0.88079578729E+02  0.32518295555E+01  0.12758129902E+03  0.00000000000E+00 0.  1.
        -11    1    4    4    0    0  0.23803083849E+03 -0.59111860527E+02  0.32327644819E+03  0.40578387608E+03  0.00000000000E+00 0. -1.
          2    1    5    5  503    0  0.78145640765E+02 -0.29134401207E+03  0.36274100572E+03  0.47177230925E+03  0.00000000000E+00 0. -1.
         -2    1    5    5    0  503  0.24750915136E+03 -0.64629703357E+03  0.10283843358E+04  0.12395704811E+04  0.00000000000E+00 0.  1.
<mgrwt>
<rscale>  0 0.25789033E+04</rscale>
<asrwt>0</asrwt>
<pdfrwt beam="1">  1        2 0.50289852E+00 0.25789033E+04</pdfrwt>
<pdfrwt beam="2">  1       -1 0.78253368E-01 0.25789033E+04</pdfrwt>
<totfact> 0.19250609E+00</totfact>
</mgrwt>
</event>
<event>
12    6  0.1663299E-008  0.1585969E+04  0.7818608E-02  0.8829214E-01
         -1   -1    0    0    0  501 -0.00000000000E+00  0.00000000000E+00  0.60815567330E+03  0.60815567330E+03  0.00000000000E+00 0.  1.
          2   -1    0    0  501    0  0.00000000000E+00 -0.00000000000E+00 -0.10339861823E+04  0.10339861823E+04  0.00000000000E+00 0. -1.
         24    2    1    2    0    0 -0.41735991442E+03  0.69814355250E+02  0.18672890965E+03  0.46947181094E+03  0.80453422558E+02 0.  0.
        254    2    1    2    0    0  0.41735991442E+03 -0.69814355250E+02 -0.61255941865E+03  0.11726700447E+04  0.90601470732E+03 0.  0.
         23    2    4    4    0    0  0.95280000092E+02  0.16468414146E+03 -0.72246740254E+03  0.75003069053E+03  0.66240049245E+02 0.  0.
         23    2    4    4    0    0  0.32207991433E+03 -0.23449849671E+03  0.10990798389E+03  0.42263935413E+03  0.88426481096E+02 0.  0.
          2    1    3    3  502    0 -0.78291942654E+02  0.18498881164E+01  0.41582547710E+01  0.78424112704E+02  0.00000000000E+00 0. -1.
         -1    1    3    3    0  502 -0.33906797177E+03  0.67964467133E+02  0.18257065488E+03  0.39104769824E+03  0.00000000000E+00 0.  1.
         11    1    5    5    0    0  0.67539026126E+02  0.52167681241E+02 -0.32445253382E+03  0.33548835110E+03  0.00000000000E+00 0. -1.
        -11    1    5    5    0    0  0.27740973966E+02  0.11251646022E+03 -0.39801486872E+03  0.41454233943E+03  0.00000000000E+00 0.  1.
          4    1    6    6  503    0  0.13189399013E+03 -0.12763653603E+03  0.87527908132E+02  0.20334267792E+03  0.00000000000E+00 0. -1.
         -4    1    6    6    0  503  0.19018592420E+03 -0.10686196068E+03  0.22380075763E+02  0.21929667620E+03  0.00000000000E+00 0.  1.
<mgrwt>
<rscale>  0 0.15859692E+04</rscale>
<asrwt>0</asrwt>
<pdfrwt beam="1">  1        2 0.15907480E+00 0.15859692E+04</pdfrwt>
<pdfrwt beam="2">  1       -1 0.93562411E-01 0.15859692E+04</pdfrwt>
<totfact> 0.29080305E+01</totfact>
</mgrwt>
</event>
<event>
12    6  0.1663299E-008  0.1589168E+04  0.7818608E-02  0.8827231E-01
         -1   -1    0    0    0  501 -0.00000000000E+00  0.00000000000E+00  0.25626088662E+03  0.25626088662E+03  0.00000000000E+00 0.  1.
          2   -1    0    0  501    0  0.00000000000E+00 -0.00000000000E+00 -0.24637522745E+04  0.24637522745E+04  0.00000000000E+00 0. -1.
         24    2    1    2    0    0 -0.36806575812E+03 -0.25115358313E+03 -0.12707750839E+04  0.13491393662E+04  0.82202134002E+02 0.  0.
        254    2    1    2    0    0  0.36806575812E+03  0.25115358313E+03 -0.93671630393E+03  0.13708737949E+04  0.89627395529E+03 0.  0.
         23    2    4    4    0    0  0.95389352986E+02 -0.29231444784E+03 -0.55896482523E+03  0.64908638295E+03  0.11968538594E+03 0.  0.
         23    2    4    4    0    0  0.27267640514E+03  0.54346803097E+03 -0.37775147870E+03  0.72178741197E+03  0.92579510809E+02 0.  0.
          4    1    3    3  502    0 -0.34929437133E+03 -0.22054786818E+03 -0.12097481667E+04  0.12783342860E+04  0.00000000000E+00 0. -1.
         -3    1    3    3    0  502 -0.18771386796E+02 -0.30605714953E+02 -0.61026917252E+02  0.70805080180E+02  0.00000000000E+00 0.  1.
         11    1    5    5    0    0  0.10707751512E+03 -0.19638926699E+03 -0.31208686982E+03  0.38396946850E+03  0.00000000000E+00 0. -1.
        -11    1    5    5    0    0 -0.11688162133E+02 -0.95925180849E+02 -0.24687795542E+03  0.26511691445E+03  0.00000000000E+00 0.  1.
          1    1    6    6  503    0  0.21817782266E+03  0.47909315621E+03 -0.29419369313E+03  0.60306031514E+03  0.00000000000E+00 0. -1.
         -1    1    6    6    0  503  0.54498582472E+02  0.64374874764E+02 -0.83557785569E+02  0.11872709683E+03  0.00000000000E+00 0.  1.
<mgrwt>
<rscale>  0 0.15891675E+04</rscale>
<asrwt>0</asrwt>
<pdfrwt beam="1">  1        2 0.37903881E+00 0.15891675E+04</pdfrwt>
<pdfrwt beam="2">  1       -1 0.39424752E-01 0.15891675E+04</pdfrwt>
<totfact> 0.25025104E+01</totfact>
</mgrwt>
</event>
<event>
11    6  0.1663299E-008  0.3637752E+04  0.7818608E-02  0.8081898E-01
          2   -1    0    0  501    0  0.00000000000E+00  0.00000000000E+00  0.19786218251E+04  0.19786218251E+04  0.00000000000E+00 0. -1.
         -1   -1    0    0    0  501 -0.00000000000E+00 -0.00000000000E+00 -0.16720278000E+04  0.16720278000E+04  0.00000000000E+00 0.  1.
         24    2    1    2    0    0  0.11935429129E+04  0.12205589374E+04  0.89800066072E+02  0.17114353495E+04  0.81474531103E+02 0.  0.
        254    2    1    2    0    0 -0.11935429129E+04 -0.12205589374E+04  0.21679395904E+03  0.19392142755E+04  0.89400423995E+03 0.  0.
         23    2    4    4    0    0 -0.94619737513E+03 -0.41001636126E+03  0.29908060787E+03  0.10775298742E+04  0.90656111203E+02 0.  0.
          2    1    3    3  502    0  0.17673680656E+03  0.16020131491E+03 -0.11777155496E+02  0.23882851900E+03  0.00000000000E+00 0. -1.
         -1    1    3    3    0  502  0.10168061063E+04  0.10603576225E+04  0.10157722157E+03  0.14726068305E+04  0.00000000000E+00 0.  1.
         11    1    4    4    0    0  0.20002253964E+01 -0.65310287475E+02 -0.35717146902E+02  0.74465758135E+02  0.00000000000E+00 0.  1.
        -11    1    4    4    0    0 -0.24934576313E+03 -0.74523228869E+03 -0.46569501931E+02  0.78721864320E+03  0.00000000000E+00 0. -1.
          4    1    5    5  503    0 -0.43431361717E+03 -0.22967385071E+03  0.16764883353E+03  0.51911899132E+03  0.00000000000E+00 0.  1.
         -4    1    5    5    0  503 -0.51188375796E+03 -0.18034251056E+03  0.13143177434E+03  0.55841088285E+03  0.00000000000E+00 0. -1.
<mgrwt>
<rscale>  0 0.36377524E+04</rscale>
<asrwt>0</asrwt>
<pdfrwt beam="1">  1        2 0.30440336E+00 0.36377524E+04</pdfrwt>
<pdfrwt beam="2">  1       -1 0.25723505E+00 0.36377524E+04</pdfrwt>
<totfact> 0.39693788E-01</totfact>
</mgrwt>
</event>
<event>
11    6  0.1663299E-008  0.1631396E+04  0.7818608E-02  0.8801489E-01
          2   -1    0    0  501    0  0.00000000000E+00  0.00000000000E+00  0.17386247518E+04  0.17386247518E+04  0.00000000000E+00 0. -1.
         -1   -1    0    0    0  501 -0.00000000000E+00 -0.00000000000E+00 -0.38269517497E+03  0.38269517497E+03  0.00000000000E+00 0.  1.
         24    2    1    2    0    0  0.32704558429E+03  0.12940900594E+02 -0.13072203880E+03  0.36129973731E+03  0.79517090223E+02 0.  0.
        254    2    1    2    0    0 -0.32704558429E+03 -0.12940900594E+02  0.14866516156E+04  0.17600201894E+04  0.88340916904E+03 0.  0.
         23    2    4    4    0    0 -0.16238224511E+03  0.40865936123E+03  0.86210861438E+03  0.97219336062E+03  0.92510542105E+02 0.  0.
          2    1    3    3  502    0  0.90705688375E+02  0.24639878966E+02 -0.69447489607E+02  0.11686573215E+03  0.00000000000E+00 0. -1.
         -1    1    3    3    0  502  0.23633989592E+03 -0.11698978373E+02 -0.61274549195E+02  0.24443400516E+03  0.00000000000E+00 0.  1.
         11    1    4    4    0    0 -0.70539528079E+02 -0.28965635899E+02  0.90839532304E+02  0.11860292456E+03  0.00000000000E+00 0. -1.
        -11    1    4    4    0    0 -0.94123811106E+02 -0.39263462593E+03  0.53370346893E+03  0.66922390427E+03  0.00000000000E+00 0.  1.
          4    1    5    5  503    0 -0.23591260767E+02  0.17428611283E+03  0.37196155034E+03  0.41144573353E+03  0.00000000000E+00 0.  1.
         -4    1    5    5    0  503 -0.13879098434E+03  0.23437324840E+03  0.49014706404E+03  0.56074762709E+03  0.00000000000E+00 0. -1.
<mgrwt>
<rscale>  0 0.16313961E+04</rscale>
<asrwt>0</asrwt>
<pdfrwt beam="1">  1        2 0.26748073E+00 0.16313961E+04</pdfrwt>
<pdfrwt beam="2">  1       -1 0.58876182E-01 0.16313961E+04</pdfrwt>
<totfact> 0.29738614E+01</totfact>
</mgrwt>
</event>
<event>
12    6  0.1663299E-008  0.1274295E+04  0.7818608E-02  0.9050202E-01
          2   -1    0    0  501    0  0.00000000000E+00  0.00000000000E+00  0.10052653244E+04  0.10052653244E+04  0.00000000000E+00 0. -1.
         -1   -1    0    0    0  501 -0.00000000000E+00 -0.00000000000E+00 -0.40383044725E+03  0.40383044725E+03  0.00000000000E+00 0.  1.
         24    2    1    2    0    0 -0.18834085020E+03 -0.64176559966E+02 -0.11421756629E+03  0.24297090002E+03  0.79989368700E+02 0.  0.
        254    2    1    2    0    0  0.18834085020E+03  0.64176559966E+02  0.71565244347E+03  0.11661248717E+04  0.89894265098E+03 0.  0.
         23    2    4    4    0    0 -0.20351890476E+03 -0.10440195328E+03  0.68353567186E+03  0.72903961853E+03  0.10935281539E+03 0.  0.
         23    2    4    4    0    0  0.39185975496E+03  0.16857851324E+03  0.32116771609E+02  0.43708525313E+03  0.89661858134E+02 0.  0.
          4    1    3    3  502    0 -0.13888179053E+02  0.13418040482E+02  0.20582195820E+01  0.19420648692E+02  0.00000000000E+00 0. -1.
         -3    1    3    3    0  502 -0.17445267115E+03 -0.77594600449E+02 -0.11627578587E+03  0.22355025133E+03  0.00000000000E+00 0.  1.
         11    1    5    5    0    0 -0.14758207677E+03 -0.36893528706E+02  0.53840839035E+03  0.55948654733E+03  0.00000000000E+00 0.  1.
        -11    1    5    5    0    0 -0.55936827988E+02 -0.67508424570E+02  0.14512728151E+03  0.16955307119E+03  0.00000000000E+00 0. -1.
          4    1    6    6  503    0  0.13005368728E+03  0.10328696374E+03  0.12055208210E+02  0.16651572448E+03  0.00000000000E+00 0. -1.
         -4    1    6    6    0  503  0.26180606768E+03  0.65291549502E+02  0.20061563399E+02  0.27056952865E+03  0.00000000000E+00 0.  1.
<mgrwt>
<rscale>  0 0.12742947E+04</rscale>
<asrwt>0</asrwt>
<pdfrwt beam="1">  1        2 0.15465620E+00 0.12742947E+04</pdfrwt>
<pdfrwt beam="2">  1       -1 0.62127761E-01 0.12742947E+04</pdfrwt>
<totfact> 0.73568102E+01</totfact>
</mgrwt>
</event>
<event>
11    6  0.1663299E-008  0.1815017E+04  0.7818608E-02  0.8698354E-01
          2   -1    0    0  501    0  0.00000000000E+00  0.00000000000E+00  0.28445555030E+04  0.28445555030E+04  0.00000000000E+00 0. -1.
         -1   -1    0    0    0  501 -0.00000000000E+00 -0.00000000000E+00 -0.28952550514E+03  0.28952550514E+03  0.00000000000E+00 0.  1.
         24    2    1    2    0    0  0.58528721277E+03 -0.16374782943E+03  0.44156830902E+03  0.75524609772E+03  0.77715014692E+02 0.  0.
        254    2    1    2    0    0 -0.58528721277E+03  0.16374782943E+03  0.21134616889E+04  0.23788349105E+04  0.90706160090E+03 0.  0.
         23    2    4    4    0    0  0.78583235626E+02 -0.81969802023E+02  0.48089184158E+01  0.14631011795E+03  0.92136591833E+02 0.  0.
          4    1    3    3  502    0  0.19002077353E+03 -0.60004937363E+02  0.10165104913E+03  0.22369940248E+03  0.00000000000E+00 0. -1.
         -3    1    3    3    0  502  0.39526643923E+03 -0.10374289207E+03  0.33991725989E+03  0.53154669523E+03  0.00000000000E+00 0.  1.
         11    1    4    4    0    0 -0.37438235806E+03  0.21278245290E+03  0.10595330281E+04  0.11436995934E+04  0.00000000000E+00 0.  1.
        -11    1    4    4    0    0 -0.28948809033E+03  0.32935178555E+02  0.10491197423E+04  0.10888251991E+04  0.00000000000E+00 0. -1.
          3    1    5    5  503    0  0.42743378114E+02  0.11379145870E+02 -0.96639968035E+01  0.45275536082E+02  0.00000000000E+00 0. -1.
         -3    1    5    5    0  503  0.35839857512E+02 -0.93348947893E+02  0.14472915219E+02  0.10103458187E+03  0.00000000000E+00 0.  1.
<mgrwt>
<rscale>  0 0.18150167E+04</rscale>
<asrwt>0</asrwt>
<pdfrwt beam="1">  1        2 0.43762390E+00 0.18150167E+04</pdfrwt>
<pdfrwt beam="2">  1       -1 0.44542387E-01 0.18150167E+04</pdfrwt>
<totfact> 0.11674901E+01</totfact>
</mgrwt>
</event>
<event>
11    6  0.1663299E-008  0.2232737E+04  0.7818608E-02  0.8504925E-01
          2   -1    0    0  501    0  0.00000000000E+00  0.00000000000E+00  0.89658656248E+03  0.89658656248E+03  0.00000000000E+00 0. -1.
         -1   -1    0    0    0  501 -0.00000000000E+00 -0.00000000000E+00 -0.13900259369E+04  0.13900259369E+04  0.00000000000E+00 0.  1.
         24    2    1    2    0    0  0.33263665743E+03  0.27769869036E+03 -0.10520137372E+04  0.11403930924E+04  0.77458334256E+02 0.  0.
        254    2    1    2    0    0 -0.33263665743E+03 -0.27769869036E+03  0.55857436273E+03  0.11462194070E+04  0.90224714005E+03 0.  0.
         23    2    4    4    0    0 -0.38465880021E+03 -0.22076957191E+03  0.64473676195E+03  0.78791459372E+03  0.91773189545E+02 0.  0.
          2    1    3    3  502    0  0.75789190215E+02  0.41361989018E+02 -0.14807941524E+03  0.17141274371E+03  0.00000000000E+00 0. -1.
         -1    1    3    3    0  502  0.25684746722E+03  0.23633670134E+03 -0.90393432191E+03  0.96898034869E+03  0.00000000000E+00 0.  1.
         11    1    4    4    0    0 -0.11488659819E+03 -0.12273565270E+03 -0.48628619708E+02  0.17500775281E+03  0.00000000000E+00 0. -1.
        -11    1    4    4    0    0  0.16690874098E+03  0.65806534250E+02 -0.37533779510E+02  0.18329706045E+03  0.00000000000E+00 0.  1.
          3    1    5    5  503    0 -0.11381293084E+03 -0.77467349791E+02  0.27635849476E+03  0.30875328522E+03  0.00000000000E+00 0. -1.
         -3    1    5    5    0  503 -0.27084586937E+03 -0.14330222212E+03  0.36837826720E+03  0.47916130850E+03  0.00000000000E+00 0.  1.
<mgrwt>
<rscale>  0 0.22327370E+04</rscale>
<asrwt>0</asrwt>
<pdfrwt beam="1">  1        2 0.13793639E+00 0.22327370E+04</pdfrwt>
<pdfrwt beam="2">  1       -1 0.21385014E+00 0.22327370E+04</pdfrwt>
<totfact> 0.37104955E+00</totfact>
</mgrwt>
</event>
<event>
11    6  0.1663299E-008  0.1857698E+04  0.7818608E-02  0.8676204E-01
          2   -1    0    0  501    0  0.00000000000E+00  0.00000000000E+00  0.12804765933E+04  0.12804765933E+04  0.00000000000E+00 0. -1.
         -1   -1    0    0    0  501 -0.00000000000E+00 -0.00000000000E+00 -0.67378091976E+03  0.67378091976E+03  0.00000000000E+00 0.  1.
         24    2    1    2    0    0 -0.50923460740E+03 -0.32834502343E+03  0.61487149742E+03  0.86691149156E+03  0.79613039610E+02 0.  0.
        254    2    1    2    0    0  0.50923460740E+03  0.32834502343E+03 -0.81758238521E+01  0.10873460215E+04  0.90284228227E+03 0.  0.
         23    2    4    4    0    0  0.67568762615E+03  0.85925518094E+02  0.15201007676E+03  0.70378945305E+03  0.90970148926E+02 0.  0.
          2    1    3    3  502    0 -0.29994160981E+03 -0.18832314448E+03  0.41383136876E+03  0.54468979962E+03  0.00000000000E+00 0. -1.
         -1    1    3    3    0  502 -0.20929299759E+03 -0.14002187895E+03  0.20104012866E+03  0.32222169194E+03  0.00000000000E+00 0.  1.
         11    1    4    4    0    0 -0.86693190081E+02  0.96676855539E+01  0.47324047005E+01  0.87358851896E+02  0.00000000000E+00 0.  1.
        -11    1    4    4    0    0 -0.79759828671E+02  0.23275181978E+03 -0.16491830531E+03  0.29619771658E+03  0.00000000000E+00 0. -1.
          1    1    5    5  503    0  0.28038798436E+03 -0.45446158011E+01  0.82905522634E+02  0.29242332497E+03  0.00000000000E+00 0. -1.
         -1    1    5    5    0  503  0.39529964179E+03  0.90470133895E+02  0.69104554125E+02  0.41136612808E+03  0.00000000000E+00 0.  1.
<mgrwt>
<rscale>  0 0.18576982E+04</rscale>
<asrwt>0</asrwt>
<pdfrwt beam="1">  1        2 0.19699640E+00 0.18576982E+04</pdfrwt>
<pdfrwt beam="2">  1       -1 0.10365860E+00 0.18576982E+04</pdfrwt>
<totfact> 0.15951148E+01</totfact>
</mgrwt>
</event>
<event>
12    6  0.1663299E-008  0.4398333E+04  0.7818608E-02  0.7928682E-01
          2   -1    0    0  501    0  0.00000000000E+00  0.00000000000E+00  0.36841157922E+04  0.36841157922E+04  0.00000000000E+00 0. -1.
         -1   -1    0    0    0  501 -0.00000000000E+00 -0.00000000000E+00 -0.13127525378E+04  0.13127525378E+04  0.00000000000E+00 0.  1.
         24    2    1    2    0    0  0.46250070418E+03 -0.54990866380E+03  0.33857159830E+04  0.34621361711E+04  0.83712066021E+02 0.  0.
        254    2    1    2    0    0 -0.46250070418E+03  0.54990866380E+03 -0.10143527286E+04  0.15347321588E+04  0.90010271722E+03 0.  0.
         23    2    4    4    0    0  0.25234548257E+03  0.15577539571E+03 -0.17971246590E+03  0.36369588023E+03  0.10969916324E+03 0.  0.
         23    2    4    4    0    0 -0.71484618675E+03  0.39413326809E+03 -0.83464026265E+03  0.11710362786E+04  0.91408391553E+02 0.  0.
          4    1    3    3  502    0  0.20913577823E+03 -0.24800841241E+03  0.13314416886E+04  0.13703951680E+04  0.00000000000E+00 0. -1.
         -3    1    3    3    0  502  0.25336492595E+03 -0.30190025140E+03  0.20542742944E+04  0.20917410031E+04  0.00000000000E+00 0.  1.
         11    1    5    5    0    0  0.33242215670E+02  0.29957900324E+01 -0.64851888239E+02  0.72936870434E+02  0.00000000000E+00 0.  1.
        -11    1    5    5    0    0  0.21910326690E+03  0.15277960568E+03 -0.11486057766E+03  0.29075900980E+03  0.00000000000E+00 0. -1.
          2    1    6    6  503    0 -0.67076074739E+03  0.39230165231E+03 -0.79570925596E+03  0.11121932326E+04  0.00000000000E+00 0. -1.
         -2    1    6    6    0  503 -0.44085439356E+02  0.18316157767E+01 -0.38931006686E+02  0.58843045988E+02  0.00000000000E+00 0.  1.
<mgrwt>
<rscale>  0 0.43983326E+04</rscale>
<asrwt>0</asrwt>
<pdfrwt beam="1">  1        2 0.56678704E+00 0.43983326E+04</pdfrwt>
<pdfrwt beam="2">  1       -1 0.20196193E+00 0.43983326E+04</pdfrwt>
<totfact> 0.75645087E-02</totfact>
</mgrwt>
</event>
<event>
12    6  0.1848441E-008  0.1829134E+04  0.7818608E-02  0.8690958E-01
          2   -1    0    0  501    0  0.00000000000E+00  0.00000000000E+00  0.24477966536E+04  0.24477966536E+04  0.00000000000E+00 0. -1.
         -1   -1    0    0    0  501 -0.00000000000E+00 -0.00000000000E+00 -0.34170828391E+03  0.34170828391E+03  0.00000000000E+00 0.  1.
         24    2    1    2    0    0  0.30632087871E+03 -0.19086579814E+03  0.17169539500E+04  0.17568983771E+04  0.92188977185E+02 0.  0.
        254    2    1    2    0    0 -0.30632087871E+03  0.19086579814E+03  0.38913441972E+03  0.10326065604E+04  0.88576999180E+03 0.  0.
         23    2    4    4    0    0  0.11647394656E+03 -0.68224699550E+02  0.49359473239E+03  0.51772306355E+03  0.78616924594E+02 0.  0.
         23    2    4    4    0    0 -0.42279482528E+03  0.25909049769E+03 -0.10446031267E+03  0.51488349687E+03  0.91157600614E+02 0.  0.
          2    1    3    3  502    0  0.29100971347E+03 -0.17424475780E+03  0.16773463196E+04  0.17112973338E+04  0.00000000000E+00 0. -1.
         -1    1    3    3    0  502  0.15311165245E+02 -0.16621040345E+02  0.39607630439E+02  0.45601043325E+02  0.00000000000E+00 0.  1.
         11    1    5    5    0    0  0.46094820397E+02 -0.72224016026E+02  0.27639088920E+03  0.28936648837E+03  0.00000000000E+00 0.  1.
        -11    1    5    5    0    0  0.70379126165E+02  0.39993164761E+01  0.21720384318E+03  0.22835657517E+03  0.00000000000E+00 0. -1.
          3    1    6    6  503    0 -0.30983700768E+03  0.14198646053E+03 -0.82880782990E+02  0.35075397430E+03  0.00000000000E+00 0. -1.
         -3    1    6    6    0  503 -0.11295781760E+03  0.11710403716E+03 -0.21579529675E+02  0.16412952256E+03  0.00000000000E+00 0.  1.
<mgrwt>
<rscale>  0 0.18291336E+04</rscale>
<asrwt>0</asrwt>
<pdfrwt beam="1">  1        2 0.37658409E+00 0.18291336E+04</pdfrwt>
<pdfrwt beam="2">  1       -1 0.52570507E-01 0.18291336E+04</pdfrwt>
<totfact> 0.14604649E+01</totfact>
</mgrwt>
</event>
<event>
12    6  0.1663299E-008  0.1504201E+04  0.7818608E-02  0.8881664E-01
         -1   -1    0    0    0  501 -0.00000000000E+00  0.00000000000E+00  0.55847747169E+03  0.55847747169E+03  0.00000000000E+00 0.  1.
          2   -1    0    0  501    0  0.00000000000E+00 -0.00000000000E+00 -0.10128525004E+04  0.10128525004E+04  0.00000000000E+00 0. -1.
         24    2    1    2    0    0 -0.64304091251E+02 -0.26630257917E+02  0.36219540004E+03  0.37722101334E+03  0.79158059037E+02 0.  0.
        254    2    1    2    0    0  0.64304091251E+02  0.26630257917E+02 -0.81657042877E+03  0.11941089588E+04  0.86848416997E+03 0.  0.
         23    2    4    4    0    0  0.42659881659E+03  0.16908279864E+03 -0.36661983691E+03  0.59189192700E+03  0.73146464896E+02 0.  0.
         23    2    4    4    0    0 -0.36229472533E+03 -0.14245254073E+03 -0.44995059186E+03  0.60221703177E+03  0.93057100073E+02 0.  0.
          4    1    3    3  502    0 -0.50324087142E+02  0.18556319870E+02  0.13728444406E+03  0.14739019416E+03  0.00000000000E+00 0. -1.
         -3    1    3    3    0  502 -0.13980004109E+02 -0.45186577788E+02  0.22491095598E+03  0.22983081919E+03  0.00000000000E+00 0.  1.
         11    1    5    5    0    0  0.38058774617E+03  0.14665998837E+03 -0.35174201663E+03  0.53858948280E+03  0.00000000000E+00 0. -1.
        -11    1    5    5    0    0  0.46011070418E+02  0.22422810269E+02 -0.14877820278E+02  0.53302444199E+02  0.00000000000E+00 0.  1.
          1    1    6    6  503    0 -0.35369879512E+03 -0.14049466632E+03 -0.45408312824E+03  0.59248044380E+03  0.00000000000E+00 0. -1.
         -1    1    6    6    0  503 -0.85959302139E+01 -0.19578744048E+01  0.41325363763E+01  0.97365879716E+01  0.00000000000E+00 0.  1.
<mgrwt>
<rscale>  0 0.15042012E+04</rscale>
<asrwt>0</asrwt>
<pdfrwt beam="1">  1        2 0.15582346E+00 0.15042012E+04</pdfrwt>
<pdfrwt beam="2">  1       -1 0.85919611E-01 0.15042012E+04</pdfrwt>
<totfact> 0.36432296E+01</totfact>
</mgrwt>
</event>
<event>
12    6  0.1663299E-008  0.5041375E+04  0.7818608E-02  0.7822156E-01
         -1   -1    0    0    0  501 -0.00000000000E+00  0.00000000000E+00  0.23518368102E+04  0.23518368102E+04  0.00000000000E+00 0.  1.
          2   -1    0    0  501    0  0.00000000000E+00 -0.00000000000E+00 -0.27016609847E+04  0.27016609847E+04  0.00000000000E+00 0. -1.
         24    2    1    2    0    0  0.57599061399E+03  0.20533516385E+04 -0.13532061159E+04  0.25269624857E+04  0.79714951240E+02 0.  0.
        254    2    1    2    0    0 -0.57599061399E+03 -0.20533516385E+04  0.10033819413E+04  0.25265353092E+04  0.91026765823E+03 0.  0.
         23    2    4    4    0    0  0.10757900733E+02 -0.33497524571E+03 -0.14114779766E+03  0.37818011645E+03  0.10379475914E+03 0.  0.
         23    2    4    4    0    0 -0.58674851472E+03 -0.17183763928E+04  0.11445297390E+04  0.21483551927E+04  0.91599475347E+02 0.  0.
          4    1    3    3  502    0  0.55162274524E+03  0.20087930875E+04 -0.13255612111E+04  0.24691394950E+04  0.00000000000E+00 0. -1.
         -3    1    3    3    0  502  0.24367868748E+02  0.44558551067E+02 -0.27644904779E+02  0.57822990763E+02  0.00000000000E+00 0.  1.
         11    1    5    5    0    0  0.19628206063E+01 -0.29802520132E+02  0.16983949157E+02  0.34358367247E+02  0.00000000000E+00 0. -1.
        -11    1    5    5    0    0  0.87950801268E+01 -0.30517272557E+03 -0.15813174682E+03  0.34382174920E+03  0.00000000000E+00 0.  1.
          3    1    6    6  503    0 -0.11722869250E+03 -0.24905526178E+03  0.15905868261E+03  0.31791626928E+03  0.00000000000E+00 0. -1.
         -3    1    6    6    0  503 -0.46951982222E+03 -0.14693211310E+04  0.98547105637E+03  0.18304389235E+04  0.00000000000E+00 0.  1.
<mgrwt>
<rscale>  0 0.50413751E+04</rscale>
<asrwt>0</asrwt>
<pdfrwt beam="1">  1        2 0.41564015E+00 0.50413751E+04</pdfrwt>
<pdfrwt beam="2">  1       -1 0.36182105E+00 0.50413751E+04</pdfrwt>
<totfact> 0.28345498E-02</totfact>
</mgrwt>
</event>
<event>
12    6  0.1663299E-008  0.2311864E+04  0.7818608E-02  0.8473258E-01
         -1   -1    0    0    0  501 -0.00000000000E+00  0.00000000000E+00  0.70658994779E+03  0.70658994779E+03  0.00000000000E+00 0.  1.
          2   -1    0    0  501    0  0.00000000000E+00 -0.00000000000E+00 -0.18910244949E+04  0.18910244949E+04  0.00000000000E+00 0. -1.
         24    2    1    2    0    0 -0.66333159653E+03  0.21374062566E+03  0.26563757445E+03  0.75070791524E+03  0.85470410313E+02 0.  0.
        254    2    1    2    0    0  0.66333159653E+03 -0.21374062566E+03 -0.14500721216E+04  0.18469065275E+04  0.90700645059E+03 0.  0.
         23    2    4    4    0    0 -0.10795373799E+03 -0.19202211829E+03 -0.31249615904E+02  0.22941129589E+03  0.55915120766E+02 0.  0.
         23    2    4    4    0    0  0.77128533451E+03 -0.21718507373E+02 -0.14188225057E+04  0.16174952316E+04  0.88773649082E+02 0.  0.
          4    1    3    3  502    0 -0.26400098434E+03  0.81501095977E+02  0.15028012915E+03  0.31452037390E+03  0.00000000000E+00 0. -1.
         -3    1    3    3    0  502 -0.39933061218E+03  0.13223952968E+03  0.11535744530E+03  0.43618754134E+03  0.00000000000E+00 0.  1.
         11    1    5    5    0    0 -0.66647638869E+02 -0.14952666020E+03 -0.42399337739E+02  0.16910894038E+03  0.00000000000E+00 0. -1.
        -11    1    5    5    0    0 -0.41306099117E+02 -0.42495458090E+02  0.11149721835E+02  0.60302355506E+02  0.00000000000E+00 0.  1.
          3    1    6    6  503    0  0.69423381019E+03 -0.34734645019E+02 -0.12242833114E+04  0.14078482537E+04  0.00000000000E+00 0. -1.
         -3    1    6    6    0  503  0.77051524323E+02  0.13016137647E+02 -0.19453919425E+03  0.20964697789E+03  0.00000000000E+00 0.  1.
<mgrwt>
<rscale>  0 0.23118641E+04</rscale>
<asrwt>0</asrwt>
<pdfrwt beam="1">  1        2 0.29092684E+00 0.23118641E+04</pdfrwt>
<pdfrwt beam="2">  1       -1 0.10870615E+00 0.23118641E+04</pdfrwt>
<totfact> 0.62147327E+00</totfact>
</mgrwt>
</event>
<event>
12    6  0.1663299E-008  0.1508858E+04  0.7818608E-02  0.8878584E-01
         -1   -1    0    0    0  501 -0.00000000000E+00  0.00000000000E+00  0.69977249776E+03  0.69977249776E+03  0.00000000000E+00 0.  1.
          2   -1    0    0  501    0  0.00000000000E+00 -0.00000000000E+00 -0.81335412547E+03  0.81335412547E+03  0.00000000000E+00 0. -1.
         24    2    1    2    0    0 -0.30079285250E+03 -0.10662990923E+03 -0.38877457547E+03  0.50932833874E+03  0.80146169307E+02 0.  0.
        254    2    1    2    0    0  0.30079285250E+03  0.10662990923E+03  0.27519294776E+03  0.10037982845E+04  0.91106177605E+03 0.  0.
         23    2    4    4    0    0 -0.13953208099E+03 -0.12412200086E+03  0.42298084794E+03  0.47637991859E+03  0.11467151515E+03 0.  0.
         23    2    4    4    0    0  0.44032493348E+03  0.23075191009E+03 -0.14778790018E+03  0.52741836590E+03  0.95897748631E+02 0.  0.
          4    1    3    3  502    0 -0.29277854889E+03 -0.11704185150E+03 -0.36649711640E+03  0.48346479708E+03  0.00000000000E+00 0. -1.
         -3    1    3    3    0  502 -0.80143036085E+01  0.10411942271E+02 -0.22277459071E+02  0.25863541653E+02  0.00000000000E+00 0.  1.
         11    1    5    5    0    0 -0.15737870477E+03 -0.10611775906E+03  0.39719764871E+03  0.44022154382E+03  0.00000000000E+00 0. -1.
        -11    1    5    5    0    0  0.17846623783E+02 -0.18004241798E+02  0.25783199232E+02  0.36158374767E+02  0.00000000000E+00 0.  1.
          1    1    6    6  503    0  0.44282705744E+03  0.21899306415E+03 -0.14167555453E+03  0.51393163718E+03  0.00000000000E+00 0. -1.
         -1    1    6    6    0  503 -0.25021239579E+01  0.11758845940E+02 -0.61123456459E+01  0.13486728715E+02  0.00000000000E+00 0.  1.
<mgrwt>
<rscale>  0 0.15088576E+04</rscale>
<asrwt>0</asrwt>
<pdfrwt beam="1">  1        2 0.12513140E+00 0.15088576E+04</pdfrwt>
<pdfrwt beam="2">  1       -1 0.10765731E+00 0.15088576E+04</pdfrwt>
<totfact> 0.29830967E+01</totfact>
</mgrwt>
</event>
<event>
11    6  0.1663299E-008  0.2458185E+04  0.7818608E-02  0.8418036E-01
         -1   -1    0    0    0  501 -0.00000000000E+00  0.00000000000E+00  0.49242027300E+03  0.49242027300E+03  0.00000000000E+00 0.  1.
          2   -1    0    0  501    0  0.00000000000E+00 -0.00000000000E+00 -0.30678434545E+04  0.30678434545E+04  0.00000000000E+00 0. -1.
         24    2    1    2    0    0  0.49660309540E+03 -0.64706660587E+03 -0.13287287883E+03  0.83033912467E+03  0.80610379230E+02 0.  0.
        254    2    1    2    0    0 -0.49660309540E+03  0.64706660587E+03 -0.24425503027E+04  0.27299246028E+04  0.90616032203E+03 0.  0.
         23    2    4    4    0    0  0.17631502731E+03 -0.63703708714E+02 -0.27513307048E+03  0.34523506479E+03  0.91344907514E+02 0.  0.
          2    1    3    3  502    0  0.24529417307E+02 -0.97939888380E+01 -0.14942803347E+01  0.26454629169E+02  0.00000000000E+00 0. -1.
         -1    1    3    3    0  502  0.47207367809E+03 -0.63727261703E+03 -0.13137859849E+03  0.80388449550E+03  0.00000000000E+00 0.  1.
         11    1    4    4    0    0 -0.42402999454E+03  0.55662469269E+03 -0.14570804452E+04  0.16163897762E+04  0.00000000000E+00 0. -1.
        -11    1    4    4    0    0 -0.24888812818E+03  0.15414562189E+03 -0.71033678694E+03  0.76829976180E+03  0.00000000000E+00 0.  1.
          2    1    5    5  503    0 -0.20876002881E+01 -0.23372584389E+02 -0.49494118424E+02  0.54775026559E+02  0.00000000000E+00 0.  1.
         -2    1    5    5    0  503  0.17840262760E+03 -0.40331124325E+02 -0.22563895206E+03  0.29046003823E+03  0.00000000000E+00 0. -1.
<mgrwt>
<rscale>  0 0.24581849E+04</rscale>
<asrwt>0</asrwt>
<pdfrwt beam="1">  1        2 0.47197591E+00 0.24581849E+04</pdfrwt>
<pdfrwt beam="2">  1       -1 0.75756966E-01 0.24581849E+04</pdfrwt>
<totfact> 0.28122308E+00</totfact>
</mgrwt>
</event>
<event>
11    6  0.1663299E-008  0.2269106E+04  0.7818608E-02  0.8490203E-01
         -1   -1    0    0    0  501 -0.00000000000E+00  0.00000000000E+00  0.95759206309E+03  0.95759206309E+03  0.00000000000E+00 0.  1.
          2   -1    0    0  501    0  0.00000000000E+00 -0.00000000000E+00 -0.13442153654E+04  0.13442153654E+04  0.00000000000E+00 0. -1.
         24    2    1    2    0    0  0.63040963476E+03 -0.85145505341E+02  0.56341455722E+03  0.85361448315E+03  0.80967017241E+02 0.  0.
        254    2    1    2    0    0 -0.63040963476E+03  0.85145505341E+02 -0.95003785953E+03  0.14481929453E+04  0.88883339704E+03 0.  0.
         23    2    4    4    0    0  0.75521723780E+02  0.26749003781E+03 -0.31201509538E+03  0.42804251053E+03  0.92803663649E+02 0.  0.
          4    1    3    3  502    0  0.32022921103E+02  0.38565636291E+01  0.53223470343E+02  0.62234061047E+02  0.00000000000E+00 0. -1.
         -3    1    3    3    0  502  0.59838671366E+03 -0.89002068970E+02  0.51019108688E+03  0.79138042211E+03  0.00000000000E+00 0.  1.
         11    1    4    4    0    0 -0.58741990137E+03 -0.21661727527E+03 -0.37543147772E+03  0.73002327287E+03  0.00000000000E+00 0. -1.
        -11    1    4    4    0    0 -0.11851145717E+03  0.34272742793E+02 -0.26259128643E+03  0.29012716193E+03  0.00000000000E+00 0.  1.
          4    1    5    5  503    0  0.30124188200E+02  0.23060740489E+03 -0.26800230520E+03  0.35484148221E+03  0.00000000000E+00 0. -1.
         -4    1    5    5    0  503  0.45397535580E+02  0.36882632922E+02 -0.44012790181E+02  0.73201028323E+02  0.00000000000E+00 0.  1.
<mgrwt>
<rscale>  0 0.22691055E+04</rscale>
<asrwt>0</asrwt>
<pdfrwt beam="1">  1        2 0.20680236E+00 0.22691055E+04</pdfrwt>
<pdfrwt beam="2">  1       -1 0.14732186E+00 0.22691055E+04</pdfrwt>
<totfact> 0.59105609E+00</totfact>
</mgrwt>
</event>
<event>
11    6  0.1663299E-008  0.1234039E+04  0.7818608E-02  0.9083573E-01
         -1   -1    0    0    0  501 -0.00000000000E+00  0.00000000000E+00  0.50633301530E+03  0.50633301530E+03  0.00000000000E+00 0.  1.
          2   -1    0    0  501    0  0.00000000000E+00 -0.00000000000E+00 -0.75190282558E+03  0.75190282558E+03  0.00000000000E+00 0. -1.
         24    2    1    2    0    0 -0.17777197380E+03 -0.78961817755E+02 -0.27815074332E+03  0.34856104030E+03  0.79303968833E+02 0.  0.
        254    2    1    2    0    0  0.17777197380E+03  0.78961817755E+02  0.32580933036E+02  0.90967480059E+03  0.88803653207E+03 0.  0.
         23    2    4    4    0    0 -0.29032565747E+03  0.61275748570E+02  0.29675869523E+02  0.31193310569E+03  0.91530871531E+02 0.  0.
          4    1    3    3  502    0 -0.17198944673E+03 -0.79652859759E+02 -0.28325298523E+03  0.34081842892E+03  0.00000000000E+00 0. -1.
         -3    1    3    3    0  502 -0.57825270700E+01  0.69104200326E+00  0.51022419095E+01  0.77426113727E+01  0.00000000000E+00 0.  1.
         11    1    4    4    0    0  0.74118377935E+02 -0.10882987240E+03 -0.10692619018E+03  0.16961923600E+03  0.00000000000E+00 0.  1.
        -11    1    4    4    0    0  0.39397925333E+03  0.12651594159E+03  0.10983125369E+03  0.42812245890E+03  0.00000000000E+00 0. -1.
          3    1    5    5  503    0 -0.14650546508E+03  0.60324047656E+02 -0.20168804771E+02  0.15971732126E+03  0.00000000000E+00 0. -1.
         -3    1    5    5    0  503 -0.14382019239E+03  0.95170091357E+00  0.49844674295E+02  0.15221578443E+03  0.00000000000E+00 0.  1.
<mgrwt>
<rscale>  0 0.12340393E+04</rscale>
<asrwt>0</asrwt>
<pdfrwt beam="1">  1        2 0.11567736E+00 0.12340393E+04</pdfrwt>
<pdfrwt beam="2">  1       -1 0.77897387E-01 0.12340393E+04</pdfrwt>
<totfact> 0.69395789E+01</totfact>
</mgrwt>
</event>
<event>
11    6  0.1663299E-008  0.3584544E+04  0.7818608E-02  0.8094041E-01
          2   -1    0    0  501    0  0.00000000000E+00  0.00000000000E+00  0.18250287852E+04  0.18250287852E+04  0.00000000000E+00 0. -1.
         -1   -1    0    0    0  501 -0.00000000000E+00 -0.00000000000E+00 -0.17601036361E+04  0.17601036361E+04  0.00000000000E+00 0.  1.
         24    2    1    2    0    0 -0.12512135860E+03  0.56387886999E+03  0.16097486696E+04  0.17120387033E+04  0.78555764847E+02 0.  0.
        254    2    1    2    0    0  0.12512135860E+03 -0.56387886999E+03 -0.15448235205E+04  0.18730937179E+04  0.88791082449E+03 0.  0.
         23    2    4    4    0    0  0.20066473395E+03 -0.65253923339E+03 -0.61511953444E+03  0.92354357474E+03  0.92124406259E+02 0.  0.
          4    1    3    3  502    0 -0.71373505208E+02  0.27313934352E+03  0.89771279083E+03  0.94105660459E+03  0.00000000000E+00 0. -1.
         -3    1    3    3    0  502 -0.53747853387E+02  0.29073952647E+03  0.71203587873E+03  0.77098209875E+03  0.00000000000E+00 0.  1.
         11    1    4    4    0    0 -0.88329500233E+02  0.96918901368E+02 -0.42851289263E+03  0.44812796521E+03  0.00000000000E+00 0. -1.
        -11    1    4    4    0    0  0.12786124877E+02 -0.82585379677E+01 -0.50119109339E+03  0.50142217794E+03  0.00000000000E+00 0.  1.
          1    1    5    5  503    0  0.16231065887E+03 -0.43826608819E+03 -0.46383764900E+03  0.65845825887E+03  0.00000000000E+00 0. -1.
         -1    1    5    5    0  503  0.38354075077E+02 -0.21427314520E+03 -0.15128188544E+03  0.26508531587E+03  0.00000000000E+00 0.  1.
<mgrwt>
<rscale>  0 0.35845445E+04</rscale>
<asrwt>0</asrwt>
<pdfrwt beam="1">  1        2 0.28077366E+00 0.35845445E+04</pdfrwt>
<pdfrwt beam="2">  1       -1 0.27078518E+00 0.35845445E+04</pdfrwt>
<totfact> 0.39628241E-01</totfact>
</mgrwt>
</event>
<event>
12    6  0.1663299E-008  0.1508961E+04  0.7818608E-02  0.8878516E-01
          2   -1    0    0  501    0  0.00000000000E+00  0.00000000000E+00  0.71537291930E+03  0.71537291930E+03  0.00000000000E+00 0. -1.
         -1   -1    0    0    0  501 -0.00000000000E+00 -0.00000000000E+00 -0.79572574720E+03  0.79572574720E+03  0.00000000000E+00 0.  1.
         24    2    1    2    0    0  0.37334573383E+02  0.35167326764E+03 -0.35755324272E+03  0.50927333212E+03  0.80293510897E+02 0.  0.
        254    2    1    2    0    0 -0.37334573383E+02 -0.35167326764E+03  0.27720041482E+03  0.10018253344E+04  0.89540268767E+03 0.  0.
         23    2    4    4    0    0  0.89955786392E+01 -0.50343834366E+03 -0.15067050617E+03  0.53693579392E+03  0.10985153193E+03 0.  0.
         23    2    4    4    0    0 -0.46330152023E+02  0.15176507602E+03  0.42787092099E+03  0.46488954045E+03  0.88710982993E+02 0.  0.
          2    1    3    3  502    0  0.18744341581E+02  0.66903953008E+02 -0.32443182224E+02  0.76681479786E+02  0.00000000000E+00 0. -1.
         -1    1    3    3    0  502  0.18590231803E+02  0.28476931463E+03 -0.32511006049E+03  0.43259185234E+03  0.00000000000E+00 0.  1.
         11    1    5    5    0    0  0.74490887337E+00 -0.49653415654E+03 -0.12943065609E+03  0.51312670778E+03  0.00000000000E+00 0.  1.
        -11    1    5    5    0    0  0.82506697658E+01 -0.69041871141E+01 -0.21239850087E+02  0.23809086144E+02  0.00000000000E+00 0. -1.
          3    1    6    6  503    0 -0.77811251640E+01 -0.39280671081E+01  0.87228832758E+00  0.87599376111E+01  0.00000000000E+00 0. -1.
         -3    1    6    6    0  503 -0.38549026859E+02  0.15569314313E+03  0.42699863267E+03  0.45612960284E+03  0.00000000000E+00 0.  1.
<mgrwt>
<rscale>  0 0.15089608E+04</rscale>
<asrwt>0</asrwt>
<pdfrwt beam="1">  1        2 0.11005737E+00 0.15089608E+04</pdfrwt>
<pdfrwt beam="2">  1       -1 0.12241935E+00 0.15089608E+04</pdfrwt>
<totfact> 0.25910309E+01</totfact>
</mgrwt>
</event>
<event>
11    6  0.1663299E-008  0.2633567E+04  0.7818608E-02  0.8356888E-01
          2   -1    0    0  501    0  0.00000000000E+00  0.00000000000E+00  0.20041670251E+04  0.20041670251E+04  0.00000000000E+00 0. -1.
         -1   -1    0    0    0  501 -0.00000000000E+00 -0.00000000000E+00 -0.86515696515E+03  0.86515696515E+03  0.00000000000E+00 0.  1.
         24    2    1    2    0    0 -0.23770599167E+03  0.11007287041E+04  0.85399180269E+03  0.14154584601E+04  0.78184618532E+02 0.  0.
        254    2    1    2    0    0  0.23770599167E+03 -0.11007287041E+04  0.28501825723E+03  0.14538655301E+04  0.87428928521E+03 0.  0.
         23    2    4    4    0    0 -0.18135886762E+03 -0.55408229741E+02 -0.10420617795E+03  0.23515211200E+03  0.92067787352E+02 0.  0.
          2    1    3    3  502    0 -0.36624154234E+02  0.19277573099E+03  0.18683756954E+03  0.27094665254E+03  0.00000000000E+00 0. -1.
         -1    1    3    3    0  502 -0.20108183744E+03  0.90795297313E+03  0.66715423315E+03  0.11445118075E+04  0.00000000000E+00 0.  1.
         11    1    4    4    0    0  0.29507895507E+03 -0.56995461692E+03  0.10264345909E+03  0.64996579507E+03  0.00000000000E+00 0.  1.
        -11    1    4    4    0    0  0.12398590423E+03 -0.47536585746E+03  0.28658097609E+03  0.56874762307E+03  0.00000000000E+00 0. -1.
          1    1    5    5  503    0 -0.85954180820E+02 -0.10977199220E+02 -0.96398073023E+02  0.12961947610E+03  0.00000000000E+00 0. -1.
         -1    1    5    5    0  503 -0.95404686802E+02 -0.44431030521E+02 -0.78081049276E+01  0.10553263590E+03  0.00000000000E+00 0.  1.
<mgrwt>
<rscale>  0 0.26335672E+04</rscale>
<asrwt>0</asrwt>
<pdfrwt beam="1">  1        2 0.30833339E+00 0.26335672E+04</pdfrwt>
<pdfrwt beam="2">  1       -1 0.13310107E+00 0.26335672E+04</pdfrwt>
<totfact> 0.31856808E+00</totfact>
</mgrwt>
</event>
<event>
12    6  0.1663299E-008  0.1988882E+04  0.7818608E-02  0.8611836E-01
         -1   -1    0    0    0  501 -0.00000000000E+00  0.00000000000E+00  0.41348463218E+03  0.41348463218E+03  0.00000000000E+00 0.  1.
          2   -1    0    0  501    0  0.00000000000E+00 -0.00000000000E+00 -0.23916562929E+04  0.23916562929E+04  0.00000000000E+00 0. -1.
         24    2    1    2    0    0  0.58336903187E+03 -0.43074278982E+03 -0.12158190655E+04  0.14180285241E+04  0.82037288027E+02 0.  0.
        254    2    1    2    0    0 -0.58336903187E+03  0.43074278982E+03 -0.76235259519E+03  0.13871124010E+04  0.90390295682E+03 0.  0.
         23    2    4    4    0    0 -0.26906010359E+03  0.65963020019E+02  0.16472685792E+03  0.33861860096E+03  0.10384199462E+03 0.  0.
         23    2    4    4    0    0 -0.31430892828E+03  0.36477976980E+03 -0.92707945310E+03  0.10484938001E+04  0.89490522026E+02 0.  0.
          4    1    3    3  502    0  0.57806310484E+03 -0.41806041385E+03 -0.11714468427E+04  0.13715754329E+04  0.00000000000E+00 0. -1.
         -3    1    3    3    0  502  0.53059270355E+01 -0.12682375978E+02 -0.44372222837E+02  0.46453091196E+02  0.00000000000E+00 0.  1.
         11    1    5    5    0    0 -0.14661255472E+03  0.56535254016E+01  0.13401078033E+03  0.19871107870E+03  0.00000000000E+00 0. -1.
        -11    1    5    5    0    0 -0.12244754887E+03  0.60309494618E+02  0.30716077583E+02  0.13990752227E+03  0.00000000000E+00 0.  1.
          1    1    6    6  503    0 -0.41642099783E+02  0.44572937987E+02 -0.64089667883E+02  0.88477662743E+02  0.00000000000E+00 0. -1.
         -1    1    6    6    0  503 -0.27266682850E+03  0.32020683182E+03 -0.86298978522E+03  0.96001613731E+03  0.00000000000E+00 0.  1.
<mgrwt>
<rscale>  0 0.19888822E+04</rscale>
<asrwt>0</asrwt>
<pdfrwt beam="1">  1        2 0.36794713E+00 0.19888822E+04</pdfrwt>
<pdfrwt beam="2">  1       -1 0.63613019E-01 0.19888822E+04</pdfrwt>
<totfact> 0.10667666E+01</totfact>
</mgrwt>
</event>
<event>
11    6  0.1663299E-008  0.1362381E+04  0.7818608E-02  0.8981508E-01
          2   -1    0    0  501    0  0.00000000000E+00  0.00000000000E+00  0.68176845174E+03  0.68176845174E+03  0.00000000000E+00 0. -1.
         -1   -1    0    0    0  501 -0.00000000000E+00 -0.00000000000E+00 -0.68061347396E+03  0.68061347396E+03  0.00000000000E+00 0.  1.
         24    2    1    2    0    0  0.30337063073E+03 -0.13297684480E+03 -0.14309054345E+03  0.37008476870E+03  0.82287614822E+02 0.  0.
        254    2    1    2    0    0 -0.30337063073E+03  0.13297684480E+03  0.14424552123E+03  0.99229715701E+03  0.92419169904E+03 0.  0.
         23    2    4    4    0    0 -0.27318668236E+03 -0.17482578524E+03 -0.28180904802E+03  0.43962121603E+03  0.93034700177E+02 0.  0.
          4    1    3    3  502    0  0.16023536380E+03 -0.94827034424E+02 -0.42364056023E+02  0.19095091388E+03  0.00000000000E+00 0. -1.
         -3    1    3    3    0  502  0.14313526694E+03 -0.38149810372E+02 -0.10072648743E+03  0.17913385482E+03  0.00000000000E+00 0.  1.
         11    1    4    4    0    0 -0.19261629027E+02  0.31871822500E+03  0.43106525921E+03  0.53644158582E+03  0.00000000000E+00 0. -1.
        -11    1    4    4    0    0 -0.10922319351E+02 -0.10915594962E+02 -0.50106899607E+01  0.16234355153E+02  0.00000000000E+00 0.  1.
          2    1    5    5  503    0 -0.15093825731E+03 -0.11021507316E+03 -0.21855059274E+03  0.28756578631E+03  0.00000000000E+00 0. -1.
         -2    1    5    5    0  503 -0.12224842505E+03 -0.64610712085E+02 -0.63258455280E+02  0.15205542972E+03  0.00000000000E+00 0.  1.
<mgrwt>
<rscale>  0 0.13623814E+04</rscale>
<asrwt>0</asrwt>
<pdfrwt beam="1">  1        2 0.10488745E+00 0.13623814E+04</pdfrwt>
<pdfrwt beam="2">  1       -1 0.10470977E+00 0.13623814E+04</pdfrwt>
<totfact> 0.40485185E+01</totfact>
</mgrwt>
</event>
<event>
11    6  0.1663299E-008  0.1472712E+04  0.7818608E-02  0.8902804E-01
          2   -1    0    0  501    0  0.00000000000E+00  0.00000000000E+00  0.16323315479E+04  0.16323315479E+04  0.00000000000E+00 0. -1.
         -1   -1    0    0    0  501 -0.00000000000E+00 -0.00000000000E+00 -0.33217536768E+03  0.33217536768E+03  0.00000000000E+00 0.  1.
         24    2    1    2    0    0  0.20422364836E+03 -0.31546706166E+03  0.76623102517E+03  0.85727640595E+03  0.81154708559E+02 0.  0.
        254    2    1    2    0    0 -0.20422364836E+03  0.31546706166E+03  0.53392515504E+03  0.11072305096E+04  0.89423518423E+03 0.  0.
         23    2    4    4    0    0 -0.43955810172E+03  0.18391295847E+03 -0.10281821370E+02  0.48512250312E+03  0.90569454531E+02 0.  0.
          4    1    3    3  502    0  0.14962322776E+03 -0.28443534263E+03  0.62865499514E+03  0.70604367948E+03  0.00000000000E+00 0. -1.
         -3    1    3    3    0  502  0.54600420595E+02 -0.31031719027E+02  0.13757603003E+03  0.15123272647E+03  0.00000000000E+00 0.  1.
         11    1    4    4    0    0  0.14170249534E+03  0.12433668236E+03  0.45531457569E+03  0.49279871205E+03  0.00000000000E+00 0.  1.
        -11    1    4    4    0    0  0.93631958025E+02  0.72174208307E+01  0.88892400723E+02  0.12930929446E+03  0.00000000000E+00 0. -1.
          3    1    5    5  503    0 -0.25420491931E+03  0.15261483731E+03  0.48407245298E+01  0.29653812939E+03  0.00000000000E+00 0. -1.
         -3    1    5    5    0  503 -0.18535318241E+03  0.31298121162E+02 -0.15122545900E+02  0.18858437372E+03  0.00000000000E+00 0.  1.
<mgrwt>
<rscale>  0 0.14727122E+04</rscale>
<asrwt>0</asrwt>
<pdfrwt beam="1">  1        2 0.25112793E+00 0.14727122E+04</pdfrwt>
<pdfrwt beam="2">  1       -1 0.51103904E-01 0.14727122E+04</pdfrwt>
<totfact> 0.45422092E+01</totfact>
</mgrwt>
</event>
<event>
12    6  0.1663299E-008  0.1029724E+04  0.7818608E-02  0.9276532E-01
         -1   -1    0    0    0  501 -0.00000000000E+00  0.00000000000E+00  0.14328664025E+03  0.14328664025E+03  0.00000000000E+00 0.  1.
          2   -1    0    0  501    0  0.00000000000E+00 -0.00000000000E+00 -0.18500168720E+04  0.18500168720E+04  0.00000000000E+00 0. -1.
         24    2    1    2    0    0 -0.30443422146E+02  0.18896778247E+02 -0.49349784444E+02  0.10047170346E+03  0.79845299119E+02 0.  0.
        254    2    1    2    0    0  0.30443422146E+02 -0.18896778247E+02 -0.16573804473E+04  0.18928318088E+04  0.91357452847E+03 0.  0.
         23    2    4    4    0    0  0.40095424101E+02 -0.31966585018E+03 -0.15107845748E+04  0.15486143725E+04  0.10928195020E+03 0.  0.
         23    2    4    4    0    0 -0.96520019553E+01  0.30076907194E+03 -0.14659587253E+03  0.34421743625E+03  0.80250219931E+02 0.  0.
          4    1    3    3  502    0  0.25958811605E+02  0.85855967559E+00 -0.49060695126E+01  0.26432301124E+02  0.00000000000E+00 0. -1.
         -3    1    3    3    0  502 -0.56402233751E+02  0.18038218572E+02 -0.44443714931E+02  0.74039402336E+02  0.00000000000E+00 0.  1.
         11    1    5    5    0    0  0.17066872514E+02  0.10744604820E+01 -0.11516500627E+03  0.11642770835E+03  0.00000000000E+00 0. -1.
        -11    1    5    5    0    0  0.23028551587E+02 -0.32074031067E+03 -0.13956195685E+04  0.14321866642E+04  0.00000000000E+00 0.  1.
          4    1    6    6  503    0  0.13529852704E+02  0.10361662111E+02 -0.20793187095E+02  0.26884523159E+02  0.00000000000E+00 0. -1.
         -4    1    6    6    0  503 -0.23181854660E+02  0.29040740983E+03 -0.12580268543E+03  0.31733291309E+03  0.00000000000E+00 0.  1.
<mgrwt>
<rscale>  0 0.10297237E+04</rscale>
<asrwt>0</asrwt>
<pdfrwt beam="1">  1        2 0.28461798E+00 0.10297237E+04</pdfrwt>
<pdfrwt beam="2">  1       -1 0.22044099E-01 0.10297237E+04</pdfrwt>
<totfact> 0.15982211E+02</totfact>
</mgrwt>
</event>
<event>
12    6  0.1663299E-008  0.2956208E+04  0.7818608E-02  0.8256348E-01
          2   -1    0    0  501    0  0.00000000000E+00  0.00000000000E+00  0.13190848541E+04  0.13190848541E+04  0.00000000000E+00 0. -1.
         -1   -1    0    0    0  501 -0.00000000000E+00 -0.00000000000E+00 -0.16562935122E+04  0.16562935122E+04  0.00000000000E+00 0.  1.
         24    2    1    2    0    0  0.91962513525E+03  0.87485169887E+03  0.28249684378E+03  0.13027607001E+04  0.79404600229E+02 0.  0.
        254    2    1    2    0    0 -0.91962513525E+03 -0.87485169887E+03 -0.61970550194E+03  0.16726176662E+04  0.89584544638E+03 0.  0.
         23    2    4    4    0    0 -0.52905578804E+03 -0.97527962930E+03 -0.57349791305E+03  0.12541730065E+04  0.11392845019E+03 0.  0.
         23    2    4    4    0    0 -0.39056934721E+03  0.10042793043E+03 -0.46207588889E+02  0.41844465972E+03  0.10163959753E+03 0.  0.
          4    1    3    3  502    0  0.96901684403E+02  0.10034929787E+03  0.56226618304E+02  0.15040395816E+03  0.00000000000E+00 0. -1.
         -1    1    3    3    0  502  0.82272345085E+03  0.77450240100E+03  0.22627022547E+03  0.11523567419E+04  0.00000000000E+00 0.  1.
         11    1    5    5    0    0 -0.28656998749E+02 -0.50938430750E+02 -0.36921366275E+01  0.58562609039E+02  0.00000000000E+00 0. -1.
        -11    1    5    5    0    0 -0.50039878929E+03 -0.92434119855E+03 -0.56980577642E+03  0.11956103975E+04  0.00000000000E+00 0.  1.
          2    1    6    6  503    0 -0.64952758867E+01  0.12164062402E+02 -0.18924839999E+02  0.23415861973E+02  0.00000000000E+00 0. -1.
         -2    1    6    6    0  503 -0.38407407133E+03  0.88263868026E+02 -0.27282748890E+02  0.39502879775E+03  0.00000000000E+00 0.  1.
<mgrwt>
<rscale>  0 0.29562082E+04</rscale>
<asrwt>0</asrwt>
<pdfrwt beam="1">  1        2 0.20293613E+00 0.29562082E+04</pdfrwt>
<pdfrwt beam="2">  1       -1 0.25481439E+00 0.29562082E+04</pdfrwt>
<totfact> 0.10225466E+00</totfact>
</mgrwt>
</event>
<event>
12    6  0.1663299E-008  0.1944212E+04  0.7818608E-02  0.8633157E-01
         -1   -1    0    0    0  501 -0.00000000000E+00  0.00000000000E+00  0.15303705818E+04  0.15303705818E+04  0.00000000000E+00 0.  1.
          2   -1    0    0  501    0  0.00000000000E+00 -0.00000000000E+00 -0.61749093870E+03  0.61749093870E+03  0.00000000000E+00 0. -1.
         24    2    1    2    0    0  0.62546738971E+03  0.31463136860E+03  0.31451463536E+02  0.70545231491E+03  0.80445138805E+02 0.  0.
        254    2    1    2    0    0 -0.62546738971E+03 -0.31463136860E+03  0.88142817961E+03  0.14424092056E+04  0.90190150624E+03 0.  0.
         23    2    4    4    0    0 -0.58647409566E+03 -0.59866104322E+03  0.64317423703E+03  0.10592208476E+04  0.76998670039E+02 0.  0.
         23    2    4    4    0    0 -0.38993294050E+02  0.28402967462E+03  0.23825394258E+03  0.38318835806E+03  0.88741442115E+02 0.  0.
          2    1    3    3  502    0  0.61318516236E+03  0.30836080491E+03  0.18606719535E+02  0.68660661179E+03  0.00000000000E+00 0. -1.
         -1    1    3    3    0  502  0.12282227351E+02  0.62705636913E+01  0.12844744001E+02  0.18845703121E+02  0.00000000000E+00 0.  1.
         11    1    5    5    0    0 -0.18676130337E+03 -0.23985634003E+03  0.24950563151E+03  0.39327332537E+03  0.00000000000E+00 0. -1.
        -11    1    5    5    0    0 -0.39971279229E+03 -0.35880470319E+03  0.39366860552E+03  0.66594752220E+03  0.00000000000E+00 0.  1.
          2    1    6    6  503    0  0.13375656462E+02  0.20269195378E+03  0.16852774343E+03  0.26394040354E+03  0.00000000000E+00 0.  1.
         -2    1    6    6    0  503 -0.52368950512E+02  0.81337720839E+02  0.69726199147E+02  0.11924795452E+03  0.00000000000E+00 0. -1.
<mgrwt>
<rscale>  0 0.19442119E+04</rscale>
<asrwt>0</asrwt>
<pdfrwt beam="1">  1        2 0.94998606E-01 0.19442119E+04</pdfrwt>
<pdfrwt beam="2">  1       -1 0.23544163E+00 0.19442119E+04</pdfrwt>
<totfact> 0.44339816E+00</totfact>
</mgrwt>
</event>
<event>
12    6  0.1663299E-008  0.1124113E+04  0.7818608E-02  0.9182003E-01
         -1   -1    0    0    0  501 -0.00000000000E+00  0.00000000000E+00  0.30638358972E+03  0.30638358972E+03  0.00000000000E+00 0.  1.
          2   -1    0    0  501    0  0.00000000000E+00 -0.00000000000E+00 -0.10310852724E+04  0.10310852724E+04  0.00000000000E+00 0. -1.
         24    2    1    2    0    0 -0.12573444042E+03  0.12634683397E+03 -0.46907198865E+02  0.20095258432E+03  0.80056129545E+02 0.  0.
        254    2    1    2    0    0  0.12573444042E+03 -0.12634683397E+03 -0.67779448384E+03  0.11365162778E+04  0.89470174666E+03 0.  0.
         23    2    4    4    0    0 -0.32661272513E+02 -0.16766081364E+03 -0.85414855360E+03  0.87933337744E+03  0.12033507354E+03 0.  0.
         23    2    4    4    0    0  0.15839571294E+03  0.41313979670E+02  0.17635406976E+03  0.25718290038E+03  0.90808807586E+02 0.  0.
          4    1    3    3  502    0 -0.29638698536E+02  0.82786630301E+02 -0.35507831795E+02  0.94830821605E+02  0.00000000000E+00 0. -1.
         -3    1    3    3    0  502 -0.96095741886E+02  0.43560203666E+02 -0.11399367070E+02  0.10612176271E+03  0.00000000000E+00 0.  1.
         11    1    5    5    0    0  0.23572043183E+01 -0.16650621264E+03 -0.59629833551E+03  0.61911354386E+03  0.00000000000E+00 0.  1.
        -11    1    5    5    0    0 -0.35018476831E+02 -0.11546010000E+01 -0.25785021809E+03  0.26021983359E+03  0.00000000000E+00 0. -1.
          2    1    6    6  503    0  0.15226330925E+03  0.11719649452E+02  0.16518731836E+03  0.22496292067E+03  0.00000000000E+00 0. -1.
         -2    1    6    6    0  503  0.61324036828E+01  0.29594330217E+02  0.11166751399E+02  0.32219979714E+02  0.00000000000E+00 0.  1.
<mgrwt>
<rscale>  0 0.11241132E+04</rscale>
<asrwt>0</asrwt>
<pdfrwt beam="1">  1        2 0.15862850E+00 0.11241132E+04</pdfrwt>
<pdfrwt beam="2">  1       -1 0.47135937E-01 0.11241132E+04</pdfrwt>
<totfact> 0.12207024E+02</totfact>
</mgrwt>
</event>
<event>
12    6  0.1663299E-008  0.2959850E+04  0.7818608E-02  0.8255290E-01
         -1   -1    0    0    0  501 -0.00000000000E+00  0.00000000000E+00  0.84953183085E+03  0.84953183085E+03  0.00000000000E+00 0.  1.
          2   -1    0    0  501    0  0.00000000000E+00 -0.00000000000E+00 -0.25780995321E+04  0.25780995321E+04  0.00000000000E+00 0. -1.
         24    2    1    2    0    0 -0.22759062327E+03  0.13012675435E+04 -0.10665024624E+04  0.17000179534E+04  0.86826425245E+02 0.  0.
        254    2    1    2    0    0  0.22759062327E+03 -0.13012675435E+04 -0.66206523881E+03  0.17276134095E+04  0.89511060807E+03 0.  0.
         23    2    4    4    0    0  0.38951245484E+03 -0.91894983616E+03 -0.79977535416E+03  0.12814133600E+04  0.78681816308E+02 0.  0.
         23    2    4    4    0    0 -0.16192183158E+03 -0.38231770733E+03  0.13771011534E+03  0.44620004949E+03  0.88005110199E+02 0.  0.
          2    1    3    3  502    0 -0.13652874543E+03  0.99357956428E+03 -0.81568166558E+03  0.12927401241E+04  0.00000000000E+00 0. -1.
         -1    1    3    3    0  502 -0.91061877836E+02  0.30768797921E+03 -0.25082079683E+03  0.40727782933E+03  0.00000000000E+00 0.  1.
         11    1    5    5    0    0  0.32947252042E+03 -0.70091472337E+03 -0.63653468093E+03  0.10025018659E+04  0.00000000000E+00 0. -1.
        -11    1    5    5    0    0  0.60039934423E+02 -0.21803511278E+03 -0.16324067322E+03  0.27891149407E+03  0.00000000000E+00 0.  1.
          1    1    6    6  503    0 -0.16252214566E+03 -0.29296266147E+03  0.10629089823E+03  0.35148018990E+03  0.00000000000E+00 0. -1.
         -1    1    6    6    0  503  0.60031408208E+00 -0.89355045859E+02  0.31419217108E+02  0.94719859592E+02  0.00000000000E+00 0.  1.
<mgrwt>
<rscale>  0 0.29598497E+04</rscale>
<asrwt>0</asrwt>
<pdfrwt beam="1">  1        2 0.39663070E+00 0.29598497E+04</pdfrwt>
<pdfrwt beam="2">  1       -1 0.13069720E+00 0.29598497E+04</pdfrwt>
<totfact> 0.15304550E+00</totfact>
</mgrwt>
</event>
<event>
12    6  0.1663299E-008  0.1212815E+04  0.7818608E-02  0.9101713E-01
          2   -1    0    0  501    0  0.00000000000E+00  0.00000000000E+00  0.10178186345E+04  0.10178186345E+04  0.00000000000E+00 0. -1.
         -1   -1    0    0    0  501 -0.00000000000E+00 -0.00000000000E+00 -0.36129235743E+03  0.36129235743E+03  0.00000000000E+00 0.  1.
         24    2    1    2    0    0  0.13114097587E+03 -0.47746781883E+01  0.41597099064E+03  0.44352835480E+03  0.80403876497E+02 0.  0.
        254    2    1    2    0    0 -0.13114097587E+03  0.47746781883E+01  0.24055528640E+03  0.93558263711E+03  0.89455423085E+03 0.  0.
         23    2    4    4    0    0 -0.37387575200E+03  0.79693863118E+02 -0.17730577097E+03  0.43733214968E+03  0.11699522628E+03 0.  0.
         23    2    4    4    0    0  0.24273477613E+03 -0.74919184930E+02  0.41786105737E+03  0.49825048743E+03  0.95460091900E+02 0.  0.
          4    1    3    3  502    0  0.13719615426E+03  0.81361053172E+01  0.39448420206E+03  0.41774007065E+03  0.00000000000E+00 0. -1.
         -3    1    3    3    0  502 -0.60551783866E+01 -0.12910783506E+02  0.21486788585E+02  0.25788284156E+02  0.00000000000E+00 0.  1.
         11    1    5    5    0    0 -0.33956278358E+03  0.32259131887E+02 -0.15540353698E+03  0.37482501902E+03  0.00000000000E+00 0. -1.
        -11    1    5    5    0    0 -0.34312968421E+02  0.47434731232E+02 -0.21902233990E+02  0.62507130654E+02  0.00000000000E+00 0.  1.
          1    1    6    6  503    0  0.16155494541E+03 -0.11349001584E+01  0.25603522028E+03  0.30274630041E+03  0.00000000000E+00 0. -1.
         -1    1    6    6    0  503  0.81179830718E+02 -0.73784284772E+02  0.16182583708E+03  0.19550418702E+03  0.00000000000E+00 0.  1.
<mgrwt>
<rscale>  0 0.12128151E+04</rscale>
<asrwt>0</asrwt>
<pdfrwt beam="1">  1        2 0.15658748E+00 0.12128151E+04</pdfrwt>
<pdfrwt beam="2">  1       -1 0.55583440E-01 0.12128151E+04</pdfrwt>
<totfact> 0.90300400E+01</totfact>
</mgrwt>
</event>
<event>
12    6  0.1663299E-008  0.2051494E+04  0.7818608E-02  0.8582917E-01
         -1   -1    0    0    0  501 -0.00000000000E+00  0.00000000000E+00  0.68567502159E+03  0.68567502159E+03  0.00000000000E+00 0.  1.
          2   -1    0    0  501    0  0.00000000000E+00 -0.00000000000E+00 -0.15344827086E+04  0.15344827086E+04  0.00000000000E+00 0. -1.
         24    2    1    2    0    0  0.57935160779E+03  0.52108523848E+03 -0.64496735621E+03  0.10146896959E+04  0.80213322864E+02 0.  0.
        254    2    1    2    0    0 -0.57935160779E+03 -0.52108523848E+03 -0.20384033080E+03  0.12054680343E+04  0.89689697850E+03 0.  0.
         23    2    4    4    0    0 -0.72203935016E+03 -0.12388422776E+03 -0.36695980678E+02  0.74255084307E+03  0.11552936630E+03 0.  0.
         23    2    4    4    0    0  0.14268774237E+03 -0.39720101072E+03 -0.16714435013E+03  0.46291719123E+03  0.90700922901E+02 0.  0.
          4    1    3    3  502    0  0.52258936439E+03  0.47955574643E+03 -0.55568455318E+03  0.90103200850E+03  0.00000000000E+00 0. -1.
         -3    1    3    3    0  502  0.56762243395E+02  0.41529492052E+02 -0.89282803026E+02  0.11365768738E+03  0.00000000000E+00 0.  1.
         11    1    5    5    0    0 -0.30323349574E+03 -0.20908436510E+02 -0.63210859239E+02  0.31045664494E+03  0.00000000000E+00 0. -1.
        -11    1    5    5    0    0 -0.41880585441E+03 -0.10297579125E+03  0.26514878562E+02  0.43209419813E+03  0.00000000000E+00 0.  1.
          1    1    6    6  503    0 -0.12615251910E+02 -0.19722412084E+02 -0.68543570956E+01  0.24394678320E+02  0.00000000000E+00 0. -1.
         -1    1    6    6    0  503  0.15530299428E+03 -0.37747859864E+03 -0.16028999303E+03  0.43852251291E+03  0.00000000000E+00 0.  1.
<mgrwt>
<rscale>  0 0.20514936E+04</rscale>
<asrwt>0</asrwt>
<pdfrwt beam="1">  1        2 0.23607426E+00 0.20514936E+04</pdfrwt>
<pdfrwt beam="2">  1       -1 0.10548847E+00 0.20514936E+04</pdfrwt>
<totfact> 0.10774668E+01</totfact>
</mgrwt>
</event>
<event>
11    6  0.1663299E-008  0.2908232E+04  0.7818608E-02  0.8270433E-01
          2   -1    0    0  501    0  0.00000000000E+00  0.00000000000E+00  0.17291657193E+04  0.17291657193E+04  0.00000000000E+00 0. -1.
         -1   -1    0    0    0  501 -0.00000000000E+00 -0.00000000000E+00 -0.12228167465E+04  0.12228167465E+04  0.00000000000E+00 0.  1.
         24    2    1    2    0    0  0.15323903514E+03  0.38424957739E+02  0.15352982461E+04  0.15454507464E+04  0.79489784425E+02 0.  0.
        254    2    1    2    0    0 -0.15323903514E+03 -0.38424957739E+02 -0.10289492733E+04  0.14065317194E+04  0.94585209804E+03 0.  0.
         23    2    4    4    0    0  0.96107594745E+02  0.27314642278E+03 -0.10337817276E+02  0.30266401846E+03  0.87481424099E+02 0.  0.
          2    1    3    3  502    0  0.66062204178E+02 -0.91212291264E+01  0.89689475027E+03  0.89937067148E+03  0.00000000000E+00 0. -1.
         -1    1    3    3    0  502  0.87176830958E+02  0.47546186866E+02  0.63840349582E+03  0.64608007493E+03  0.00000000000E+00 0.  1.
         11    1    4    4    0    0 -0.18583841457E+03 -0.12481031732E+03 -0.61862351222E+03  0.65788189025E+03  0.00000000000E+00 0.  1.
        -11    1    4    4    0    0 -0.63508215315E+02 -0.18676106319E+03 -0.39998794385E+03  0.44598581072E+03  0.00000000000E+00 0. -1.
          1    1    5    5  503    0  0.38402961272E+02  0.18459166504E+03 -0.40299640825E+02  0.19280283008E+03  0.00000000000E+00 0. -1.
         -1    1    5    5    0  503  0.57704633473E+02  0.88554757733E+02  0.29961823549E+02  0.10986118838E+03  0.00000000000E+00 0.  1.
<mgrwt>
<rscale>  0 0.29082316E+04</rscale>
<asrwt>0</asrwt>
<pdfrwt beam="1">  1        2 0.26602550E+00 0.29082316E+04</pdfrwt>
<pdfrwt beam="2">  1       -1 0.18812565E+00 0.29082316E+04</pdfrwt>
<totfact> 0.16893290E+00</totfact>
</mgrwt>
</event>
<event>
12    6  0.1663299E-008  0.2195194E+04  0.7818608E-02  0.8520431E-01
          2   -1    0    0  501    0  0.00000000000E+00  0.00000000000E+00  0.65131550107E+03  0.65131550107E+03  0.00000000000E+00 0. -1.
         -1   -1    0    0    0  501 -0.00000000000E+00 -0.00000000000E+00 -0.18496704527E+04  0.18496704527E+04  0.00000000000E+00 0.  1.
         24    2    1    2    0    0 -0.89618668351E+01  0.88666783871E+03 -0.54154735579E+03  0.10420591163E+04  0.79708794985E+02 0.  0.
        254    2    1    2    0    0  0.89618668351E+01 -0.88666783871E+03 -0.65680759588E+03  0.14589268375E+04  0.95436425332E+03 0.  0.
         23    2    4    4    0    0 -0.77596303523E+02 -0.94152328466E+03 -0.18701867411E+03  0.96897005758E+03  0.10695656193E+03 0.  0.
         23    2    4    4    0    0  0.86558170358E+02  0.54855445955E+02 -0.46978892177E+03  0.48995677995E+03  0.94098769386E+02 0.  0.
          2    1    3    3  502    0  0.28165483693E+02  0.14644314544E+03 -0.92170718808E+02  0.17531209520E+03  0.00000000000E+00 0. -1.
         -1    1    3    3    0  502 -0.37127350528E+02  0.74022469326E+03 -0.44937663699E+03  0.86674702107E+03  0.00000000000E+00 0.  1.
         11    1    5    5    0    0 -0.54405156322E+01 -0.46071317292E+03 -0.13433788526E+03  0.47993009317E+03  0.00000000000E+00 0.  1.
        -11    1    5    5    0    0 -0.72155787891E+02 -0.48081011174E+03 -0.52680788859E+02  0.48903996441E+03  0.00000000000E+00 0. -1.
          3    1    6    6  503    0  0.11976617760E+02 -0.10327009889E+02 -0.81110345659E+01  0.17772883501E+02  0.00000000000E+00 0. -1.
         -3    1    6    6    0  503  0.74581552598E+02  0.65182455844E+02 -0.46167788720E+03  0.47218389645E+03  0.00000000000E+00 0.  1.
<mgrwt>
<rscale>  0 0.21951939E+04</rscale>
<asrwt>0</asrwt>
<pdfrwt beam="1">  1        2 0.10020239E+00 0.21951939E+04</pdfrwt>
<pdfrwt beam="2">  1       -1 0.28456468E+00 0.21951939E+04</pdfrwt>
<totfact> 0.19467248E+00</totfact>
</mgrwt>
</event>
<event>
12    6  0.1663299E-008  0.1168449E+04  0.7818608E-02  0.9140931E-01
          2   -1    0    0  501    0  0.00000000000E+00  0.00000000000E+00  0.80215574670E+03  0.80215574670E+03  0.00000000000E+00 0. -1.
         -1   -1    0    0    0  501 -0.00000000000E+00 -0.00000000000E+00 -0.42550097429E+03  0.42550097429E+03  0.00000000000E+00 0.  1.
         24    2    1    2    0    0  0.11484448591E+03  0.38465338355E+02 -0.80087960553E+02  0.16583414361E+03  0.80112692879E+02 0.  0.
        254    2    1    2    0    0 -0.11484448591E+03 -0.38465338355E+02  0.45674273297E+03  0.10618225774E+04  0.95088612542E+03 0.  0.
         23    2    4    4    0    0 -0.38835381777E+02  0.44188553047E+03  0.26781108835E+03  0.53184545885E+03  0.11985743255E+03 0.  0.
         23    2    4    4    0    0 -0.76009104137E+02 -0.48035086882E+03  0.18893164461E+03  0.52997711853E+03  0.93092635289E+02 0.  0.
          4    1    3    3  502    0  0.92285524667E+02  0.20210462176E+02 -0.16453206545E+02  0.95894675817E+02  0.00000000000E+00 0. -1.
         -3    1    3    3    0  502  0.22558961246E+02  0.18254876179E+02 -0.63634754008E+02  0.69939467788E+02  0.00000000000E+00 0.  1.
         11    1    5    5    0    0 -0.28530680480E+02  0.40552773079E+03  0.19737239974E+03  0.45190995159E+03  0.00000000000E+00 0. -1.
        -11    1    5    5    0    0 -0.10304701297E+02  0.36357799672E+02  0.70438688616E+02  0.79935507252E+02  0.00000000000E+00 0.  1.
          1    1    6    6  503    0 -0.64931869093E+02 -0.44291495236E+03  0.14352569950E+03  0.47009512768E+03  0.00000000000E+00 0. -1.
         -1    1    6    6    0  503 -0.11077235044E+02 -0.37435916458E+02  0.45405945111E+02  0.59881990855E+02  0.00000000000E+00 0.  1.
<mgrwt>
<rscale>  0 0.11684486E+04</rscale>
<asrwt>0</asrwt>
<pdfrwt beam="1">  1        2 0.12340858E+00 0.11684486E+04</pdfrwt>
<pdfrwt beam="2">  1       -1 0.65461688E-01 0.11684486E+04</pdfrwt>
<totfact> 0.91664865E+01</totfact>
</mgrwt>
</event>
<event>
11    6  0.1663299E-008  0.2056870E+04  0.7818608E-02  0.8580484E-01
          2   -1    0    0  501    0  0.00000000000E+00  0.00000000000E+00  0.24774447652E+04  0.24774447652E+04  0.00000000000E+00 0. -1.
         -1   -1    0    0    0  501 -0.00000000000E+00 -0.00000000000E+00 -0.42692316934E+03  0.42692316934E+03  0.00000000000E+00 0.  1.
         24    2    1    2    0    0 -0.73997485762E+03  0.10008624969E+03  0.32329178687E+03  0.81766811632E+03  0.80520318578E+02 0.  0.
        254    2    1    2    0    0  0.73997485762E+03 -0.10008624969E+03  0.17272298090E+04  0.20866998182E+04  0.90189426819E+03 0.  0.
         23    2    4    4    0    0  0.80086476870E+03 -0.24180816871E+03  0.13874363638E+04  0.16228288612E+04  0.93478773917E+02 0.  0.
          2    1    3    3  502    0 -0.26113044582E+03  0.41659633536E+02  0.15638028045E+03  0.30721234824E+03  0.00000000000E+00 0. -1.
         -1    1    3    3    0  502 -0.47884441180E+03  0.58426616156E+02  0.16691150642E+03  0.51045576808E+03  0.00000000000E+00 0.  1.
         11    1    4    4    0    0  0.48928627867E+02 -0.60563534184E+02  0.45228341354E+02  0.90041963325E+02  0.00000000000E+00 0.  1.
        -11    1    4    4    0    0 -0.10981853895E+03  0.20228545321E+03  0.29456510387E+03  0.37382899365E+03  0.00000000000E+00 0. -1.
          4    1    5    5  503    0  0.78437184400E+03 -0.23643729476E+03  0.13230764873E+04  0.15561726045E+04  0.00000000000E+00 0. -1.
         -4    1    5    5    0  503  0.16492924706E+02 -0.53708739502E+01  0.64359876508E+02  0.66656256694E+02  0.00000000000E+00 0.  1.
<mgrwt>
<rscale>  0 0.20568700E+04</rscale>
<asrwt>0</asrwt>
<pdfrwt beam="1">  1        2 0.38114534E+00 0.20568700E+04</pdfrwt>
<pdfrwt beam="2">  1       -1 0.65680489E-01 0.20568700E+04</pdfrwt>
<totfact> 0.88761855E+00</totfact>
</mgrwt>
</event>
<event>
12    6  0.1663299E-008  0.3043933E+04  0.7818608E-02  0.8231296E-01
          2   -1    0    0  501    0  0.00000000000E+00  0.00000000000E+00  0.25430131568E+04  0.25430131568E+04  0.00000000000E+00 0. -1.
         -1   -1    0    0    0  501 -0.00000000000E+00 -0.00000000000E+00 -0.91088079437E+03  0.91088079437E+03  0.00000000000E+00 0.  1.
         24    2    1    2    0    0 -0.66435048219E+02  0.92416611940E+03 -0.41988006370E+03  0.10205123683E+04  0.81545043095E+02 0.  0.
        254    2    1    2    0    0  0.66435048219E+02 -0.92416611940E+03  0.20520124262E+04  0.24333815829E+04  0.92308954010E+03 0.  0.
         23    2    4    4    0    0  0.14776990668E+03 -0.97808368581E+03  0.20716670810E+04  0.22988843697E+04  0.12075267592E+03 0.  0.
         23    2    4    4    0    0 -0.81334858465E+02  0.53917566416E+02 -0.19654654836E+02  0.13449721326E+03  0.90447397687E+02 0.  0.
          2    1    3    3  502    0 -0.13675307299E+02  0.15120315084E+03 -0.36796144322E+02  0.15621575814E+03  0.00000000000E+00 0. -1.
         -1    1    3    3    0  502 -0.52759740920E+02  0.77296296856E+03 -0.38308391938E+03  0.86429661015E+03  0.00000000000E+00 0.  1.
         11    1    5    5    0    0  0.36009455968E+02 -0.16295997424E+03  0.46037260238E+03  0.48968925570E+03  0.00000000000E+00 0.  1.
        -11    1    5    5    0    0  0.11176045072E+03 -0.81512371158E+03  0.16112944786E+04  0.18091951140E+04  0.00000000000E+00 0. -1.
          4    1    6    6  503    0 -0.61950315064E+02  0.78828717532E+02 -0.70411609671E+01  0.10050565254E+03  0.00000000000E+00 0. -1.
         -4    1    6    6    0  503 -0.19384543401E+02 -0.24911151116E+02 -0.12613493869E+02  0.33991560723E+02  0.00000000000E+00 0.  1.
<mgrwt>
<rscale>  0 0.30439329E+04</rscale>
<asrwt>0</asrwt>
<pdfrwt beam="1">  1        2 0.39123279E+00 0.30439329E+04</pdfrwt>
<pdfrwt beam="2">  1       -1 0.14013551E+00 0.30439329E+04</pdfrwt>
<totfact> 0.13315660E+00</totfact>
</mgrwt>
</event>
<event>
12    6  0.1663299E-008  0.1172769E+04  0.7818608E-02  0.9137031E-01
          2   -1    0    0  501    0  0.00000000000E+00  0.00000000000E+00  0.84090844561E+03  0.84090844561E+03  0.00000000000E+00 0. -1.
         -1   -1    0    0    0  501 -0.00000000000E+00 -0.00000000000E+00 -0.40889916656E+03  0.40889916656E+03  0.00000000000E+00 0.  1.
         24    2    1    2    0    0  0.29739793396E+02  0.21220933477E+03  0.13163821743E+02  0.22921632677E+03  0.80309284529E+02 0.  0.
        254    2    1    2    0    0 -0.29739793396E+02 -0.21220933477E+03  0.41884545730E+03  0.10205912854E+04  0.90568084757E+03 0.  0.
         23    2    4    4    0    0  0.27294492740E+03  0.16215972214E+03 -0.65251094548E+02  0.33205963532E+03  0.72188553025E+02 0.  0.
         23    2    4    4    0    0 -0.30268472080E+03 -0.37436905691E+03  0.48409655185E+03  0.68853165008E+03  0.89197144979E+02 0.  0.
          4    1    3    3  502    0  0.86259055453E+01  0.34581874198E+02  0.33840125178E+02  0.49147394047E+02  0.00000000000E+00 0. -1.
         -3    1    3    3    0  502  0.21113887851E+02  0.17762746057E+03 -0.20676303434E+02  0.18006893273E+03  0.00000000000E+00 0.  1.
         11    1    5    5    0    0  0.89645135380E+02  0.35013525683E+02  0.96918227727E+01  0.96727083625E+02  0.00000000000E+00 0. -1.
        -11    1    5    5    0    0  0.18329979202E+03  0.12714619646E+03 -0.74942917321E+02  0.23533255169E+03  0.00000000000E+00 0.  1.
          3    1    6    6  503    0  0.55206347327E+01 -0.36726629500E+01  0.24463026778E+01  0.70675496311E+01  0.00000000000E+00 0. -1.
         -3    1    6    6    0  503 -0.30820535553E+03 -0.37069639396E+03  0.48165024917E+03  0.68146410045E+03  0.00000000000E+00 0.  1.
<mgrwt>
<rscale>  0 0.11727690E+04</rscale>
<asrwt>0</asrwt>
<pdfrwt beam="1">  1        2 0.12937053E+00 0.11727690E+04</pdfrwt>
<pdfrwt beam="2">  1       -1 0.62907564E-01 0.11727690E+04</pdfrwt>
<totfact> 0.93145803E+01</totfact>
</mgrwt>
</event>
<event>
12    6  0.1663299E-008  0.2511561E+04  0.7818608E-02  0.8398878E-01
         -1   -1    0    0    0  501 -0.00000000000E+00  0.00000000000E+00  0.11864363080E+04  0.11864363080E+04  0.00000000000E+00 0.  1.
          2   -1    0    0  501    0  0.00000000000E+00 -0.00000000000E+00 -0.13291779154E+04  0.13291779154E+04  0.00000000000E+00 0. -1.
         24    2    1    2    0    0 -0.31522453800E+03 -0.29334724423E+03  0.93762427971E+03  0.10348742333E+04  0.80039201545E+02 0.  0.
        254    2    1    2    0    0  0.31522453800E+03  0.29334724423E+03 -0.10803658871E+04  0.14807399901E+04  0.91650496634E+03 0.  0.
         23    2    4    4    0    0 -0.28716496519E+03 -0.50319938386E+02 -0.30899657684E+03  0.43946261322E+03  0.11248417883E+03 0.  0.
         23    2    4    4    0    0  0.60238950319E+03  0.34366718262E+03 -0.77136931021E+03  0.10412773769E+04  0.90926986733E+02 0.  0.
          2    1    3    3  502    0 -0.15701267906E+03 -0.15155258107E+03  0.38080111436E+03  0.43889708920E+03  0.00000000000E+00 0. -1.
         -1    1    3    3    0  502 -0.15821185895E+03 -0.14179466316E+03  0.55682316535E+03  0.59597714409E+03  0.00000000000E+00 0.  1.
         11    1    5    5    0    0 -0.46466444353E+02 -0.22482915992E+02 -0.67150456362E+01  0.52054815341E+02  0.00000000000E+00 0.  1.
        -11    1    5    5    0    0 -0.24069852083E+03 -0.27837022394E+02 -0.30228153120E+03  0.38740779788E+03  0.00000000000E+00 0. -1.
          4    1    6    6  503    0  0.35002794556E+03  0.20809000733E+03 -0.38593512939E+03  0.56104094139E+03  0.00000000000E+00 0. -1.
         -4    1    6    6    0  503  0.25236155763E+03  0.13557717529E+03 -0.38543418082E+03  0.48023643549E+03  0.00000000000E+00 0.  1.
<mgrwt>
<rscale>  0 0.25115612E+04</rscale>
<asrwt>0</asrwt>
<pdfrwt beam="1">  1        2 0.20448891E+00 0.25115612E+04</pdfrwt>
<pdfrwt beam="2">  1       -1 0.18252866E+00 0.25115612E+04</pdfrwt>
<totfact> 0.32216076E+00</totfact>
</mgrwt>
</event>
<event>
12    6  0.1663299E-008  0.1579545E+04  0.7818608E-02  0.8833214E-01
          2   -1    0    0  501    0  0.00000000000E+00  0.00000000000E+00  0.10741893723E+04  0.10741893723E+04  0.00000000000E+00 0. -1.
         -1   -1    0    0    0  501 -0.00000000000E+00 -0.00000000000E+00 -0.58066163397E+03  0.58066163397E+03  0.00000000000E+00 0.  1.
         24    2    1    2    0    0 -0.39849337738E+03  0.23629811555E+03 -0.94701688874E+02  0.47949628631E+03  0.79463875264E+02 0.  0.
        254    2    1    2    0    0  0.39849337738E+03 -0.23629811555E+03  0.58822942717E+03  0.11753547199E+04  0.90598625125E+03 0.  0.
         23    2    4    4    0    0 -0.15159857924E+03  0.22459459706E+03  0.86176505087E+02  0.29460110104E+03  0.77062029896E+02 0.  0.
         23    2    4    4    0    0  0.55009195663E+03 -0.46089271261E+03  0.50205292208E+03  0.88075361889E+03  0.92986812710E+02 0.  0.
          4    1    3    3  502    0 -0.68037246038E+01 -0.42375670062E+01 -0.87729090413E+01  0.11883247690E+02  0.00000000000E+00 0. -1.
         -3    1    3    3    0  502 -0.39168965278E+03  0.24053568256E+03 -0.85928779833E+02  0.46761303862E+03  0.00000000000E+00 0.  1.
         11    1    5    5    0    0 -0.29928928780E+01  0.37478027719E+02 -0.67887253970E+01  0.38205323739E+02  0.00000000000E+00 0. -1.
        -11    1    5    5    0    0 -0.14860568636E+03  0.18711656934E+03  0.92965230484E+02  0.25639577730E+03  0.00000000000E+00 0.  1.
          4    1    6    6  503    0  0.30877913165E+02 -0.49279355565E+02  0.20476661904E+02  0.61653824610E+02  0.00000000000E+00 0. -1.
         -4    1    6    6    0  503  0.51921404346E+03 -0.41161335705E+03  0.48157626018E+03  0.81909979428E+03  0.00000000000E+00 0.  1.
<mgrwt>
<rscale>  0 0.15795449E+04</rscale>
<asrwt>0</asrwt>
<pdfrwt beam="1">  1        2 0.16525990E+00 0.15795449E+04</pdfrwt>
<pdfrwt beam="2">  1       -1 0.89332559E-01 0.15795449E+04</pdfrwt>
<totfact> 0.30415772E+01</totfact>
</mgrwt>
</event>
<event>
11    6  0.1663299E-008  0.1486106E+04  0.7818608E-02  0.8893745E-01
         -1   -1    0    0    0  501 -0.00000000000E+00  0.00000000000E+00  0.27729517003E+03  0.27729517003E+03  0.00000000000E+00 0.  1.
          2   -1    0    0  501    0  0.00000000000E+00 -0.00000000000E+00 -0.19911190482E+04  0.19911190482E+04  0.00000000000E+00 0. -1.
         24    2    1    2    0    0  0.19260005879E+03 -0.73859127753E+02 -0.11814187815E+04  0.12020424931E+04  0.81276470338E+02 0.  0.
        254    2    1    2    0    0 -0.19260005879E+03  0.73859127753E+02 -0.53240509674E+03  0.10663717252E+04  0.90063506250E+03 0.  0.
         23    2    4    4    0    0  0.60759097500E+02 -0.36562989357E+02  0.18782725607E+03  0.22112704791E+03  0.92679949704E+02 0.  0.
          4    1    3    3  502    0  0.50661511937E+02  0.10266241009E+02 -0.40502454127E+03  0.40830976418E+03  0.00000000000E+00 0. -1.
         -3    1    3    3    0  502  0.14193854685E+03 -0.84125368762E+02 -0.77639424019E+03  0.79373272891E+03  0.00000000000E+00 0.  1.
         11    1    4    4    0    0 -0.85253220092E+02  0.14011949199E+03 -0.63228640902E+03  0.65321335458E+03  0.00000000000E+00 0. -1.
        -11    1    4    4    0    0 -0.16810593620E+03 -0.29697374881E+02 -0.87945943787E+02  0.19203132267E+03  0.00000000000E+00 0.  1.
          3    1    5    5  503    0  0.75814266377E+01 -0.46964617702E+02  0.14331000603E+03  0.15099970587E+03  0.00000000000E+00 0. -1.
         -3    1    5    5    0  503  0.53177670863E+02  0.10401628345E+02  0.44517250039E+02  0.70127342041E+02  0.00000000000E+00 0.  1.
<mgrwt>
<rscale>  0 0.14861059E+04</rscale>
<asrwt>0</asrwt>
<pdfrwt beam="1">  1        2 0.30632601E+00 0.14861059E+04</pdfrwt>
<pdfrwt beam="2">  1       -1 0.42660795E-01 0.14861059E+04</pdfrwt>
<totfact> 0.40287333E+01</totfact>
</mgrwt>
</event>
<event>
12    6  0.1663299E-008  0.3485440E+04  0.7818608E-02  0.8117249E-01
          2   -1    0    0  501    0  0.00000000000E+00  0.00000000000E+00  0.44654924032E+04  0.44654924032E+04  0.00000000000E+00 0. -1.
         -1   -1    0    0    0  501 -0.00000000000E+00 -0.00000000000E+00 -0.68012068519E+03  0.68012068519E+03  0.00000000000E+00 0.  1.
         24    2    1    2    0    0 -0.12197349582E+04  0.68899721733E+03  0.54222130159E+03  0.15042836189E+04  0.79967070871E+02 0.  0.
        254    2    1    2    0    0  0.12197349582E+04 -0.68899721733E+03  0.32431504164E+04  0.36413294695E+04  0.88248804434E+03 0.  0.
         23    2    4    4    0    0  0.11476771979E+04 -0.86550341150E+03  0.28735633610E+04  0.32150846577E+04  0.11464667783E+03 0.  0.
         23    2    4    4    0    0  0.72057760265E+02  0.17650619417E+03  0.36958705549E+03  0.42624481186E+03  0.93505564855E+02 0.  0.
          2    1    3    3  502    0 -0.66439242626E+03  0.34830371101E+03  0.32469371769E+03  0.81740980021E+03  0.00000000000E+00 0. -1.
         -1    1    3    3    0  502 -0.55534253192E+03  0.34069350632E+03  0.21752758390E+03  0.68687381866E+03  0.00000000000E+00 0.  1.
         11    1    5    5    0    0  0.18027460707E+03 -0.14713679708E+03  0.56323200268E+03  0.60940828666E+03  0.00000000000E+00 0.  1.
        -11    1    5    5    0    0  0.96740259084E+03 -0.71836661442E+03  0.23103313583E+04  0.26056763710E+04  0.00000000000E+00 0. -1.
          1    1    6    6  503    0  0.60142171570E+02  0.18686223552E+03  0.33620130795E+03  0.38931464823E+03  0.00000000000E+00 0. -1.
         -1    1    6    6    0  503  0.11915588695E+02 -0.10356041353E+02  0.33385747540E+02  0.36930163624E+02  0.00000000000E+00 0.  1.
<mgrwt>
<rscale>  0 0.34854404E+04</rscale>
<asrwt>0</asrwt>
<pdfrwt beam="1">  1        2 0.68699881E+00 0.34854404E+04</pdfrwt>
<pdfrwt beam="2">  1       -1 0.10463395E+00 0.34854404E+04</pdfrwt>
<totfact> 0.10607174E-01</totfact>
</mgrwt>
</event>
<event>
12    6  0.1663299E-008  0.1298942E+04  0.7818608E-02  0.9030405E-01
          2   -1    0    0  501    0  0.00000000000E+00  0.00000000000E+00  0.34277398033E+04  0.34277398033E+04  0.00000000000E+00 0. -1.
         -1   -1    0    0    0  501 -0.00000000000E+00 -0.00000000000E+00 -0.12305842995E+03  0.12305842995E+03  0.00000000000E+00 0.  1.
         24    2    1    2    0    0  0.29832329842E+03  0.96674722205E+02  0.11966394574E+04  0.12416161478E+04  0.10640430039E+03 0.  0.
        254    2    1    2    0    0 -0.29832329842E+03 -0.96674722205E+02  0.21080419160E+04  0.23091820855E+04  0.88889728999E+03 0.  0.
         23    2    4    4    0    0  0.19140940665E+02  0.35405031454E+03  0.71983067966E+03  0.81255346265E+03  0.12794108584E+03 0.  0.
         23    2    4    4    0    0 -0.31746423908E+03 -0.45072503675E+03  0.13882112363E+04  0.14966286228E+04  0.93969123809E+02 0.  0.
          2    1    3    3  502    0  0.27403523699E+03  0.93095592154E+02  0.11705236433E+04  0.12057726568E+04  0.00000000000E+00 0. -1.
         -1    1    3    3    0  502  0.24288061426E+02  0.35791300512E+01  0.26115814145E+02  0.35843491016E+02  0.00000000000E+00 0.  1.
         11    1    5    5    0    0 -0.53079004273E+02  0.18921857817E+03  0.35560320890E+03  0.40629385081E+03  0.00000000000E+00 0. -1.
        -11    1    5    5    0    0  0.72219944938E+02  0.16483173637E+03  0.36422747076E+03  0.40625961185E+03  0.00000000000E+00 0.  1.
          1    1    6    6  503    0 -0.11491767507E+03 -0.24469902096E+03  0.66985375910E+03  0.72234876720E+03  0.00000000000E+00 0. -1.
         -1    1    6    6    0  503 -0.20254656401E+03 -0.20602601579E+03  0.71835747720E+03  0.77427985562E+03  0.00000000000E+00 0.  1.
<mgrwt>
<rscale>  0 0.12989415E+04</rscale>
<asrwt>0</asrwt>
<pdfrwt beam="1">  1        2 0.52734451E+00 0.12989415E+04</pdfrwt>
<pdfrwt beam="2">  1       -1 0.18932069E-01 0.12989415E+04</pdfrwt>
<totfact> 0.23287770E+01</totfact>
</mgrwt>
</event>
<event>
12    6  0.1663299E-008  0.1134230E+04  0.7818608E-02  0.9172457E-01
         -1   -1    0    0    0  501 -0.00000000000E+00  0.00000000000E+00  0.32973555074E+03  0.32973555074E+03  0.00000000000E+00 0.  1.
          2   -1    0    0  501    0  0.00000000000E+00 -0.00000000000E+00 -0.97538522670E+03  0.97538522670E+03  0.00000000000E+00 0. -1.
         24    2    1    2    0    0  0.17595281409E+03  0.38898136448E+02 -0.21081700535E+03  0.28764498578E+03  0.76311010277E+02 0.  0.
        254    2    1    2    0    0 -0.17595281409E+03 -0.38898136448E+02 -0.43483267060E+03  0.10174757917E+04  0.90205602786E+03 0.  0.
         23    2    4    4    0    0  0.25883251162E+03 -0.28280165265E+03 -0.80828721961E+02  0.39893963930E+03  0.75156567868E+02 0.  0.
         23    2    4    4    0    0 -0.43478532572E+03  0.24390351620E+03 -0.35400394864E+03  0.61853615237E+03  0.93493162667E+02 0.  0.
          2    1    3    3  502    0  0.93147603521E+02 -0.53688455864E+01 -0.63185710429E+02  0.11268422493E+03  0.00000000000E+00 0. -1.
         -1    1    3    3    0  502  0.82805210571E+02  0.44266982034E+02 -0.14763129493E+03  0.17496076085E+03  0.00000000000E+00 0.  1.
         11    1    5    5    0    0  0.24479735719E+02 -0.19386204468E+02  0.13415831514E+02  0.33986275461E+02  0.00000000000E+00 0. -1.
        -11    1    5    5    0    0  0.23435277591E+03 -0.26341544818E+03 -0.94244553475E+02  0.36495336383E+03  0.00000000000E+00 0.  1.
          1    1    6    6  503    0 -0.17729412646E+03  0.48323983983E+02 -0.13442539518E+03  0.22768092054E+03  0.00000000000E+00 0. -1.
         -1    1    6    6    0  503 -0.25749119925E+03  0.19557953222E+03 -0.21957855346E+03  0.39085523184E+03  0.00000000000E+00 0.  1.
<mgrwt>
<rscale>  0 0.11342296E+04</rscale>
<asrwt>0</asrwt>
<pdfrwt beam="1">  1        2 0.15005927E+00 0.11342296E+04</pdfrwt>
<pdfrwt beam="2">  1       -1 0.50728546E-01 0.11342296E+04</pdfrwt>
<totfact> 0.11527503E+02</totfact>
</mgrwt>
</event>
<event>
11    6  0.1663299E-008  0.2984485E+04  0.7818608E-02  0.8248175E-01
          2   -1    0    0  501    0  0.00000000000E+00  0.00000000000E+00  0.28262566119E+04  0.28262566119E+04  0.00000000000E+00 0. -1.
         -1   -1    0    0    0  501 -0.00000000000E+00 -0.00000000000E+00 -0.78789310983E+03  0.78789310983E+03  0.00000000000E+00 0.  1.
         24    2    1    2    0    0  0.12340666284E+04 -0.24049213957E+03  0.15414060424E+04  0.19907080680E+04  0.78924724686E+02 0.  0.
        254    2    1    2    0    0 -0.12340666284E+04  0.24049213957E+03  0.49695745970E+03  0.16234416537E+04  0.89879873935E+03 0.  0.
         23    2    4    4    0    0 -0.64469910891E+03 -0.14633640524E+03  0.50308978432E+03  0.83603249024E+03  0.93806764803E+02 0.  0.
          2    1    3    3  502    0  0.12119800781E+04 -0.24070330830E+03  0.14968478510E+04  0.19409758580E+04  0.00000000000E+00 0. -1.
         -1    1    3    3    0  502  0.22086550312E+02  0.21116873164E+00  0.44558191348E+02  0.49732210016E+02  0.00000000000E+00 0.  1.
         11    1    4    4    0    0 -0.53670226169E+03  0.45334309113E+03 -0.51981102834E+01  0.70256408699E+03  0.00000000000E+00 0.  1.
        -11    1    4    4    0    0 -0.52665257768E+02 -0.66514546326E+02 -0.93421433972E+00  0.84845076493E+02  0.00000000000E+00 0. -1.
          2    1    5    5  503    0 -0.56658688297E+03 -0.12122413877E+03  0.47525941406E+03  0.74939141870E+03  0.00000000000E+00 0.  1.
         -2    1    5    5    0  503 -0.78112225939E+02 -0.25112266466E+02  0.27830370264E+02  0.86641071538E+02  0.00000000000E+00 0. -1.
<mgrwt>
<rscale>  0 0.29844853E+04</rscale>
<asrwt>0</asrwt>
<pdfrwt beam="1">  1        2 0.43480870E+00 0.29844853E+04</pdfrwt>
<pdfrwt beam="2">  1       -1 0.12121433E+00 0.29844853E+04</pdfrwt>
<totfact> 0.13105611E+00</totfact>
</mgrwt>
</event>
<event>
12    6  0.1663299E-008  0.1147655E+04  0.7818608E-02  0.9159950E-01
          2   -1    0    0  501    0  0.00000000000E+00  0.00000000000E+00  0.16708584441E+03  0.16708584441E+03  0.00000000000E+00 0. -1.
         -1   -1    0    0    0  501 -0.00000000000E+00 -0.00000000000E+00 -0.19707103328E+04  0.19707103328E+04  0.00000000000E+00 0.  1.
         24    2    1    2    0    0  0.16638762192E+03  0.66657044290E+02 -0.15837926568E+03  0.25180882086E+03  0.78712693934E+02 0.  0.
        254    2    1    2    0    0 -0.16638762192E+03 -0.66657044290E+02 -0.16452452227E+04  0.18859873564E+04  0.90442714641E+03 0.  0.
         23    2    4    4    0    0 -0.32039471586E+01 -0.42353362750E+03 -0.12332038960E+04  0.13097612442E+04  0.12365948654E+03 0.  0.
         23    2    4    4    0    0 -0.16318367477E+03  0.35687658321E+03 -0.41204132672E+03  0.57622611222E+03  0.90932228198E+02 0.  0.
          4    1    3    3  502    0  0.13434674903E+03  0.51471034994E+02 -0.16141131625E+03  0.21622194485E+03  0.00000000000E+00 0. -1.
         -3    1    3    3    0  502  0.32040872891E+02  0.15186009296E+02  0.30320505774E+01  0.35586876017E+02  0.00000000000E+00 0.  1.
         11    1    5    5    0    0 -0.24434648039E+02 -0.87688704208E+02 -0.14971388204E+03  0.17521588782E+03  0.00000000000E+00 0.  1.
        -11    1    5    5    0    0  0.21230700880E+02 -0.33584492330E+03 -0.10834900140E+04  0.11345453563E+04  0.00000000000E+00 0. -1.
          1    1    6    6  503    0 -0.17223843406E+02  0.53038050696E+02 -0.20107494754E+02  0.59279059950E+02  0.00000000000E+00 0. -1.
         -1    1    6    6    0  503 -0.14595983136E+03  0.30383853252E+03 -0.39193383196E+03  0.51694705227E+03  0.00000000000E+00 0.  1.
<mgrwt>
<rscale>  0 0.11476547E+04</rscale>
<asrwt>0</asrwt>
<pdfrwt beam="1">  1        2 0.25705513E-01 0.11476547E+04</pdfrwt>
<pdfrwt beam="2">  1       -1 0.30318623E+00 0.11476547E+04</pdfrwt>
<totfact> 0.76670320E+00</totfact>
</mgrwt>
</event>
<event>
11    6  0.1663299E-008  0.1865265E+04  0.7818608E-02  0.8672342E-01
          2   -1    0    0  501    0  0.00000000000E+00  0.00000000000E+00  0.99189756001E+03  0.99189756001E+03  0.00000000000E+00 0. -1.
         -1   -1    0    0    0  501 -0.00000000000E+00 -0.00000000000E+00 -0.87690870197E+03  0.87690870197E+03  0.00000000000E+00 0.  1.
         24    2    1    2    0    0  0.50433135187E+03  0.50278023504E+03 -0.26671189045E+02  0.71668475811E+03  0.76076362621E+02 0.  0.
        254    2    1    2    0    0 -0.50433135187E+03 -0.50278023504E+03  0.14166004708E+03  0.11521215039E+04  0.89452686574E+03 0.  0.
         23    2    4    4    0    0 -0.25171144266E+03 -0.68883228972E+03  0.25801490315E+03  0.78251865953E+03  0.88967345297E+02 0.  0.
          4    1    3    3  502    0  0.18642956600E+03  0.20704317420E+03 -0.44436992077E+02  0.28213029849E+03  0.00000000000E+00 0. -1.
         -3    1    3    3    0  502  0.31790178587E+03  0.29573706084E+03  0.17765803032E+02  0.43455445961E+03  0.00000000000E+00 0.  1.
         11    1    4    4    0    0 -0.10805984081E+03 -0.76669794110E+01 -0.24811706592E+02  0.11113654913E+03  0.00000000000E+00 0. -1.
        -11    1    4    4    0    0 -0.14456006840E+03  0.19371903409E+03 -0.91543149478E+02  0.25846629522E+03  0.00000000000E+00 0.  1.
          3    1    5    5  503    0 -0.10994265759E+03 -0.21447869656E+03  0.11593165967E+03  0.26744840427E+03  0.00000000000E+00 0. -1.
         -3    1    5    5    0  503 -0.14176878507E+03 -0.47435359317E+03  0.14208324349E+03  0.51507025526E+03  0.00000000000E+00 0.  1.
<mgrwt>
<rscale>  0 0.18652652E+04</rscale>
<asrwt>0</asrwt>
<pdfrwt beam="1">  1        2 0.15259962E+00 0.18652652E+04</pdfrwt>
<pdfrwt beam="2">  1       -1 0.13490903E+00 0.18652652E+04</pdfrwt>
<totfact> 0.12605225E+01</totfact>
</mgrwt>
</event>
<event>
11    6  0.1663299E-008  0.2027784E+04  0.7818608E-02  0.8593740E-01
          2   -1    0    0  501    0  0.00000000000E+00  0.00000000000E+00  0.20499688331E+04  0.20499688331E+04  0.00000000000E+00 0. -1.
         -1   -1    0    0    0  501 -0.00000000000E+00 -0.00000000000E+00 -0.50145964350E+03  0.50145964350E+03  0.00000000000E+00 0.  1.
         24    2    1    2    0    0  0.36005755804E+03 -0.58806019586E+03  0.11579627672E+04  0.13501224886E+04  0.80602264196E+02 0.  0.
        254    2    1    2    0    0 -0.36005755804E+03  0.58806019586E+03  0.39054642244E+03  0.12013059880E+04  0.90285842174E+03 0.  0.
         23    2    4    4    0    0  0.33483800002E+01  0.50115109416E+02  0.14827083397E+03  0.17673887135E+03  0.82034459816E+02 0.  0.
          4    1    3    3  502    0  0.28181687831E+03 -0.51459754280E+03  0.99016972240E+03  0.11509419895E+04  0.00000000000E+00 0. -1.
         -3    1    3    3    0  502  0.78240679730E+02 -0.73462653061E+02  0.16779304476E+03  0.19918049912E+03  0.00000000000E+00 0.  1.
         11    1    4    4    0    0 -0.32680195225E+02 -0.19139493650E+03  0.34193735666E+02  0.19715280479E+03  0.00000000000E+00 0.  1.
        -11    1    4    4    0    0 -0.33072574281E+03  0.72934002294E+03  0.20808185280E+03  0.82741431187E+03  0.00000000000E+00 0. -1.
          1    1    5    5  503    0  0.15008083730E+02  0.62250610438E+02  0.63023367654E+02  0.89846123721E+02  0.00000000000E+00 0. -1.
         -1    1    5    5    0  503 -0.11659703730E+02 -0.12135501022E+02  0.85247466320E+02  0.86892747627E+02  0.00000000000E+00 0.  1.
<mgrwt>
<rscale>  0 0.20277837E+04</rscale>
<asrwt>0</asrwt>
<pdfrwt beam="1">  1        2 0.31537982E+00 0.20277837E+04</pdfrwt>
<pdfrwt beam="2">  1       -1 0.77147638E-01 0.20277837E+04</pdfrwt>
<totfact> 0.11141480E+01</totfact>
</mgrwt>
</event>
<event>
11    6  0.1663299E-008  0.1098949E+04  0.7818608E-02  0.9206217E-01
          2   -1    0    0  501    0  0.00000000000E+00  0.00000000000E+00  0.56762703732E+03  0.56762703732E+03  0.00000000000E+00 0. -1.
         -1   -1    0    0    0  501 -0.00000000000E+00 -0.00000000000E+00 -0.53190215599E+03  0.53190215599E+03  0.00000000000E+00 0.  1.
         24    2    1    2    0    0 -0.42727896875E+02  0.73992183986E+02 -0.13566533197E+03  0.17646211505E+03  0.73710781347E+02 0.  0.
        254    2    1    2    0    0  0.42727896875E+02 -0.73992183986E+02  0.17139021330E+03  0.92306707826E+03  0.90298267386E+03 0.  0.
         23    2    4    4    0    0  0.38979752259E+03  0.70323513799E+02 -0.97406876145E+02  0.41906976825E+03  0.96145025511E+02 0.  0.
          2    1    3    3  502    0 -0.55689740846E+01  0.47222537434E+02 -0.19135213403E+02  0.51255613410E+02  0.00000000000E+00 0. -1.
         -1    1    3    3    0  502 -0.37158922790E+02  0.26769646552E+02 -0.11653011857E+03  0.12520650164E+03  0.00000000000E+00 0.  1.
         11    1    4    4    0    0 -0.36349207326E+03 -0.16463249787E+03  0.26069019196E+03  0.47664423092E+03  0.00000000000E+00 0.  1.
        -11    1    4    4    0    0  0.16422447544E+02  0.20316800086E+02  0.81068974820E+01  0.27353079093E+02  0.00000000000E+00 0. -1.
          1    1    5    5  503    0  0.14698953283E+03  0.15819025148E+02  0.96832921017E+01  0.14815508923E+03  0.00000000000E+00 0. -1.
         -1    1    5    5    0  503  0.24280798976E+03  0.54504488651E+02 -0.10709016825E+03  0.27091467902E+03  0.00000000000E+00 0.  1.
<mgrwt>
<rscale>  0 0.10989487E+04</rscale>
<asrwt>0</asrwt>
<pdfrwt beam="1">  1        2 0.87327237E-01 0.10989487E+04</pdfrwt>
<pdfrwt beam="2">  1       -1 0.81831100E-01 0.10989487E+04</pdfrwt>
<totfact> 0.89482457E+01</totfact>
</mgrwt>
</event>
<event>
12    6  0.1663299E-008  0.1988238E+04  0.7818608E-02  0.8612140E-01
          2   -1    0    0  501    0  0.00000000000E+00  0.00000000000E+00  0.27888672263E+04  0.27888672263E+04  0.00000000000E+00 0. -1.
         -1   -1    0    0    0  501 -0.00000000000E+00 -0.00000000000E+00 -0.35436343173E+03  0.35436343173E+03  0.00000000000E+00 0.  1.
         24    2    1    2    0    0 -0.73107629386E+03 -0.22740254453E+03  0.12757036582E+04  0.14897393476E+04  0.75624303865E+02 0.  0.
        254    2    1    2    0    0  0.73107629386E+03  0.22740254453E+03  0.11588001363E+04  0.16534913105E+04  0.89723536105E+03 0.  0.
         23    2    4    4    0    0  0.88901587572E+03  0.29924197760E+02  0.77772374405E+03  0.11871182826E+04  0.11467741688E+03 0.  0.
         23    2    4    4    0    0 -0.15793958186E+03  0.19747834677E+03  0.38107639228E+03  0.46637302786E+03  0.91334415202E+02 0.  0.
          2    1    3    3  502    0 -0.63438237416E+03 -0.16967727191E+03  0.10952760467E+04  0.12770516793E+04  0.00000000000E+00 0. -1.
         -1    1    3    3    0  502 -0.96693919704E+02 -0.57725272627E+02  0.18042761155E+03  0.21268766823E+03  0.00000000000E+00 0.  1.
         11    1    5    5    0    0  0.77554565320E+03 -0.11617636477E+02  0.68493865211E+03  0.10347690500E+04  0.00000000000E+00 0. -1.
        -11    1    5    5    0    0  0.11347022253E+03  0.41541834237E+02  0.92785091941E+02  0.15234923261E+03  0.00000000000E+00 0.  1.
          2    1    6    6  503    0 -0.13070131069E+03  0.10675394150E+03  0.19735555398E+03  0.25966988915E+03  0.00000000000E+00 0. -1.
         -2    1    6    6    0  503 -0.27238271166E+02  0.90724405271E+02  0.18372083830E+03  0.20670313872E+03  0.00000000000E+00 0.  1.
<mgrwt>
<rscale>  0 0.19882380E+04</rscale>
<asrwt>0</asrwt>
<pdfrwt beam="1">  1        2 0.42905648E+00 0.19882380E+04</pdfrwt>
<pdfrwt beam="2">  1       -1 0.54517453E-01 0.19882380E+04</pdfrwt>
<totfact> 0.84621379E+00</totfact>
</mgrwt>
</event>
<event>
12    6  0.1663299E-008  0.1403013E+04  0.7818608E-02  0.8951640E-01
          2   -1    0    0  501    0  0.00000000000E+00  0.00000000000E+00  0.28560254802E+04  0.28560254802E+04  0.00000000000E+00 0. -1.
         -1   -1    0    0    0  501 -0.00000000000E+00 -0.00000000000E+00 -0.17230639341E+03  0.17230639341E+03  0.00000000000E+00 0.  1.
         24    2    1    2    0    0 -0.48016249588E+02  0.35511768541E+03  0.37562728018E+03  0.52522713189E+03  0.79709194810E+02 0.  0.
        254    2    1    2    0    0  0.48016249588E+02 -0.35511768541E+03  0.23080918067E+04  0.25031047418E+04  0.89990634489E+03 0.  0.
         23    2    4    4    0    0 -0.27926898053E+03 -0.47727317363E+03  0.17435361010E+04  0.18326467410E+04  0.11355657710E+03 0.  0.
         23    2    4    4    0    0  0.32728523011E+03  0.12215548822E+03  0.56455570570E+03  0.67045800077E+03  0.93558542094E+02 0.  0.
          4    1    3    3  502    0 -0.42038983238E+02  0.73184648961E+02  0.10068945946E+03  0.13138354616E+03  0.00000000000E+00 0. -1.
         -3    1    3    3    0  502 -0.59772663497E+01  0.28193303645E+03  0.27493782072E+03  0.39384358573E+03  0.00000000000E+00 0.  1.
         11    1    5    5    0    0  0.10350488287E+01  0.23479958291E+01 -0.18526903572E+00  0.25726902470E+01  0.00000000000E+00 0. -1.
        -11    1    5    5    0    0 -0.28030402936E+03 -0.47962116946E+03  0.17437213700E+04  0.18300740507E+04  0.00000000000E+00 0.  1.
          1    1    6    6  503    0  0.67167911067E+02 -0.23682095024E+01  0.16085579424E+03  0.17433222087E+03  0.00000000000E+00 0. -1.
         -1    1    6    6    0  503  0.26011731905E+03  0.12452369772E+03  0.40369991146E+03  0.49612577989E+03  0.00000000000E+00 0.  1.
<mgrwt>
<rscale>  0 0.14030131E+04</rscale>
<asrwt>0</asrwt>
<pdfrwt beam="1">  1        2 0.43938850E+00 0.14030131E+04</pdfrwt>
<pdfrwt beam="2">  1       -1 0.26508678E-01 0.14030131E+04</pdfrwt>
<totfact> 0.30215953E+01</totfact>
</mgrwt>
</event>
<event>
12    6  0.1663299E-008  0.1393125E+04  0.7818608E-02  0.8958810E-01
         -1   -1    0    0    0  501 -0.00000000000E+00  0.00000000000E+00  0.17267362999E+03  0.17267362999E+03  0.00000000000E+00 0.  1.
          2   -1    0    0  501    0  0.00000000000E+00 -0.00000000000E+00 -0.28099224820E+04  0.28099224820E+04  0.00000000000E+00 0. -1.
         24    2    1    2    0    0  0.28545063312E+03  0.54298513732E+02 -0.17667978789E+03  0.34914152594E+03  0.79080118514E+02 0.  0.
        254    2    1    2    0    0 -0.28545063312E+03 -0.54298513732E+02 -0.24605690641E+04  0.26334545861E+04  0.89232984090E+03 0.  0.
         23    2    4    4    0    0  0.17031584505E+03 -0.14889393513E+03 -0.18133239639E+04  0.18310225576E+04  0.11542494252E+03 0.  0.
         23    2    4    4    0    0 -0.45576647817E+03  0.94595421402E+02 -0.64724510019E+03  0.80243202844E+03  0.91101943777E+02 0.  0.
          4    1    3    3  502    0  0.19381698170E+03  0.18320389502E+02 -0.15372633069E+03  0.24805733977E+03  0.00000000000E+00 0. -1.
         -3    1    3    3    0  502  0.91633651420E+02  0.35978124230E+02 -0.22953457197E+02  0.10108418617E+03  0.00000000000E+00 0.  1.
         11    1    5    5    0    0  0.16088610995E+03 -0.10028273263E+03 -0.16348919521E+04  0.16458470955E+04  0.00000000000E+00 0.  1.
        -11    1    5    5    0    0  0.94297351002E+01 -0.48611202506E+02 -0.17843201186E+03  0.18517546212E+03  0.00000000000E+00 0. -1.
          2    1    6    6  503    0 -0.13615077234E+03  0.68969369384E+02 -0.18432585874E+03  0.23931115503E+03  0.00000000000E+00 0. -1.
         -2    1    6    6    0  503 -0.31961570583E+03  0.25626052017E+02 -0.46291924146E+03  0.56312087341E+03  0.00000000000E+00 0.  1.
<mgrwt>
<rscale>  0 0.13931253E+04</rscale>
<asrwt>0</asrwt>
<pdfrwt beam="1">  1        2 0.43229572E+00 0.13931253E+04</pdfrwt>
<pdfrwt beam="2">  1       -1 0.26565177E-01 0.13931253E+04</pdfrwt>
<totfact> 0.32126032E+01</totfact>
</mgrwt>
</event>
<event>
11    6  0.1663299E-008  0.2014930E+04  0.7818608E-02  0.8599672E-01
          2   -1    0    0  501    0  0.00000000000E+00  0.00000000000E+00  0.89088119112E+03  0.89088119112E+03  0.00000000000E+00 0. -1.
         -1   -1    0    0    0  501 -0.00000000000E+00 -0.00000000000E+00 -0.11393053025E+04  0.11393053025E+04  0.00000000000E+00 0.  1.
         24    2    1    2    0    0  0.32849833734E+03 -0.56252800858E+03  0.37759900719E+03  0.75728017975E+03  0.80890928675E+02 0.  0.
        254    2    1    2    0    0 -0.32849833734E+03  0.56252800858E+03 -0.62602311856E+03  0.12729063139E+04  0.89668089129E+03 0.  0.
         23    2    4    4    0    0 -0.39587851007E+03  0.88363707705E+02 -0.63557133654E+03  0.75960095196E+03  0.92275364001E+02 0.  0.
          2    1    3    3  502    0  0.20247908966E+03 -0.41130392070E+03  0.28430454522E+03  0.53944209269E+03  0.00000000000E+00 0. -1.
         -1    1    3    3    0  502  0.12601924768E+03 -0.15122408788E+03  0.93294461975E+02  0.21783808707E+03  0.00000000000E+00 0.  1.
         11    1    4    4    0    0 -0.19720703622E+02  0.38159106760E+03 -0.20656169970E+02  0.38265823705E+03  0.00000000000E+00 0. -1.
        -11    1    4    4    0    0  0.87100876355E+02  0.92573233277E+02  0.30204387950E+02  0.13064712485E+03  0.00000000000E+00 0.  1.
          2    1    5    5  503    0 -0.35259787533E+03  0.46351774799E+02 -0.53990367244E+03  0.64650578051E+03  0.00000000000E+00 0. -1.
         -2    1    5    5    0  503 -0.43280634740E+02  0.42011932906E+02 -0.95667664108E+02  0.11309517145E+03  0.00000000000E+00 0.  1.
<mgrwt>
<rscale>  0 0.20149299E+04</rscale>
<asrwt>0</asrwt>
<pdfrwt beam="1">  1        2 0.13705864E+00 0.20149299E+04</pdfrwt>
<pdfrwt beam="2">  1       -1 0.17527774E+00 0.20149299E+04</pdfrwt>
<totfact> 0.70895684E+00</totfact>
</mgrwt>
</event>
<event>
11    6  0.1663299E-008  0.1737118E+04  0.7818608E-02  0.8740473E-01
          2   -1    0    0  501    0  0.00000000000E+00  0.00000000000E+00  0.26882889152E+04  0.26882889152E+04  0.00000000000E+00 0. -1.
         -1   -1    0    0    0  501 -0.00000000000E+00 -0.00000000000E+00 -0.28062264711E+03  0.28062264711E+03  0.00000000000E+00 0.  1.
         24    2    1    2    0    0 -0.21215762404E+03 -0.40010249806E+03  0.13164127854E+03  0.47844109387E+03  0.80520728327E+02 0.  0.
        254    2    1    2    0    0  0.21215762404E+03  0.40010249806E+03  0.22760249896E+04  0.24904704685E+04  0.90391400851E+03 0.  0.
         23    2    4    4    0    0  0.35482164618E+03  0.46796659574E+03  0.81347922345E+03  0.10077881111E+04  0.94854069861E+02 0.  0.
          2    1    3    3  502    0 -0.29783773238E+01 -0.60682019194E+02  0.25220988607E+02  0.65782037452E+02  0.00000000000E+00 0. -1.
         -1    1    3    3    0  502 -0.20917924671E+03 -0.33942047887E+03  0.10642028993E+03  0.41265905641E+03  0.00000000000E+00 0.  1.
         11    1    4    4    0    0 -0.18556597406E+03 -0.73894725841E+02  0.11648201802E+04  0.11818211427E+04  0.00000000000E+00 0.  1.
        -11    1    4    4    0    0  0.42901951917E+02  0.60306281687E+01  0.29772558593E+03  0.30086121463E+03  0.00000000000E+00 0. -1.
          3    1    5    5  503    0  0.54765014682E+02  0.25913195832E+02  0.79915192888E+02  0.10028528609E+03  0.00000000000E+00 0. -1.
         -3    1    5    5    0  503  0.30005663149E+03  0.44205339991E+03  0.73356403056E+03  0.90750282501E+03  0.00000000000E+00 0.  1.
<mgrwt>
<rscale>  0 0.17371180E+04</rscale>
<asrwt>0</asrwt>
<pdfrwt beam="1">  1        2 0.41358289E+00 0.17371180E+04</pdfrwt>
<pdfrwt beam="2">  1       -1 0.43172717E-01 0.17371180E+04</pdfrwt>
<totfact> 0.15460650E+01</totfact>
</mgrwt>
</event>
<event>
12    6  0.1663299E-008  0.2492312E+04  0.7818608E-02  0.8405730E-01
         -1   -1    0    0    0  501 -0.00000000000E+00  0.00000000000E+00  0.85325716270E+03  0.85325716270E+03  0.00000000000E+00 0.  1.
          2   -1    0    0  501    0  0.00000000000E+00 -0.00000000000E+00 -0.18199726593E+04  0.18199726593E+04  0.00000000000E+00 0. -1.
         24    2    1    2    0    0  0.10631250216E+04 -0.11842468297E+03 -0.62526884369E+03  0.12415619217E+04  0.79092739610E+02 0.  0.
        254    2    1    2    0    0 -0.10631250216E+04  0.11842468297E+03 -0.34144665291E+03  0.14316679003E+04  0.88815986344E+03 0.  0.
         23    2    4    4    0    0 -0.66473230976E+03  0.37823636189E+03 -0.50157076386E+03  0.92149121394E+03  0.11243236682E+03 0.  0.
         23    2    4    4    0    0 -0.39839271180E+03 -0.25981167892E+03  0.16012411095E+03  0.51017668638E+03  0.91769597935E+02 0.  0.
          2    1    3    3  502    0  0.90242781040E+03 -0.91192065367E+02 -0.49780366532E+03  0.10346499094E+04  0.00000000000E+00 0. -1.
         -1    1    3    3    0  502  0.16069721116E+03 -0.27232617603E+02 -0.12746517836E+03  0.20691201229E+03  0.00000000000E+00 0.  1.
         11    1    5    5    0    0 -0.50014425636E+03  0.26807138857E+03 -0.31315268520E+03  0.64812896154E+03  0.00000000000E+00 0. -1.
        -11    1    5    5    0    0 -0.16458805340E+03  0.11016497332E+03 -0.18841807867E+03  0.27336225240E+03  0.00000000000E+00 0.  1.
          3    1    6    6  503    0 -0.16898743923E+03 -0.13702680215E+03  0.31191129444E+02  0.21978622723E+03  0.00000000000E+00 0. -1.
         -3    1    6    6    0  503 -0.22940527257E+03 -0.12278487676E+03  0.12893298151E+03  0.29039045915E+03  0.00000000000E+00 0.  1.
<mgrwt>
<rscale>  0 0.24923119E+04</rscale>
<asrwt>0</asrwt>
<pdfrwt beam="1">  1        2 0.27999579E+00 0.24923119E+04</pdfrwt>
<pdfrwt beam="2">  1       -1 0.13127033E+00 0.24923119E+04</pdfrwt>
<totfact> 0.42277087E+00</totfact>
</mgrwt>
</event>
<event>
11    6  0.1663299E-008  0.3240294E+04  0.7818608E-02  0.8178256E-01
         -1   -1    0    0    0  501 -0.00000000000E+00  0.00000000000E+00  0.10701206365E+04  0.10701206365E+04  0.00000000000E+00 0.  1.
          2   -1    0    0  501    0  0.00000000000E+00 -0.00000000000E+00 -0.24528795166E+04  0.24528795166E+04  0.00000000000E+00 0. -1.
         24    2    1    2    0    0 -0.14322835039E+03  0.18667468756E+03 -0.22429309337E+04  0.22566252482E+04  0.79098282096E+02 0.  0.
        254    2    1    2    0    0  0.14322835039E+03 -0.18667468756E+03  0.86017205357E+03  0.12663749049E+04  0.89913716351E+03 0.  0.
         23    2    4    4    0    0 -0.32152590712E+03 -0.19679624265E+03  0.17240679413E+03  0.42482188350E+03  0.92961604790E+02 0.  0.
          4    1    3    3  502    0 -0.76619609180E+02  0.15685660266E+03 -0.16554606946E+04  0.16646395014E+04  0.00000000000E+00 0. -1.
         -3    1    3    3    0  502 -0.66608741206E+02  0.29818084900E+02 -0.58747023906E+03  0.59198574676E+03  0.00000000000E+00 0.  1.
         11    1    4    4    0    0  0.37817471447E+03  0.63184640498E+02  0.54445586671E+03  0.66591336092E+03  0.00000000000E+00 0.  1.
        -11    1    4    4    0    0  0.86579543041E+02 -0.53063085406E+02  0.14330939274E+03  0.17563966053E+03  0.00000000000E+00 0. -1.
          2    1    5    5  503    0 -0.23006131967E+03 -0.91128849144E+02  0.12510284309E+03  0.27727855904E+03  0.00000000000E+00 0. -1.
         -2    1    5    5    0  503 -0.91464587456E+02 -0.10566739351E+03  0.47303951041E+02  0.14754332446E+03  0.00000000000E+00 0.  1.
<mgrwt>
<rscale>  0 0.32402944E+04</rscale>
<asrwt>0</asrwt>
<pdfrwt beam="1">  1        2 0.37736607E+00 0.32402944E+04</pdfrwt>
<pdfrwt beam="2">  1       -1 0.16463395E+00 0.32402944E+04</pdfrwt>
<totfact> 0.95331170E-01</totfact>
</mgrwt>
</event>
<event>
11    6  0.1663299E-008  0.2078826E+04  0.7818608E-02  0.8570629E-01
         -1   -1    0    0    0  501 -0.00000000000E+00  0.00000000000E+00  0.43476763176E+03  0.43476763176E+03  0.00000000000E+00 0.  1.
          2   -1    0    0  501    0  0.00000000000E+00 -0.00000000000E+00 -0.24849573055E+04  0.24849573055E+04  0.00000000000E+00 0. -1.
         24    2    1    2    0    0  0.50874724949E+03 -0.43683489501E+03 -0.11854416949E+03  0.68533660905E+03  0.77363158095E+02 0.  0.
        254    2    1    2    0    0 -0.50874724949E+03  0.43683489501E+03 -0.19316455043E+04  0.22343883282E+04  0.90088198884E+03 0.  0.
         23    2    4    4    0    0 -0.48145454808E+03  0.33002764624E+03 -0.47934464229E+03  0.76075452982E+03  0.90881457980E+02 0.  0.
          2    1    3    3  502    0  0.12919975217E+01 -0.74723950560E+01  0.51921132517E+01  0.91904290154E+01  0.00000000000E+00 0. -1.
         -1    1    3    3    0  502  0.50745525197E+03 -0.42936249995E+03 -0.12373628274E+03  0.67614618004E+03  0.00000000000E+00 0.  1.
         11    1    4    4    0    0  0.11220165154E+02 -0.64276833209E+02 -0.23986330330E+03  0.24857958014E+03  0.00000000000E+00 0.  1.
        -11    1    4    4    0    0 -0.38512866569E+02  0.17108408197E+03 -0.12124375587E+04  0.12250542183E+04  0.00000000000E+00 0. -1.
          4    1    5    5  503    0 -0.45498264314E+03  0.32859770199E+03 -0.43925633404E+03  0.71269332977E+03  0.00000000000E+00 0. -1.
         -4    1    5    5    0  503 -0.26471904940E+02  0.14299442486E+01 -0.40088308246E+02  0.48061200045E+02  0.00000000000E+00 0.  1.
<mgrwt>
<rscale>  0 0.20788256E+04</rscale>
<asrwt>0</asrwt>
<pdfrwt beam="1">  1        2 0.38230112E+00 0.20788256E+04</pdfrwt>
<pdfrwt beam="2">  1       -1 0.66887329E-01 0.20788256E+04</pdfrwt>
<totfact> 0.84532498E+00</totfact>
</mgrwt>
</event>
<event>
12    6  0.1663299E-008  0.1587241E+04  0.7818608E-02  0.8828425E-01
         -1   -1    0    0    0  501 -0.00000000000E+00  0.00000000000E+00  0.25319768957E+04  0.25319768957E+04  0.00000000000E+00 0.  1.
          2   -1    0    0  501    0  0.00000000000E+00 -0.00000000000E+00 -0.24875170776E+03  0.24875170776E+03  0.00000000000E+00 0. -1.
         24    2    1    2    0    0  0.73438273389E+02  0.23020064513E+03 -0.47353117500E+02  0.25900316135E+03  0.80341787601E+02 0.  0.
        254    2    1    2    0    0 -0.73438273389E+02 -0.23020064513E+03  0.23305783054E+04  0.25217254421E+04  0.93226522544E+03 0.  0.
         23    2    4    4    0    0 -0.14898413196E+03 -0.86342108630E+02  0.35070040119E+01  0.18717152552E+03  0.73277892891E+02 0.  0.
         23    2    4    4    0    0  0.75545858576E+02 -0.14385853651E+03  0.23270713014E+04  0.23345539166E+04  0.92079814762E+02 0.  0.
          4    1    3    3  502    0  0.62380758901E+02  0.95852303513E+02 -0.48432212874E+02  0.12419622544E+03  0.00000000000E+00 0. -1.
         -3    1    3    3    0  502  0.11057514488E+02  0.13434834162E+03  0.10790953741E+01  0.13480693591E+03  0.00000000000E+00 0.  1.
         11    1    5    5    0    0 -0.11008654255E+03 -0.48612708843E+02  0.33919321077E+02  0.12503104676E+03  0.00000000000E+00 0. -1.
        -11    1    5    5    0    0 -0.38897589413E+02 -0.37729399786E+02 -0.30412317065E+02  0.62140478753E+02  0.00000000000E+00 0.  1.
          1    1    6    6  503    0  0.68203151657E+02 -0.12981708745E+03  0.14616780884E+04  0.14690156501E+04  0.00000000000E+00 0. -1.
         -1    1    6    6    0  503  0.73427069187E+01 -0.14041449056E+02  0.86539321298E+03  0.86553826647E+03  0.00000000000E+00 0.  1.
<mgrwt>
<rscale>  0 0.15872411E+04</rscale>
<asrwt>0</asrwt>
<pdfrwt beam="1">  1        2 0.38269495E-01 0.15872411E+04</pdfrwt>
<pdfrwt beam="2">  1       -1 0.38953489E+00 0.15872411E+04</pdfrwt>
<totfact> 0.12613034E+00</totfact>
</mgrwt>
</event>
<event>
11    6  0.1663299E-008  0.1272988E+04  0.7818608E-02  0.9051264E-01
         -1   -1    0    0    0  501 -0.00000000000E+00  0.00000000000E+00  0.45272204121E+03  0.45272204121E+03  0.00000000000E+00 0.  1.
          2   -1    0    0  501    0  0.00000000000E+00 -0.00000000000E+00 -0.89486435723E+03  0.89486435723E+03  0.00000000000E+00 0. -1.
         24    2    1    2    0    0 -0.25314589069E+03  0.12925270134E+03 -0.22568388189E+03  0.37130598735E+03  0.78395273593E+02 0.  0.
        254    2    1    2    0    0  0.25314589069E+03 -0.12925270134E+03 -0.21645843414E+03  0.97628041109E+03  0.90855934566E+03 0.  0.
         23    2    4    4    0    0  0.36077450661E+03 -0.29722538893E+03 -0.15592443435E+03  0.50125878197E+03  0.91906261112E+02 0.  0.
          4    1    3    3  502    0 -0.27634446527E+02 -0.46735328876E+01 -0.44275431165E+02  0.52400556766E+02  0.00000000000E+00 0. -1.
         -3    1    3    3    0  502 -0.22551144416E+03  0.13392623423E+03 -0.18140845072E+03  0.31890543059E+03  0.00000000000E+00 0.  1.
         11    1    4    4    0    0 -0.63142542606E+02 -0.10064865306E+03  0.10313702722E+03  0.15733524218E+03  0.00000000000E+00 0. -1.
        -11    1    4    4    0    0 -0.44486073310E+02  0.26862134064E+03 -0.16367102701E+03  0.31768638694E+03  0.00000000000E+00 0.  1.
          2    1    5    5  503    0 -0.12223817390E+01  0.14907458121E+01 -0.93852983958E+01  0.95812507623E+01  0.00000000000E+00 0. -1.
         -2    1    5    5    0  503  0.36199688834E+03 -0.29871613474E+03 -0.14653913595E+03  0.49167753120E+03  0.00000000000E+00 0.  1.
<mgrwt>
<rscale>  0 0.12729883E+04</rscale>
<asrwt>0</asrwt>
<pdfrwt beam="1">  1        2 0.13767144E+00 0.12729883E+04</pdfrwt>
<pdfrwt beam="2">  1       -1 0.69649545E-01 0.12729883E+04</pdfrwt>
<totfact> 0.69068957E+01</totfact>
</mgrwt>
</event>
<event>
12    6  0.1663299E-008  0.1589024E+04  0.7818608E-02  0.8827320E-01
          2   -1    0    0  501    0  0.00000000000E+00  0.00000000000E+00  0.16501584450E+04  0.16501584450E+04  0.00000000000E+00 0. -1.
         -1   -1    0    0    0  501 -0.00000000000E+00 -0.00000000000E+00 -0.38253850042E+03  0.38253850042E+03  0.00000000000E+00 0.  1.
         24    2    1    2    0    0 -0.16357285885E+03 -0.52292407758E+03  0.37394111179E+03  0.66804083812E+03  0.78999590142E+02 0.  0.
        254    2    1    2    0    0  0.16357285885E+03  0.52292407758E+03  0.89367883283E+03  0.13646561074E+04  0.87373838419E+03 0.  0.
         23    2    4    4    0    0 -0.17547188119E+03  0.55483306750E+03  0.81400809727E+03  0.10036896949E+04  0.78445569045E+02 0.  0.
         23    2    4    4    0    0  0.33904474004E+03 -0.31908989917E+02  0.79670735566E+02  0.36096641247E+03  0.89329756748E+02 0.  0.
          4    1    3    3  502    0 -0.39326205364E+02 -0.13909828408E+03  0.14227094733E+03  0.20281988442E+03  0.00000000000E+00 0. -1.
         -3    1    3    3    0  502 -0.12424665349E+03 -0.38382579350E+03  0.23167016446E+03  0.46522095370E+03  0.00000000000E+00 0.  1.
         11    1    5    5    0    0 -0.13900030925E+03  0.41067084901E+03  0.65949411998E+03  0.78924275510E+03  0.00000000000E+00 0.  1.
        -11    1    5    5    0    0 -0.36471571941E+02  0.14416221849E+03  0.15451397729E+03  0.21444693977E+03  0.00000000000E+00 0. -1.
          1    1    6    6  503    0  0.47071703915E+01 -0.76346019353E+01  0.18017267224E+02  0.20126264383E+02  0.00000000000E+00 0. -1.
         -1    1    6    6    0  503  0.33433756965E+03 -0.24274387981E+02  0.61653468342E+02  0.34084014809E+03  0.00000000000E+00 0.  1.
<mgrwt>
<rscale>  0 0.15890238E+04</rscale>
<asrwt>0</asrwt>
<pdfrwt beam="1">  1        2 0.25387053E+00 0.15890238E+04</pdfrwt>
<pdfrwt beam="2">  1       -1 0.58852078E-01 0.15890238E+04</pdfrwt>
<totfact> 0.33448975E+01</totfact>
</mgrwt>
</event>
<event>
12    6  0.1663299E-008  0.1497321E+04  0.7818608E-02  0.8886236E-01
         -1   -1    0    0    0  501 -0.00000000000E+00  0.00000000000E+00  0.60602982796E+03  0.60602982796E+03  0.00000000000E+00 0.  1.
          2   -1    0    0  501    0  0.00000000000E+00 -0.00000000000E+00 -0.92485969268E+03  0.92485969268E+03  0.00000000000E+00 0. -1.
         24    2    1    2    0    0  0.17497715144E+03  0.24721187513E+03  0.27055024537E+03  0.41375632984E+03  0.79159020208E+02 0.  0.
        254    2    1    2    0    0 -0.17497715144E+03 -0.24721187513E+03 -0.58938011008E+03  0.11171331908E+04  0.89938141915E+03 0.  0.
         23    2    4    4    0    0  0.22017662801E+02  0.93259403635E+01 -0.74170286152E+03  0.74952628536E+03  0.10533169998E+03 0.  0.
         23    2    4    4    0    0 -0.19699481424E+03 -0.25653781549E+03  0.15232275144E+03  0.36760690544E+03  0.85521977925E+02 0.  0.
          2    1    3    3  502    0  0.93602537258E+02  0.81690971558E+02  0.75837013425E+02  0.14555446548E+03  0.00000000000E+00 0. -1.
         -1    1    3    3    0  502  0.81374614185E+02  0.16552090357E+03  0.19471323194E+03  0.26820186436E+03  0.00000000000E+00 0.  1.
         11    1    5    5    0    0  0.10522597212E+02  0.24311412331E+02 -0.42577865916E+02  0.50146231041E+02  0.00000000000E+00 0. -1.
        -11    1    5    5    0    0  0.11495065589E+02 -0.14985471967E+02 -0.69912499561E+03  0.69938005432E+03  0.00000000000E+00 0.  1.
          1    1    6    6  503    0 -0.20552375584E+03 -0.24577588883E+03  0.14207454978E+03  0.35047250883E+03  0.00000000000E+00 0.  1.
         -1    1    6    6    0  503  0.85289415998E+01 -0.10761926657E+02  0.10248201659E+02  0.17134396617E+02  0.00000000000E+00 0. -1.
<mgrwt>
<rscale>  0 0.14973210E+04</rscale>
<asrwt>0</asrwt>
<pdfrwt beam="1">  1        2 0.14228611E+00 0.14973210E+04</pdfrwt>
<pdfrwt beam="2">  1       -1 0.93235358E-01 0.14973210E+04</pdfrwt>
<totfact> 0.34757773E+01</totfact>
</mgrwt>
</event>
<event>
11    6  0.1663299E-008  0.2444021E+04  0.7818608E-02  0.8423204E-01
         -1   -1    0    0    0  501 -0.00000000000E+00  0.00000000000E+00  0.59335892588E+03  0.59335892588E+03  0.00000000000E+00 0.  1.
          2   -1    0    0  501    0  0.00000000000E+00 -0.00000000000E+00 -0.25167061216E+04  0.25167061216E+04  0.00000000000E+00 0. -1.
         24    2    1    2    0    0  0.29375646575E+02  0.10352602567E+04 -0.10803991650E+04  0.14987756098E+04  0.80244907823E+02 0.  0.
        254    2    1    2    0    0 -0.29375646575E+02 -0.10352602567E+04 -0.84294803079E+03  0.16112894377E+04  0.90170147027E+03 0.  0.
         23    2    4    4    0    0  0.14748259808E+03 -0.91855841834E+03 -0.29286187776E+03  0.97958228886E+03  0.91173990541E+02 0.  0.
          4    1    3    3  502    0  0.47985553806E+02  0.77465572898E+03 -0.84104064347E+03  0.11444402456E+04  0.00000000000E+00 0. -1.
         -3    1    3    3    0  502 -0.18609907232E+02  0.26060452775E+03 -0.23935852149E+03  0.35433536423E+03  0.00000000000E+00 0.  1.
         11    1    4    4    0    0 -0.66416122355E+02 -0.15046025897E+03 -0.17908819561E+03  0.24315010312E+03  0.00000000000E+00 0. -1.
        -11    1    4    4    0    0 -0.11044212230E+03  0.33758420578E+02 -0.37099795742E+03  0.38855704568E+03  0.00000000000E+00 0.  1.
          1    1    5    5  503    0  0.40781284833E+02 -0.11987632330E+03 -0.16320555598E+02  0.12767069599E+03  0.00000000000E+00 0. -1.
         -1    1    5    5    0  503  0.10670131325E+03 -0.79868209505E+03 -0.27654132216E+03  0.85191159287E+03  0.00000000000E+00 0.  1.
<mgrwt>
<rscale>  0 0.24440213E+04</rscale>
<asrwt>0</asrwt>
<pdfrwt beam="1">  1        2 0.38718556E+00 0.24440213E+04</pdfrwt>
<pdfrwt beam="2">  1       -1 0.91285988E-01 0.24440213E+04</pdfrwt>
<totfact> 0.40606800E+00</totfact>
</mgrwt>
</event>
<event>
12    6  0.4628004E-008  0.2476858E+04  0.7818608E-02  0.8411277E-01
          2   -1    0    0  501    0  0.00000000000E+00  0.00000000000E+00  0.19301205538E+04  0.19301205538E+04  0.00000000000E+00 0. -1.
         -1   -1    0    0    0  501 -0.00000000000E+00 -0.00000000000E+00 -0.79461697270E+03  0.79461697270E+03  0.00000000000E+00 0.  1.
         24    2    1    2    0    0  0.47711355100E+03  0.52769536907E+02 -0.56672843842E+03  0.74704815558E+03  0.80485149381E+02 0.  0.
        254    2    1    2    0    0 -0.47711355100E+03 -0.52769536907E+02  0.17022320195E+04  0.19776893709E+04  0.88500815533E+03 0.  0.
         23    2    4    4    0    0 -0.41257071642E+02 -0.29235011272E+03  0.14078384117E+03  0.33628758900E+03  0.78093009992E+02 0.  0.
         23    2    4    4    0    0 -0.43585647936E+03  0.23958057581E+03  0.15614481783E+04  0.16414017819E+04  0.93325629519E+02 0.  0.
          4    1    3    3  502    0  0.88309248161E+02  0.25871147484E+02 -0.15392620342E+03  0.17933520480E+03  0.00000000000E+00 0. -1.
         -3    1    3    3    0  502  0.38880430284E+03  0.26898389423E+02 -0.41280223500E+03  0.56771295078E+03  0.00000000000E+00 0.  1.
         11    1    5    5    0    0 -0.62118578939E+02 -0.23920187695E+03  0.10252539342E+03  0.26755880117E+03  0.00000000000E+00 0.  1.
        -11    1    5    5    0    0  0.20861507298E+02 -0.53148235773E+02  0.38258447748E+02  0.68728787830E+02  0.00000000000E+00 0. -1.
          2    1    6    6  503    0 -0.91091728115E+02  0.89097729818E+02  0.46899555354E+03  0.48599684940E+03  0.00000000000E+00 0. -1.
         -2    1    6    6    0  503 -0.34476475125E+03  0.15048284600E+03  0.10924526248E+04  0.11554049325E+04  0.00000000000E+00 0.  1.
<mgrwt>
<rscale>  0 0.24768581E+04</rscale>
<asrwt>0</asrwt>
<pdfrwt beam="1">  1        2 0.29694162E+00 0.24768581E+04</pdfrwt>
<pdfrwt beam="2">  1       -1 0.12224877E+00 0.24768581E+04</pdfrwt>
<totfact> 0.43941366E+00</totfact>
</mgrwt>
</event>
<event>
12    6  0.1663299E-008  0.1199526E+04  0.7818608E-02  0.9113272E-01
          2   -1    0    0  501    0  0.00000000000E+00  0.00000000000E+00  0.91846665932E+03  0.91846665932E+03  0.00000000000E+00 0. -1.
         -1   -1    0    0    0  501 -0.00000000000E+00 -0.00000000000E+00 -0.39164793602E+03  0.39164793602E+03  0.00000000000E+00 0.  1.
         24    2    1    2    0    0  0.17445013502E+03 -0.41171447094E+02  0.32776200827E+03  0.38209083387E+03  0.80234242095E+02 0.  0.
        254    2    1    2    0    0 -0.17445013502E+03  0.41171447094E+02  0.19905671503E+03  0.92802376147E+03  0.88852495091E+03 0.  0.
         23    2    4    4    0    0  0.17640837029E+02 -0.17779472711E+03  0.47183121377E+03  0.51864772232E+03  0.12020233551E+03 0.  0.
         23    2    4    4    0    0 -0.19209097205E+03  0.21896617420E+03 -0.27277449874E+03  0.40937603915E+03  0.91310937350E+02 0.  0.
          4    1    3    3  502    0  0.15258038793E+03 -0.10394895760E+02  0.22023023076E+03  0.26812344765E+03  0.00000000000E+00 0. -1.
         -3    1    3    3    0  502  0.21869747091E+02 -0.30776551334E+02  0.10753177750E+03  0.11396738622E+03  0.00000000000E+00 0.  1.
         11    1    5    5    0    0  0.48003445812E+02 -0.18527182913E+02  0.87355567665E+02  0.10138334438E+03  0.00000000000E+00 0. -1.
        -11    1    5    5    0    0 -0.30362608782E+02 -0.15926754419E+03  0.38447564611E+03  0.41726437794E+03  0.00000000000E+00 0.  1.
          2    1    6    6  503    0  0.10285445602E+02  0.11031615368E+02 -0.14389246346E+02  0.20845559222E+02  0.00000000000E+00 0. -1.
         -2    1    6    6    0  503 -0.20237641765E+03  0.20793455883E+03 -0.25838525239E+03  0.38853047993E+03  0.00000000000E+00 0.  1.
<mgrwt>
<rscale>  0 0.11995259E+04</rscale>
<asrwt>0</asrwt>
<pdfrwt beam="1">  1        2 0.14130256E+00 0.11995259E+04</pdfrwt>
<pdfrwt beam="2">  1       -1 0.60253529E-01 0.11995259E+04</pdfrwt>
<totfact> 0.89610034E+01</totfact>
</mgrwt>
</event>
<event>
12    6  0.1663299E-008  0.1534502E+04  0.7818608E-02  0.8861828E-01
         -1   -1    0    0    0  501 -0.00000000000E+00  0.00000000000E+00  0.20096539428E+03  0.20096539428E+03  0.00000000000E+00 0.  1.
          2   -1    0    0  501    0  0.00000000000E+00 -0.00000000000E+00 -0.29292299938E+04  0.29292299938E+04  0.00000000000E+00 0. -1.
         24    2    1    2    0    0 -0.46859669479E+03  0.13455262572E+03 -0.66914699323E+03  0.83251363022E+03  0.87372618648E+02 0.  0.
        254    2    1    2    0    0  0.46859669479E+03 -0.13455262572E+03 -0.20591176063E+04  0.22976817579E+04  0.89537080167E+03 0.  0.
         23    2    4    4    0    0  0.64822647381E+03  0.11394563447E+03 -0.10945006452E+04  0.12814307856E+04  0.10465193186E+03 0.  0.
         23    2    4    4    0    0 -0.17962977902E+03 -0.24849826018E+03 -0.96461696106E+03  0.10162509723E+04  0.90895073079E+02 0.  0.
          4    1    3    3  502    0 -0.10782339801E+03  0.55610180443E+01 -0.10533086456E+03  0.15083567585E+03  0.00000000000E+00 0. -1.
         -3    1    3    3    0  502 -0.36077329678E+03  0.12899160767E+03 -0.56381612867E+03  0.68167795437E+03  0.00000000000E+00 0.  1.
         11    1    5    5    0    0  0.43278038068E+03  0.67971060635E+02 -0.81776876459E+03  0.92772014924E+03  0.00000000000E+00 0. -1.
        -11    1    5    5    0    0  0.21544609314E+03  0.45974573830E+02 -0.27673188062E+03  0.35371063631E+03  0.00000000000E+00 0.  1.
          3    1    6    6  503    0 -0.16276931702E+03 -0.25143909209E+03 -0.93748848597E+03  0.98417484672E+03  0.00000000000E+00 0. -1.
         -3    1    6    6    0  503 -0.16860462003E+02  0.29408319137E+01 -0.27128475096E+02  0.32076125582E+02  0.00000000000E+00 0.  1.
<mgrwt>
<rscale>  0 0.15345017E+04</rscale>
<asrwt>0</asrwt>
<pdfrwt beam="1">  1        2 0.45065076E+00 0.15345017E+04</pdfrwt>
<pdfrwt beam="2">  1       -1 0.30917753E-01 0.15345017E+04</pdfrwt>
<totfact> 0.20590104E+01</totfact>
</mgrwt>
</event>
<event>
12    6  0.1663299E-008  0.1223192E+04  0.7818608E-02  0.9092795E-01
          2   -1    0    0  501    0  0.00000000000E+00  0.00000000000E+00  0.81058188644E+03  0.81058188644E+03  0.00000000000E+00 0. -1.
         -1   -1    0    0    0  501 -0.00000000000E+00 -0.00000000000E+00 -0.46145840399E+03  0.46145840399E+03  0.00000000000E+00 0.  1.
         24    2    1    2    0    0 -0.13496499711E+03  0.16653591514E+03  0.21806240194E+03  0.31022452946E+03  0.52328635191E+02 0.  0.
        254    2    1    2    0    0  0.13496499711E+03 -0.16653591514E+03  0.13106108051E+03  0.96181576097E+03  0.92841951173E+03 0.  0.
         23    2    4    4    0    0 -0.16867709316E+03 -0.44009211049E+03  0.22568316199E+03  0.53348377547E+03  0.10741983804E+03 0.  0.
         23    2    4    4    0    0  0.30364209026E+03  0.27355619535E+03 -0.94622081486E+02  0.42833198551E+03  0.86506881279E+02 0.  0.
          2    1    3    3  502    0 -0.87490348780E+01  0.68060963198E+01  0.34045693487E+02  0.35804717614E+02  0.00000000000E+00 0. -1.
         -3    1    3    3    0  502 -0.12621596223E+03  0.15972981882E+03  0.18401670846E+03  0.27441981184E+03  0.00000000000E+00 0.  1.
         11    1    5    5    0    0 -0.13533213338E+03 -0.23150055507E+03  0.16002788397E+03  0.31227586678E+03  0.00000000000E+00 0. -1.
        -11    1    5    5    0    0 -0.33344959784E+02 -0.20859155542E+03  0.65655278023E+02  0.22120790869E+03  0.00000000000E+00 0.  1.
          4    1    6    6  503    0  0.60125046987E+02  0.33219228683E+02 -0.46190271477E+02  0.82777289208E+02  0.00000000000E+00 0. -1.
         -4    1    6    6    0  503  0.24351704328E+03  0.24033696667E+03 -0.48431810009E+02  0.34555469630E+03  0.00000000000E+00 0.  1.
<mgrwt>
<rscale>  0 0.12231923E+04</rscale>
<asrwt>0</asrwt>
<pdfrwt beam="1">  1        2 0.12470491E+00 0.12231923E+04</pdfrwt>
<pdfrwt beam="2">  1       -1 0.70993601E-01 0.12231923E+04</pdfrwt>
<totfact> 0.76320146E+01</totfact>
</mgrwt>
</event>
<event>
11    6  0.1663299E-008  0.1727333E+04  0.7818608E-02  0.8745927E-01
         -1   -1    0    0    0  501 -0.00000000000E+00  0.00000000000E+00  0.53760758348E+03  0.53760758348E+03  0.00000000000E+00 0.  1.
          2   -1    0    0  501    0  0.00000000000E+00 -0.00000000000E+00 -0.13874799558E+04  0.13874799558E+04  0.00000000000E+00 0. -1.
         24    2    1    2    0    0 -0.29906080808E+03  0.18156630693E+03 -0.87096844308E+03  0.94191833358E+03  0.78869687224E+02 0.  0.
        254    2    1    2    0    0  0.29906080808E+03 -0.18156630693E+03  0.21096070706E+02  0.98316920574E+03  0.91857114704E+03 0.  0.
         23    2    4    4    0    0  0.31141686692E+03  0.24798656413E+02  0.40536740645E+03  0.52012285778E+03  0.92788008992E+02 0.  0.
          4    1    3    3  502    0 -0.21674518468E+03  0.10416762388E+03 -0.66257245155E+03  0.70486283949E+03  0.00000000000E+00 0. -1.
         -1    1    3    3    0  502 -0.82315623405E+02  0.77398683047E+02 -0.20839599153E+03  0.23705549409E+03  0.00000000000E+00 0.  1.
         11    1    4    4    0    0  0.51670028743E+02 -0.77273661449E+02 -0.67002513312E+02  0.11458772803E+03  0.00000000000E+00 0. -1.
        -11    1    4    4    0    0 -0.64026087577E+02 -0.12909130189E+03 -0.31726882244E+03  0.34845861993E+03  0.00000000000E+00 0.  1.
          1    1    5    5  503    0  0.41796638337E+02  0.36056603163E+02  0.55516995406E+02  0.78289043849E+02  0.00000000000E+00 0. -1.
         -1    1    5    5    0  503  0.26962022858E+03 -0.11257946751E+02  0.34985041105E+03  0.44183381393E+03  0.00000000000E+00 0.  1.
<mgrwt>
<rscale>  0 0.17273329E+04</rscale>
<asrwt>0</asrwt>
<pdfrwt beam="1">  1        2 0.21345845E+00 0.17273329E+04</pdfrwt>
<pdfrwt beam="2">  1       -1 0.82708861E-01 0.17273329E+04</pdfrwt>
<totfact> 0.23125825E+01</totfact>
</mgrwt>
</event>
<event>
12    6  0.1663299E-008  0.1312760E+04  0.7818608E-02  0.9019507E-01
         -1   -1    0    0    0  501 -0.00000000000E+00  0.00000000000E+00  0.95971894635E+03  0.95971894635E+03  0.00000000000E+00 0.  1.
          2   -1    0    0  501    0  0.00000000000E+00 -0.00000000000E+00 -0.44891763645E+03  0.44891763645E+03  0.00000000000E+00 0. -1.
         24    2    1    2    0    0  0.55506927777E+02 -0.46069139624E+02  0.48667067847E+03  0.49834077232E+03  0.79320813228E+02 0.  0.
        254    2    1    2    0    0 -0.55506927777E+02  0.46069139624E+02  0.24130631424E+02  0.91029581048E+03  0.90711233623E+03 0.  0.
         23    2    4    4    0    0 -0.40725959273E+03  0.18973914580E+03 -0.15843765560E+03  0.48080413147E+03  0.64875286534E+02 0.  0.
         23    2    4    4    0    0  0.35175266496E+03 -0.14367000618E+03  0.18256828703E+03  0.42949167901E+03  0.82224782931E+02 0.  0.
          4    1    3    3  502    0  0.47712143100E+01  0.56981176865E+01  0.12477083338E+01  0.75359012233E+01  0.00000000000E+00 0. -1.
         -3    1    3    3    0  502  0.50735713467E+02 -0.51767257310E+02  0.48542297014E+03  0.49080487109E+03  0.00000000000E+00 0.  1.
         11    1    5    5    0    0 -0.12336454260E+03  0.32709767311E+02 -0.64778466362E+02  0.14312578019E+03  0.00000000000E+00 0.  1.
        -11    1    5    5    0    0 -0.28389505013E+03  0.15702937849E+03 -0.93659189242E+02  0.33767835129E+03  0.00000000000E+00 0. -1.
          3    1    6    6  503    0  0.19179700144E+03 -0.10510216000E+03  0.68144618029E+02  0.22907693635E+03  0.00000000000E+00 0. -1.
         -3    1    6    6    0  503  0.15995566351E+03 -0.38567846182E+02  0.11442366900E+03  0.20041474266E+03  0.00000000000E+00 0.  1.
<mgrwt>
<rscale>  0 0.13127601E+04</rscale>
<asrwt>0</asrwt>
<pdfrwt beam="1">  1        2 0.69064252E-01 0.13127601E+04</pdfrwt>
<pdfrwt beam="2">  1       -1 0.14764907E+00 0.13127601E+04</pdfrwt>
<totfact> 0.28445361E+01</totfact>
</mgrwt>
</event>
<event>
11    6  0.1663299E-008  0.2388226E+04  0.7818608E-02  0.8443925E-01
          2   -1    0    0  501    0  0.00000000000E+00  0.00000000000E+00  0.10725449761E+04  0.10725449761E+04  0.00000000000E+00 0. -1.
         -1   -1    0    0    0  501 -0.00000000000E+00 -0.00000000000E+00 -0.13294596694E+04  0.13294596694E+04  0.00000000000E+00 0.  1.
         24    2    1    2    0    0  0.58059398444E+03 -0.66174581768E+03  0.41359041248E+03  0.97592938875E+03  0.79901442667E+02 0.  0.
        254    2    1    2    0    0 -0.58059398444E+03  0.66174581768E+03 -0.67050510579E+03  0.14260752567E+04  0.89950911002E+03 0.  0.
         23    2    4    4    0    0 -0.35728127889E+03  0.64305304719E+03 -0.26467720796E+02  0.74270762131E+03  0.98726575777E+02 0.  0.
          2    1    3    3  502    0  0.47856500596E+03 -0.49552334826E+03  0.32570247006E+03  0.76200390589E+03  0.00000000000E+00 0. -1.
         -1    1    3    3    0  502  0.10202897849E+03 -0.16622246942E+03  0.87887942419E+02  0.21392548286E+03  0.00000000000E+00 0.  1.
         11    1    4    4    0    0 -0.86505453119E+02  0.27070360193E+02 -0.28449678800E+03  0.29858737449E+03  0.00000000000E+00 0.  1.
        -11    1    4    4    0    0 -0.13680725243E+03 -0.83775897027E+01 -0.35954059699E+03  0.38478026094E+03  0.00000000000E+00 0. -1.
          2    1    5    5  503    0 -0.22364398053E+03  0.33519567018E+03  0.22298819462E+02  0.40357156080E+03  0.00000000000E+00 0.  1.
         -2    1    5    5    0  503 -0.13363729836E+03  0.30785737701E+03 -0.48766540258E+02  0.33913606052E+03  0.00000000000E+00 0. -1.
<mgrwt>
<rscale>  0 0.23882255E+04</rscale>
<asrwt>0</asrwt>
<pdfrwt beam="1">  1        2 0.16500692E+00 0.23882255E+04</pdfrwt>
<pdfrwt beam="2">  1       -1 0.20453226E+00 0.23882255E+04</pdfrwt>
<totfact> 0.32571107E+00</totfact>
</mgrwt>
</event>
<event>
12    6  0.1663299E-008  0.2632305E+04  0.7818608E-02  0.8357310E-01
          2   -1    0    0  501    0  0.00000000000E+00  0.00000000000E+00  0.14536925086E+04  0.14536925086E+04  0.00000000000E+00 0. -1.
         -1   -1    0    0    0  501 -0.00000000000E+00 -0.00000000000E+00 -0.11916260800E+04  0.11916260800E+04  0.00000000000E+00 0.  1.
         24    2    1    2    0    0 -0.67518001016E+03 -0.45955303909E+03 -0.71230017125E+03  0.10866325987E+04  0.79635599698E+02 0.  0.
        254    2    1    2    0    0  0.67518001016E+03  0.45955303909E+03  0.97436659987E+03  0.15586859900E+04  0.90169545997E+03 0.  0.
         23    2    4    4    0    0  0.63489865115E+03  0.17540044860E+03  0.10538459382E+04  0.12472005382E+04  0.10514897253E+03 0.  0.
         23    2    4    4    0    0  0.40281359008E+02  0.28415259049E+03 -0.79479338295E+02  0.31148545180E+03  0.91328740829E+02 0.  0.
          4    1    3    3  502    0 -0.39197717938E+03 -0.28014124022E+03 -0.46925270699E+03  0.67254986926E+03  0.00000000000E+00 0. -1.
         -3    1    3    3    0  502 -0.28320283078E+03 -0.17941179887E+03 -0.24304746426E+03  0.41408272944E+03  0.00000000000E+00 0.  1.
         11    1    5    5    0    0  0.23174792516E+03  0.10695426558E+03  0.46221524761E+03  0.52800497239E+03  0.00000000000E+00 0.  1.
        -11    1    5    5    0    0  0.40315072599E+03  0.68446183017E+02  0.59163069056E+03  0.71919556578E+03  0.00000000000E+00 0. -1.
          2    1    6    6  503    0 -0.91913665473E+01  0.19954558577E+03 -0.31024013519E+02  0.20215195135E+03  0.00000000000E+00 0. -1.
         -2    1    6    6    0  503  0.49472725555E+02  0.84607004716E+02 -0.48455324776E+02  0.10933350045E+03  0.00000000000E+00 0.  1.
<mgrwt>
<rscale>  0 0.26323054E+04</rscale>
<asrwt>0</asrwt>
<pdfrwt beam="1">  1        2 0.22364500E+00 0.26323054E+04</pdfrwt>
<pdfrwt beam="2">  1       -1 0.18332709E+00 0.26323054E+04</pdfrwt>
<totfact> 0.26694433E+00</totfact>
</mgrwt>
</event>
<event>
12    6  0.1663299E-008  0.2252229E+04  0.7818608E-02  0.8496998E-01
          2   -1    0    0  501    0  0.00000000000E+00  0.00000000000E+00  0.31786420340E+04  0.31786420340E+04  0.00000000000E+00 0. -1.
         -1   -1    0    0    0  501 -0.00000000000E+00 -0.00000000000E+00 -0.39895455393E+03  0.39895455393E+03  0.00000000000E+00 0.  1.
         24    2    1    2    0    0 -0.56045438963E+03 -0.30688971160E+03  0.66313265998E+02  0.64741457271E+03  0.80360200162E+02 0.  0.
        254    2    1    2    0    0  0.56045438963E+03  0.30688971160E+03  0.27133742141E+04  0.29301820152E+04  0.90292668514E+03 0.  0.
         23    2    4    4    0    0 -0.11226052776E+03  0.26803633192E+03  0.33254415077E+03  0.45386846952E+03  0.10471424969E+03 0.  0.
         23    2    4    4    0    0  0.67271491739E+03  0.38853379688E+02  0.23808300633E+04  0.24763135457E+04  0.98600411269E+02 0.  0.
          2    1    3    3  502    0 -0.31558360657E+03 -0.21714948221E+03  0.46005715522E+02  0.38582824705E+03  0.00000000000E+00 0. -1.
         -1    1    3    3    0  502 -0.24487078306E+03 -0.89740229392E+02  0.20307550476E+02  0.26158632566E+03  0.00000000000E+00 0.  1.
         11    1    5    5    0    0 -0.32277433904E+02  0.20296813125E+03  0.21256144139E+03  0.29566917561E+03  0.00000000000E+00 0.  1.
        -11    1    5    5    0    0 -0.79983093854E+02  0.65068200670E+02  0.11998270938E+03  0.15819929390E+03  0.00000000000E+00 0. -1.
          4    1    6    6  503    0  0.50999899552E+03  0.68839168476E+02  0.18555247143E+04  0.19255673896E+04  0.00000000000E+00 0. -1.
         -4    1    6    6    0  503  0.16271592187E+03 -0.29985788788E+02  0.52530534904E+03  0.55074615613E+03  0.00000000000E+00 0.  1.
<mgrwt>
<rscale>  0 0.22522289E+04</rscale>
<asrwt>0</asrwt>
<pdfrwt beam="1">  1        2 0.48902183E+00 0.22522289E+04</pdfrwt>
<pdfrwt beam="2">  1       -1 0.61377626E-01 0.22522289E+04</pdfrwt>
<totfact> 0.37389641E+00</totfact>
</mgrwt>
</event>
<event>
12    6  0.1663299E-008  0.1092672E+04  0.7818608E-02  0.9212364E-01
         -1   -1    0    0    0  501 -0.00000000000E+00  0.00000000000E+00  0.21871154913E+03  0.21871154913E+03  0.00000000000E+00 0.  1.
          2   -1    0    0  501    0  0.00000000000E+00 -0.00000000000E+00 -0.13647330284E+04  0.13647330284E+04  0.00000000000E+00 0. -1.
         24    2    1    2    0    0  0.66620438798E+02  0.13043267344E+02 -0.39401137580E+03  0.40781580612E+03  0.80376350848E+02 0.  0.
        254    2    1    2    0    0 -0.66620438798E+02 -0.13043267344E+02 -0.75201010344E+03  0.11756287714E+04  0.90109677768E+03 0.  0.
         23    2    4    4    0    0  0.35847687777E+03 -0.15284747828E+03 -0.52981737109E+03  0.66701940139E+03  0.11108740525E+03 0.  0.
         23    2    4    4    0    0 -0.42509731657E+03  0.13980421094E+03 -0.22219273235E+03  0.50860937000E+03  0.95188943620E+02 0.  0.
          4    1    3    3  502    0  0.14728855225E+02 -0.32761465668E+02 -0.12752475296E+03  0.13248703871E+03  0.00000000000E+00 0. -1.
         -3    1    3    3    0  502  0.51891583573E+02  0.45804733012E+02 -0.26648662284E+03  0.27532876741E+03  0.00000000000E+00 0.  1.
         11    1    5    5    0    0  0.55718864670E+01 -0.23084007594E+02 -0.64740872620E+02  0.68958668150E+02  0.00000000000E+00 0.  1.
        -11    1    5    5    0    0  0.35290499131E+03 -0.12976347068E+03 -0.46507649847E+03  0.59806073324E+03  0.00000000000E+00 0. -1.
          2    1    6    6  503    0 -0.30977835452E+03  0.13919797383E+03 -0.18872604875E+03  0.38853085633E+03  0.00000000000E+00 0. -1.
         -2    1    6    6    0  503 -0.11531896205E+03  0.60623710200E+00 -0.33466683608E+02  0.12007851366E+03  0.00000000000E+00 0.  1.
<mgrwt>
<rscale>  0 0.10926717E+04</rscale>
<asrwt>0</asrwt>
<pdfrwt beam="1">  1        2 0.20995893E+00 0.10926717E+04</pdfrwt>
<pdfrwt beam="2">  1       -1 0.33647931E-01 0.10926717E+04</pdfrwt>
<totfact> 0.14277210E+02</totfact>
</mgrwt>
</event>
<event>
12    6  0.1663299E-008  0.1315570E+04  0.7818608E-02  0.9017308E-01
         -1   -1    0    0    0  501 -0.00000000000E+00  0.00000000000E+00  0.36953864323E+03  0.36953864323E+03  0.00000000000E+00 0.  1.
          2   -1    0    0  501    0  0.00000000000E+00 -0.00000000000E+00 -0.11708688937E+04  0.11708688937E+04  0.00000000000E+00 0. -1.
         24    2    1    2    0    0  0.23879968083E+03  0.20847395564E+03 -0.95128792780E+02  0.34061588747E+03  0.80517189700E+02 0.  0.
        254    2    1    2    0    0 -0.23879968083E+03 -0.20847395564E+03 -0.70620145766E+03  0.11997916494E+04  0.91667487448E+03 0.  0.
         23    2    4    4    0    0 -0.43100845172E+03  0.65344705458E+02 -0.72555593652E+03  0.85332692688E+03  0.10815364596E+03 0.  0.
         23    2    4    4    0    0  0.19220877090E+03 -0.27381866110E+03  0.19354478862E+02  0.34646472255E+03  0.87990552575E+02 0.  0.
          2    1    3    3  502    0  0.69559901182E+02  0.49484324530E+02 -0.63222129032E+02  0.10622766036E+03  0.00000000000E+00 0. -1.
         -1    1    3    3    0  502  0.16923977965E+03  0.15898963111E+03 -0.31906663748E+02  0.23438822711E+03  0.00000000000E+00 0.  1.
         11    1    5    5    0    0 -0.29341361344E+03  0.61830486997E+02 -0.40036386296E+03  0.50020573811E+03  0.00000000000E+00 0. -1.
        -11    1    5    5    0    0 -0.13759483828E+03  0.35142184612E+01 -0.32519207356E+03  0.35312118877E+03  0.00000000000E+00 0.  1.
          4    1    6    6  503    0  0.81505513925E+02 -0.58761160692E+02 -0.16882565670E+02  0.10188740761E+03  0.00000000000E+00 0. -1.
         -4    1    6    6    0  503  0.11070325697E+03 -0.21505750041E+03  0.36237044532E+02  0.24457731494E+03  0.00000000000E+00 0.  1.
<mgrwt>
<rscale>  0 0.13155703E+04</rscale>
<asrwt>0</asrwt>
<pdfrwt beam="1">  1        2 0.18013367E+00 0.13155703E+04</pdfrwt>
<pdfrwt beam="2">  1       -1 0.56852101E-01 0.13155703E+04</pdfrwt>
<totfact> 0.68949851E+01</totfact>
</mgrwt>
</event>
<event>
12    6  0.2373744E-008  0.2648221E+04  0.7818608E-02  0.8352004E-01
         -1   -1    0    0    0  501 -0.00000000000E+00  0.00000000000E+00  0.89763681165E+03  0.89763681165E+03  0.00000000000E+00 0.  1.
          2   -1    0    0  501    0  0.00000000000E+00 -0.00000000000E+00 -0.19532051670E+04  0.19532051670E+04  0.00000000000E+00 0. -1.
         24    2    1    2    0    0  0.23428348138E+03  0.59666222014E+03  0.58603303652E+03  0.87228941197E+03  0.80991010285E+02 0.  0.
        254    2    1    2    0    0 -0.23428348138E+03 -0.59666222014E+03 -0.16416013918E+04  0.19785525667E+04  0.89940011936E+03 0.  0.
         23    2    4    4    0    0 -0.50369098895E+02 -0.29397752213E+03 -0.28319689947E+02  0.32408401678E+03  0.12356623913E+03 0.  0.
         23    2    4    4    0    0 -0.18391438249E+03 -0.30268469801E+03 -0.16132817019E+04  0.16544685499E+04  0.95633709232E+02 0.  0.
          4    1    3    3  502    0  0.41956510479E+01  0.82791047889E+02  0.82190800225E+02  0.11673597877E+03  0.00000000000E+00 0. -1.
         -3    1    3    3    0  502  0.23008783034E+03  0.51387117225E+03  0.50384223629E+03  0.75555343320E+03  0.00000000000E+00 0.  1.
         11    1    5    5    0    0 -0.59640037901E+01  0.10088153891E+02 -0.11366127069E+02  0.16325716973E+02  0.00000000000E+00 0. -1.
        -11    1    5    5    0    0 -0.44405095105E+02 -0.30406567602E+03 -0.16953562878E+02  0.30775829981E+03  0.00000000000E+00 0.  1.
          4    1    6    6  503    0 -0.17347320920E+02 -0.96594781368E+02 -0.33864161921E+03  0.35257570476E+03  0.00000000000E+00 0. -1.
         -4    1    6    6    0  503 -0.16656706157E+03 -0.20608991664E+03 -0.12746400827E+04  0.13018928451E+04  0.00000000000E+00 0.  1.
<mgrwt>
<rscale>  0 0.26482212E+04</rscale>
<asrwt>0</asrwt>
<pdfrwt beam="1">  1        2 0.30049310E+00 0.26482212E+04</pdfrwt>
<pdfrwt beam="2">  1       -1 0.13809797E+00 0.26482212E+04</pdfrwt>
<totfact> 0.30892075E+00</totfact>
</mgrwt>
</event>
<event>
12    6  0.1663299E-008  0.1471015E+04  0.7818608E-02  0.8903960E-01
         -1   -1    0    0    0  501 -0.00000000000E+00  0.00000000000E+00  0.40430625641E+03  0.40430625641E+03  0.00000000000E+00 0.  1.
          2   -1    0    0  501    0  0.00000000000E+00 -0.00000000000E+00 -0.13380239686E+04  0.13380239686E+04  0.00000000000E+00 0. -1.
         24    2    1    2    0    0  0.49308681315E+02  0.46381526472E+03 -0.19803489548E+03  0.51285422553E+03  0.79029684134E+02 0.  0.
        254    2    1    2    0    0 -0.49308681315E+02 -0.46381526472E+03 -0.73568281666E+03  0.12294759994E+04  0.86765550804E+03 0.  0.
         23    2    4    4    0    0 -0.33712419149E+03 -0.33868771656E+03 -0.80257666914E+02  0.49747266077E+03  0.11258625705E+03 0.  0.
         23    2    4    4    0    0  0.28781551017E+03 -0.12512754816E+03 -0.65542514975E+03  0.73200333868E+03  0.88045952248E+02 0.  0.
          4    1    3    3  502    0  0.10513296157E+02  0.33262756056E+02 -0.38766525133E+02  0.52151546548E+02  0.00000000000E+00 0. -1.
         -3    1    3    3    0  502  0.38795385158E+02  0.43055250867E+03 -0.15926837035E+03  0.46070267898E+03  0.00000000000E+00 0.  1.
         11    1    5    5    0    0 -0.15769601368E+03 -0.92812480395E+02 -0.11800917069E+01  0.18298519575E+03  0.00000000000E+00 0.  1.
        -11    1    5    5    0    0 -0.17942817781E+03 -0.24587523617E+03 -0.79077575207E+02  0.31448746502E+03  0.00000000000E+00 0. -1.
          2    1    6    6  503    0  0.36897750117E+02 -0.29211544709E+02 -0.45121700645E+02  0.65197593338E+02  0.00000000000E+00 0. -1.
         -2    1    6    6    0  503  0.25091776006E+03 -0.95916003449E+02 -0.61030344910E+03  0.66680574534E+03  0.00000000000E+00 0.  1.
<mgrwt>
<rscale>  0 0.14710152E+04</rscale>
<asrwt>0</asrwt>
<pdfrwt beam="1">  1        2 0.20584984E+00 0.14710152E+04</pdfrwt>
<pdfrwt beam="2">  1       -1 0.62200962E-01 0.14710152E+04</pdfrwt>
<totfact> 0.45456879E+01</totfact>
</mgrwt>
</event>
<event>
12    6  0.1663299E-008  0.1553817E+04  0.7818608E-02  0.8849433E-01
          2   -1    0    0  501    0  0.00000000000E+00  0.00000000000E+00  0.38795035305E+04  0.38795035305E+04  0.00000000000E+00 0. -1.
         -1   -1    0    0    0  501 -0.00000000000E+00 -0.00000000000E+00 -0.15558352994E+03  0.15558352994E+03  0.00000000000E+00 0.  1.
         24    2    1    2    0    0  0.11604953547E+03 -0.32330313156E+03  0.25472234834E+03  0.43525802204E+03  0.81078119395E+02 0.  0.
        254    2    1    2    0    0 -0.11604953547E+03  0.32330313156E+03  0.34691976522E+04  0.35998290384E+04  0.89746551241E+03 0.  0.
         23    2    4    4    0    0  0.34734474012E+03  0.35736322632E+02  0.88786843937E+03  0.95996180466E+03  0.10625839981E+03 0.  0.
         23    2    4    4    0    0 -0.46339427558E+03  0.28756680893E+03  0.25813292128E+04  0.26398672337E+04  0.90606745973E+02 0.  0.
          2    1    3    3  502    0  0.11234654923E+02 -0.24824953153E+02  0.54334056954E+02  0.60783924810E+02  0.00000000000E+00 0. -1.
         -1    1    3    3    0  502  0.10481488054E+03 -0.29847817841E+03  0.20038829139E+03  0.37447409723E+03  0.00000000000E+00 0.  1.
         11    1    5    5    0    0  0.24353038839E+03 -0.20496311997E+02  0.54357915924E+03  0.59599115030E+03  0.00000000000E+00 0. -1.
        -11    1    5    5    0    0  0.10381435173E+03  0.56232634629E+02  0.34428928013E+03  0.36397065436E+03  0.00000000000E+00 0.  1.
          4    1    6    6  503    0 -0.22849377947E+02  0.10065295160E+02  0.54403269279E+02  0.59859167615E+02  0.00000000000E+00 0. -1.
         -4    1    6    6    0  503 -0.44054489764E+03  0.27750151377E+03  0.25269259435E+04  0.25800080661E+04  0.00000000000E+00 0.  1.
<mgrwt>
<rscale>  0 0.15538170E+04</rscale>
<asrwt>0</asrwt>
<pdfrwt beam="1">  1        2 0.59684663E+00 0.15538170E+04</pdfrwt>
<pdfrwt beam="2">  1       -1 0.23935931E-01 0.15538170E+04</pdfrwt>
<totfact> 0.71910454E+00</totfact>
</mgrwt>
</event>
<event>
11    6  0.1663299E-008  0.1168917E+04  0.7818608E-02  0.9140507E-01
         -1   -1    0    0    0  501 -0.00000000000E+00  0.00000000000E+00  0.34922386876E+03  0.34922386876E+03  0.00000000000E+00 0.  1.
          2   -1    0    0  501    0  0.00000000000E+00 -0.00000000000E+00 -0.97814589795E+03  0.97814589795E+03  0.00000000000E+00 0. -1.
         24    2    1    2    0    0  0.55555360935E+02  0.13636193271E+03 -0.32529273755E+03  0.36690592461E+03  0.84401526026E+02 0.  0.
        254    2    1    2    0    0 -0.55555360935E+02 -0.13636193271E+03 -0.30362929164E+03  0.96046384210E+03  0.89923248964E+03 0.  0.
         23    2    4    4    0    0  0.75401413052E+02 -0.39231907720E+02 -0.58673272753E+03  0.59973469772E+03  0.90564333030E+02 0.  0.
          2    1    3    3  502    0  0.62270007732E+02  0.10864130488E+03 -0.18273759056E+03  0.22152542516E+03  0.00000000000E+00 0. -1.
         -1    1    3    3    0  502 -0.67146467978E+01  0.27720627829E+02 -0.14255514699E+03  0.14538049946E+03  0.00000000000E+00 0.  1.
         11    1    4    4    0    0 -0.37851636184E+01 -0.50601356468E+02  0.44786290171E+01  0.50939992716E+02  0.00000000000E+00 0. -1.
        -11    1    4    4    0    0 -0.12717161037E+03 -0.46528668517E+02  0.27862480688E+03  0.30978915166E+03  0.00000000000E+00 0.  1.
          3    1    5    5  503    0 -0.19380391748E+01  0.21929209190E+02 -0.17402898030E+03  0.17541588353E+03  0.00000000000E+00 0. -1.
         -3    1    5    5    0  503  0.77339452227E+02 -0.61161116910E+02 -0.41270374724E+03  0.42431881419E+03  0.00000000000E+00 0.  1.
<mgrwt>
<rscale>  0 0.11689173E+04</rscale>
<asrwt>0</asrwt>
<pdfrwt beam="1">  1        2 0.15048398E+00 0.11689173E+04</pdfrwt>
<pdfrwt beam="2">  1       -1 0.53726750E-01 0.11689173E+04</pdfrwt>
<totfact> 0.10259362E+02</totfact>
</mgrwt>
</event>
<event>
11    6  0.1663299E-008  0.1181208E+04  0.7818608E-02  0.9129466E-01
          2   -1    0    0  501    0  0.00000000000E+00  0.00000000000E+00  0.32477726710E+04  0.32477726710E+04  0.00000000000E+00 0. -1.
         -1   -1    0    0    0  501 -0.00000000000E+00 -0.00000000000E+00 -0.10740077144E+03  0.10740077144E+03  0.00000000000E+00 0.  1.
         24    2    1    2    0    0 -0.56816739131E+02  0.19485019786E+03  0.31189832798E+03  0.38071733496E+03  0.80438676600E+02 0.  0.
        254    2    1    2    0    0  0.56816739131E+02 -0.19485019786E+03  0.28284735716E+04  0.29744561075E+04  0.89773695965E+03 0.  0.
         23    2    4    4    0    0 -0.37413530644E+03  0.48998191613E+02  0.10380548578E+04  0.11083511791E+04  0.92230136978E+02 0.  0.
          2    1    3    3  502    0 -0.38491027455E+02  0.34013066763E+02  0.11405492026E+03  0.12508786009E+03  0.00000000000E+00 0. -1.
         -1    1    3    3    0  502 -0.18325711676E+02  0.16083713110E+03  0.19784340772E+03  0.25562947487E+03  0.00000000000E+00 0.  1.
         11    1    4    4    0    0 -0.16400071233E+02 -0.61191271136E+01  0.36337570495E+02  0.40333919752E+02  0.00000000000E+00 0.  1.
        -11    1    4    4    0    0  0.44735211681E+03 -0.23772926236E+03  0.17540811433E+04  0.18257710086E+04  0.00000000000E+00 0. -1.
          2    1    5    5  503    0 -0.33953128632E+03  0.56370996140E+02  0.99367768679E+03  0.10515961814E+04  0.00000000000E+00 0. -1.
         -2    1    5    5    0  503 -0.34604020122E+02 -0.73728045275E+01  0.44377170977E+02  0.56754997658E+02  0.00000000000E+00 0.  1.
<mgrwt>
<rscale>  0 0.11812083E+04</rscale>
<asrwt>0</asrwt>
<pdfrwt beam="1">  1        2 0.49965726E+00 0.11812083E+04</pdfrwt>
<pdfrwt beam="2">  1       -1 0.16523198E-01 0.11812083E+04</pdfrwt>
<totfact> 0.38917955E+01</totfact>
</mgrwt>
</event>
<event>
11    6  0.1663299E-008  0.2087635E+04  0.7818608E-02  0.8566710E-01
          2   -1    0    0  501    0  0.00000000000E+00  0.00000000000E+00  0.22389930809E+04  0.22389930809E+04  0.00000000000E+00 0. -1.
         -1   -1    0    0    0  501 -0.00000000000E+00 -0.00000000000E+00 -0.48662728753E+03  0.48662728753E+03  0.00000000000E+00 0.  1.
         24    2    1    2    0    0 -0.64235467788E+03  0.36464591559E+03  0.17287070801E+03  0.76281131223E+03  0.80066475096E+02 0.  0.
        254    2    1    2    0    0  0.64235467788E+03 -0.36464591559E+03  0.15794950853E+04  0.19628090562E+04  0.90123719988E+03 0.  0.
         23    2    4    4    0    0  0.36984740049E+03 -0.63755095880E+03  0.10229731059E+04  0.12637598258E+04  0.85770607818E+02 0.  0.
          2    1    3    3  502    0 -0.48123914894E+03  0.24008785254E+03  0.14695116649E+03  0.55751945324E+03  0.00000000000E+00 0. -1.
         -1    1    3    3    0  502 -0.16111552894E+03  0.12455806305E+03  0.25919541520E+02  0.20529185899E+03  0.00000000000E+00 0.  1.
         11    1    4    4    0    0 -0.16676136123E+02  0.37175947708E+01  0.67351748538E+00  0.17098761729E+02  0.00000000000E+00 0. -1.
        -11    1    4    4    0    0  0.28918341351E+03  0.26918744844E+03  0.55584846195E+03  0.68195046866E+03  0.00000000000E+00 0.  1.
          2    1    5    5  503    0  0.30096520657E+02 -0.31311802438E+02  0.34630802094E+02  0.55547475021E+02  0.00000000000E+00 0. -1.
         -2    1    5    5    0  503  0.33975087983E+03 -0.60623915636E+03  0.98834230378E+03  0.12082123507E+04  0.00000000000E+00 0.  1.
<mgrwt>
<rscale>  0 0.20876351E+04</rscale>
<asrwt>0</asrwt>
<pdfrwt beam="1">  1        2 0.34446047E+00 0.20876351E+04</pdfrwt>
<pdfrwt beam="2">  1       -1 0.74865738E-01 0.20876351E+04</pdfrwt>
<totfact> 0.92504263E+00</totfact>
</mgrwt>
</event>
<event>
12    6  0.1663299E-008  0.2116399E+04  0.7818608E-02  0.8554054E-01
         -1   -1    0    0    0  501 -0.00000000000E+00  0.00000000000E+00  0.91537695830E+03  0.91537695830E+03  0.00000000000E+00 0.  1.
          2   -1    0    0  501    0  0.00000000000E+00 -0.00000000000E+00 -0.12233062762E+04  0.12233062762E+04  0.00000000000E+00 0. -1.
         24    2    1    2    0    0  0.51122214626E+03 -0.67878987930E+03  0.88967985666E+01  0.85346454928E+03  0.78859373448E+02 0.  0.
        254    2    1    2    0    0 -0.51122214626E+03  0.67878987930E+03 -0.31682611641E+03  0.12852186852E+04  0.91066157139E+03 0.  0.
         23    2    4    4    0    0  0.89140211482E+02  0.21433397471E+03 -0.44145326467E+03  0.51055647691E+03  0.10909583500E+03 0.  0.
         23    2    4    4    0    0 -0.60036235774E+03  0.46445590460E+03  0.12462714825E+03  0.77466220826E+03  0.91735287241E+02 0.  0.
          4    1    3    3  502    0  0.20722030233E+02 -0.44629233912E+02 -0.14845499266E+02  0.51396107878E+02  0.00000000000E+00 0. -1.
         -3    1    3    3    0  502  0.49050011603E+03 -0.63416064539E+03  0.23742297833E+02  0.80206844140E+03  0.00000000000E+00 0.  1.
         11    1    5    5    0    0  0.45814722640E+02  0.13835629678E+03 -0.36982235114E+03  0.39750474849E+03  0.00000000000E+00 0. -1.
        -11    1    5    5    0    0  0.43325488843E+02  0.75977677924E+02 -0.71630913528E+02  0.11305172842E+03  0.00000000000E+00 0.  1.
          3    1    6    6  503    0 -0.11301633469E+03  0.10006077736E+03  0.61088763985E+02  0.16283945516E+03  0.00000000000E+00 0. -1.
         -3    1    6    6    0  503 -0.48734602305E+03  0.36439512724E+03  0.63538384266E+02  0.61182275310E+03  0.00000000000E+00 0.  1.
<mgrwt>
<rscale>  0 0.21163992E+04</rscale>
<asrwt>0</asrwt>
<pdfrwt beam="1">  1        2 0.18820097E+00 0.21163992E+04</pdfrwt>
<pdfrwt beam="2">  1       -1 0.14082722E+00 0.21163992E+04</pdfrwt>
<totfact> 0.79439790E+00</totfact>
</mgrwt>
</event>
<event>
11    6  0.1663299E-008  0.4154381E+04  0.7818608E-02  0.7974107E-01
         -1   -1    0    0    0  501 -0.00000000000E+00  0.00000000000E+00  0.16933561038E+04  0.16933561038E+04  0.00000000000E+00 0.  1.
          2   -1    0    0  501    0  0.00000000000E+00 -0.00000000000E+00 -0.25480289108E+04  0.25480289108E+04  0.00000000000E+00 0. -1.
         24    2    1    2    0    0 -0.16402728804E+04 -0.16481482094E+03  0.71445695695E+03  0.17984441655E+04  0.79332374419E+02 0.  0.
        254    2    1    2    0    0  0.16402728804E+04  0.16481482094E+03 -0.15691297639E+04  0.24429408491E+04  0.88776839809E+03 0.  0.
         23    2    4    4    0    0  0.52830182213E+03 -0.32887123510E+03 -0.69058408647E+03  0.93402082287E+03  0.90716109539E+02 0.  0.
          4    1    3    3  502    0 -0.74814342328E+03 -0.90524148077E+02  0.36632399655E+03  0.83791793967E+03  0.00000000000E+00 0. -1.
         -3    1    3    3    0  502 -0.89212945716E+03 -0.74290672861E+02  0.34813296040E+03  0.96052622584E+03  0.00000000000E+00 0.  1.
         11    1    4    4    0    0  0.31829713143E+03  0.16036039498E+03 -0.17443868423E+03  0.39680899021E+03  0.00000000000E+00 0.  1.
        -11    1    4    4    0    0  0.79367392688E+03  0.33332566105E+03 -0.70410699321E+03  0.11121110360E+04  0.00000000000E+00 0. -1.
          1    1    5    5  503    0  0.12979667797E+02 -0.26348621450E+02 -0.18548812077E+02  0.34738740016E+02  0.00000000000E+00 0. -1.
         -1    1    5    5    0  503  0.51532215433E+03 -0.30252261365E+03 -0.67203527439E+03  0.89928208286E+03  0.00000000000E+00 0.  1.
<mgrwt>
<rscale>  0 0.41543810E+04</rscale>
<asrwt>0</asrwt>
<pdfrwt beam="1">  1        2 0.39200445E+00 0.41543810E+04</pdfrwt>
<pdfrwt beam="2">  1       -1 0.26051632E+00 0.41543810E+04</pdfrwt>
<totfact> 0.17210733E-01</totfact>
</mgrwt>
</event>
<event>
11    6  0.1663299E-008  0.2746327E+04  0.7818608E-02  0.8320128E-01
         -1   -1    0    0    0  501 -0.00000000000E+00  0.00000000000E+00  0.55744200085E+03  0.55744200085E+03  0.00000000000E+00 0.  1.
          2   -1    0    0  501    0  0.00000000000E+00 -0.00000000000E+00 -0.33825557164E+04  0.33825557164E+04  0.00000000000E+00 0. -1.
         24    2    1    2    0    0  0.15596567566E+03 -0.11174687848E+03  0.47290463778E+03  0.51661058461E+03  0.80218718892E+02 0.  0.
        254    2    1    2    0    0 -0.15596567566E+03  0.11174687848E+03 -0.32980183533E+04  0.34233871326E+04  0.89768688536E+03 0.  0.
         23    2    4    4    0    0  0.20831623632E+03  0.77348936029E+02 -0.16165653117E+04  0.16343929231E+04  0.92619153959E+02 0.  0.
          2    1    3    3  502    0  0.15338012374E+02 -0.47402942192E+02  0.15995928361E+03  0.16753884912E+03  0.00000000000E+00 0. -1.
         -1    1    3    3    0  502  0.14062766329E+03 -0.64343936284E+02  0.31294535417E+03  0.34907173549E+03  0.00000000000E+00 0.  1.
         11    1    4    4    0    0 -0.45202872427E+03  0.11662463108E+03 -0.15028056722E+04  0.15736442293E+04  0.00000000000E+00 0.  1.
        -11    1    4    4    0    0  0.87746812286E+02 -0.82226688629E+02 -0.17864736943E+03  0.21534998025E+03  0.00000000000E+00 0. -1.
          2    1    5    5  503    0  0.60465876635E+02 -0.45261365160E+01 -0.24217856712E+03  0.24965389347E+03  0.00000000000E+00 0. -1.
         -2    1    5    5    0  503  0.14785035969E+03  0.81875072545E+02 -0.13743867446E+04  0.13847390296E+04  0.00000000000E+00 0.  1.
<mgrwt>
<rscale>  0 0.27463275E+04</rscale>
<asrwt>0</asrwt>
<pdfrwt beam="1">  1        2 0.52039318E+00 0.27463275E+04</pdfrwt>
<pdfrwt beam="2">  1       -1 0.85760309E-01 0.27463275E+04</pdfrwt>
<totfact> 0.13069819E+00</totfact>
</mgrwt>
</event>
<event>
11    6  0.1663299E-008  0.1942680E+04  0.7818608E-02  0.8633899E-01
          2   -1    0    0  501    0  0.00000000000E+00  0.00000000000E+00  0.97502999182E+03  0.97502999182E+03  0.00000000000E+00 0. -1.
         -1   -1    0    0    0  501 -0.00000000000E+00 -0.00000000000E+00 -0.96766357769E+03  0.96766357769E+03  0.00000000000E+00 0.  1.
         24    2    1    2    0    0  0.16783645137E+03  0.14148869459E+03  0.73732305551E+03  0.77345113655E+03  0.79957784669E+02 0.  0.
        254    2    1    2    0    0 -0.16783645137E+03 -0.14148869459E+03 -0.72995664138E+03  0.11692424330E+04  0.88662452235E+03 0.  0.
         23    2    4    4    0    0  0.73095228444E+02  0.18738061382E+03 -0.56334456664E+03  0.60514864860E+03  0.91615387779E+02 0.  0.
          2    1    3    3  502    0  0.16933231442E+03  0.12867217173E+03  0.62085440933E+03  0.65626988203E+03  0.00000000000E+00 0. -1.
         -1    1    3    3    0  502 -0.14958630563E+01  0.12816522869E+02  0.11646864619E+03  0.11718125451E+03  0.00000000000E+00 0.  1.
         11    1    4    4    0    0  0.41024338802E+02  0.43611672735E+02 -0.60320336610E+02  0.84991278268E+02  0.00000000000E+00 0.  1.
        -11    1    4    4    0    0 -0.28195601861E+03 -0.37248098115E+03 -0.10629173813E+03  0.47910250610E+03  0.00000000000E+00 0. -1.
          2    1    5    5  503    0  0.75604079542E+02  0.17254803960E+03 -0.55838820415E+03  0.58930992640E+03  0.00000000000E+00 0. -1.
         -2    1    5    5    0  503 -0.25088510981E+01  0.14832574219E+02 -0.49563624877E+01  0.15838722199E+02  0.00000000000E+00 0.  1.
<mgrwt>
<rscale>  0 0.19426796E+04</rscale>
<asrwt>0</asrwt>
<pdfrwt beam="1">  1        2 0.15000461E+00 0.19426796E+04</pdfrwt>
<pdfrwt beam="2">  1       -1 0.14887132E+00 0.19426796E+04</pdfrwt>
<totfact> 0.99130300E+00</totfact>
</mgrwt>
</event>
<event>
12    6  0.1663299E-008  0.1658326E+04  0.7818608E-02  0.8785496E-01
         -3   -1    0    0    0  501 -0.00000000000E+00  0.00000000000E+00  0.60885295516E+03  0.60885295516E+03  0.00000000000E+00 0.  1.
          4   -1    0    0  501    0  0.00000000000E+00 -0.00000000000E+00 -0.11291915325E+04  0.11291915325E+04  0.00000000000E+00 0. -1.
         24    2    1    2    0    0 -0.57905422453E+03  0.65330730557E+02 -0.19250093046E+03  0.61913677768E+03  0.81864778434E+02 0.  0.
        254    2    1    2    0    0  0.57905422453E+03 -0.65330730557E+02 -0.32783764690E+03  0.11189077100E+04  0.89716500237E+03 0.  0.
         23    2    4    4    0    0 -0.12666584881E+03  0.17495022532E+03  0.93569364173E+02  0.25823446782E+03  0.10619790895E+03 0.  0.
         23    2    4    4    0    0  0.70572007334E+03 -0.24028095588E+03 -0.42140701108E+03  0.86067324218E+03  0.86016284197E+02 0.  0.
          2    1    3    3  502    0 -0.37470571863E+03  0.38407736706E+02 -0.82859615703E+02  0.38567505199E+03  0.00000000000E+00 0. -1.
         -1    1    3    3    0  502 -0.20434850590E+03  0.26922993851E+02 -0.10964131475E+03  0.23346172569E+03  0.00000000000E+00 0.  1.
         11    1    5    5    0    0 -0.10432340852E+03  0.95088191435E+02  0.11600216914E+02  0.14163228003E+03  0.00000000000E+00 0.  1.
        -11    1    5    5    0    0 -0.22342440295E+02  0.79862033890E+02  0.81969147259E+02  0.11660218779E+03  0.00000000000E+00 0. -1.
          4    1    6    6  503    0  0.23761464141E+03 -0.10929607416E+03 -0.18344367969E+03  0.31946507361E+03  0.00000000000E+00 0. -1.
         -4    1    6    6    0  503  0.46810543193E+03 -0.13098488172E+03 -0.23796333139E+03  0.54120816857E+03  0.00000000000E+00 0.  1.
<mgrwt>
<rscale>  0 0.16583264E+04</rscale>
<asrwt>0</asrwt>
<pdfrwt beam="1">  1        4 0.17372177E+00 0.16583264E+04</pdfrwt>
<pdfrwt beam="2">  1       -3 0.93669686E-01 0.16583264E+04</pdfrwt>
<totfact> 0.44155933E-01</totfact>
</mgrwt>
</event>
<event>
12    6  0.1663299E-008  0.2501398E+04  0.7818608E-02  0.8402488E-01
          2   -1    0    0  501    0  0.00000000000E+00  0.00000000000E+00  0.20985069729E+04  0.20985069729E+04  0.00000000000E+00 0. -1.
         -1   -1    0    0    0  501 -0.00000000000E+00 -0.00000000000E+00 -0.74540999710E+03  0.74540999710E+03  0.00000000000E+00 0.  1.
         24    2    1    2    0    0 -0.24983197464E+03  0.79904880670E+03 -0.19691107515E+03  0.86365185254E+03  0.78902090199E+02 0.  0.
        254    2    1    2    0    0  0.24983197464E+03 -0.79904880670E+03  0.15500080509E+04  0.19802651174E+04  0.90445009055E+03 0.  0.
         23    2    4    4    0    0  0.46425484424E+03 -0.63575777009E+03  0.14887612386E+04  0.16889174813E+04  0.12771738505E+03 0.  0.
         23    2    4    4    0    0 -0.21442286960E+03 -0.16329103662E+03  0.61246812292E+02  0.29134763610E+03  0.92147400387E+02 0.  0.
          4    1    3    3  502    0 -0.28803647676E+02  0.19777674661E+03 -0.58652097644E+02  0.20829152690E+03  0.00000000000E+00 0. -1.
         -3    1    3    3    0  502 -0.22102832697E+03  0.60127206009E+03 -0.13825897750E+03  0.65536032564E+03  0.00000000000E+00 0.  1.
         11    1    5    5    0    0  0.16965795182E+03 -0.18848413091E+03  0.36995906019E+03  0.44853070624E+03  0.00000000000E+00 0. -1.
        -11    1    5    5    0    0  0.29459689242E+03 -0.44727363917E+03  0.11188021784E+04  0.12403867751E+04  0.00000000000E+00 0.  1.
          3    1    6    6  503    0 -0.10695501171E+03 -0.84111288523E+02  0.77960919871E+02  0.15681832933E+03  0.00000000000E+00 0. -1.
         -3    1    6    6    0  503 -0.10746785789E+03 -0.79179748093E+02 -0.16714107579E+02  0.13452930677E+03  0.00000000000E+00 0.  1.
<mgrwt>
<rscale>  0 0.25013981E+04</rscale>
<asrwt>0</asrwt>
<pdfrwt beam="1">  1        2 0.32284723E+00 0.25013981E+04</pdfrwt>
<pdfrwt beam="2">  1       -1 0.11467846E+00 0.25013981E+04</pdfrwt>
<totfact> 0.41272482E+00</totfact>
</mgrwt>
</event>
<event>
12    6  0.1663299E-008  0.2105347E+04  0.7818608E-02  0.8558892E-01
         -1   -1    0    0    0  501 -0.00000000000E+00  0.00000000000E+00  0.16696404081E+04  0.16696404081E+04  0.00000000000E+00 0.  1.
          2   -1    0    0  501    0  0.00000000000E+00 -0.00000000000E+00 -0.66368887911E+03  0.66368887911E+03  0.00000000000E+00 0. -1.
         24    2    1    2    0    0  0.43471944011E+03  0.57796555769E+03 -0.10231532092E+03  0.73559032520E+03  0.87175249667E+02 0.  0.
        254    2    1    2    0    0 -0.43471944011E+03 -0.57796555769E+03  0.11082668499E+04  0.15977389620E+04  0.89525929350E+03 0.  0.
         23    2    4    4    0    0 -0.61577113180E+03 -0.40579613265E+03  0.11062991904E+04  0.13317444227E+04  0.76162461979E+02 0.  0.
         23    2    4    4    0    0  0.18105169169E+03 -0.17216942504E+03  0.19676595114E+01  0.26599453933E+03  0.91253478211E+02 0.  0.
          2    1    3    3  502    0  0.37092359873E+03  0.49099838202E+03 -0.11809116091E+03  0.62658538885E+03  0.00000000000E+00 0. -1.
         -1    1    3    3    0  502  0.63795841378E+02  0.86967175672E+02  0.15775839988E+02  0.10900493635E+03  0.00000000000E+00 0.  1.
         11    1    5    5    0    0 -0.33541784595E+03 -0.26578178639E+03  0.64658764639E+03  0.77538421045E+03  0.00000000000E+00 0.  1.
        -11    1    5    5    0    0 -0.28035328585E+03 -0.14001434626E+03  0.45971154401E+03  0.55636021222E+03  0.00000000000E+00 0. -1.
          1    1    6    6  503    0 -0.56690646002E+01 -0.31859112278E+02  0.21599218489E+01  0.32431567815E+02  0.00000000000E+00 0. -1.
         -1    1    6    6    0  503  0.18672075629E+03 -0.14031031276E+03 -0.19226233753E+00  0.23356297151E+03  0.00000000000E+00 0.  1.
<mgrwt>
<rscale>  0 0.21053473E+04</rscale>
<asrwt>0</asrwt>
<pdfrwt beam="1">  1        2 0.10210598E+00 0.21053473E+04</pdfrwt>
<pdfrwt beam="2">  1       -1 0.25686775E+00 0.21053473E+04</pdfrwt>
<totfact> 0.28971150E+00</totfact>
</mgrwt>
</event>
<event>
12    6  0.1663299E-008  0.3455042E+04  0.7818608E-02  0.8124528E-01
         -1   -1    0    0    0  501 -0.00000000000E+00  0.00000000000E+00  0.10983341242E+04  0.10983341242E+04  0.00000000000E+00 0.  1.
          2   -1    0    0  501    0  0.00000000000E+00 -0.00000000000E+00 -0.27171408937E+04  0.27171408937E+04  0.00000000000E+00 0. -1.
         24    2    1    2    0    0 -0.58798903444E+03 -0.61771664653E+03  0.75095839323E+03  0.11394419314E+04  0.84169155400E+02 0.  0.
        254    2    1    2    0    0  0.58798903444E+03  0.61771664653E+03 -0.23697651628E+04  0.26760330865E+04  0.90446735334E+03 0.  0.
         23    2    4    4    0    0  0.34421786311E+03 -0.15844476480E+03 -0.50912260703E+03  0.64327115453E+03  0.10488693186E+03 0.  0.
         23    2    4    4    0    0  0.24377117133E+03  0.77616141133E+03 -0.18606425557E+04  0.20327619320E+04  0.90991380797E+02 0.  0.
          2    1    3    3  502    0 -0.27716397471E+03 -0.33383589142E+03  0.34112316097E+03  0.55193412853E+03  0.00000000000E+00 0. -1.
         -1    1    3    3    0  502 -0.31082505973E+03 -0.28388075511E+03  0.40983523226E+03  0.58750780290E+03  0.00000000000E+00 0.  1.
         11    1    5    5    0    0  0.13742028964E+03 -0.11296813278E+03 -0.27580571336E+03  0.32819952247E+03  0.00000000000E+00 0. -1.
        -11    1    5    5    0    0  0.20679757347E+03 -0.45476632023E+02 -0.23331689368E+03  0.31507163206E+03  0.00000000000E+00 0.  1.
          2    1    6    6  503    0  0.23410328087E+03  0.76736994844E+03 -0.17995833065E+04  0.19703200403E+04  0.00000000000E+00 0. -1.
         -2    1    6    6    0  503  0.96678904559E+01  0.87914628905E+01 -0.61059249203E+02  0.62441891699E+02  0.00000000000E+00 0.  1.
<mgrwt>
<rscale>  0 0.34550419E+04</rscale>
<asrwt>0</asrwt>
<pdfrwt beam="1">  1        2 0.41802167E+00 0.34550419E+04</pdfrwt>
<pdfrwt beam="2">  1       -1 0.16897448E+00 0.34550419E+04</pdfrwt>
<totfact> 0.60824363E-01</totfact>
</mgrwt>
</event>
<event>
11    6  0.1663299E-008  0.2147769E+04  0.7818608E-02  0.8540488E-01
          2   -1    0    0  501    0  0.00000000000E+00  0.00000000000E+00  0.15038139665E+04  0.15038139665E+04  0.00000000000E+00 0. -1.
         -1   -1    0    0    0  501 -0.00000000000E+00 -0.00000000000E+00 -0.76686849095E+03  0.76686849095E+03  0.00000000000E+00 0.  1.
         24    2    1    2    0    0 -0.23967065069E+03  0.57330598012E+03 -0.36430061684E+03  0.72486888354E+03  0.81229251194E+02 0.  0.
        254    2    1    2    0    0  0.23967065069E+03 -0.57330598012E+03  0.11012460924E+04  0.15458135739E+04  0.88919901130E+03 0.  0.
         23    2    4    4    0    0  0.54353382913E+03 -0.46915573729E+03  0.65032229255E+03  0.97324350442E+03  0.93529169021E+02 0.  0.
          2    1    3    3  502    0 -0.18257844776E+01  0.63401172978E+02 -0.46752765539E+02  0.78796340711E+02  0.00000000000E+00 0. -1.
         -1    1    3    3    0  502 -0.23784486621E+03  0.50990480715E+03 -0.31754785130E+03  0.64607254283E+03  0.00000000000E+00 0.  1.
         11    1    4    4    0    0 -0.26323274779E+03 -0.47144648835E+02  0.27669624015E+03  0.38480502431E+03  0.00000000000E+00 0. -1.
        -11    1    4    4    0    0 -0.40630430647E+02 -0.57005593997E+02  0.17422755971E+03  0.18776504521E+03  0.00000000000E+00 0.  1.
          2    1    5    5  503    0  0.38691298741E+03 -0.33440217880E+03  0.40386885750E+03  0.65164141295E+03  0.00000000000E+00 0. -1.
         -2    1    5    5    0  503  0.15662084172E+03 -0.13475355849E+03  0.24645343505E+03  0.32160209147E+03  0.00000000000E+00 0.  1.
<mgrwt>
<rscale>  0 0.21477687E+04</rscale>
<asrwt>0</asrwt>
<pdfrwt beam="1">  1        2 0.23135599E+00 0.21477687E+04</pdfrwt>
<pdfrwt beam="2">  1       -1 0.11797977E+00 0.21477687E+04</pdfrwt>
<totfact> 0.85243834E+00</totfact>
</mgrwt>
</event>
<event>
11    6  0.1663299E-008  0.1564881E+04  0.7818608E-02  0.8842418E-01
         -1   -1    0    0    0  501 -0.00000000000E+00  0.00000000000E+00  0.13511458985E+03  0.13511458985E+03  0.00000000000E+00 0.  1.
          2   -1    0    0  501    0  0.00000000000E+00 -0.00000000000E+00 -0.45310639470E+04  0.45310639470E+04  0.00000000000E+00 0. -1.
         24    2    1    2    0    0  0.15882628654E+03  0.45353501629E+03 -0.88733177676E+03  0.10122724969E+04  0.80113205023E+02 0.  0.
        254    2    1    2    0    0 -0.15882628654E+03 -0.45353501629E+03 -0.35086175804E+04  0.36539060400E+04  0.89984010973E+03 0.  0.
         23    2    4    4    0    0  0.31815721567E+03 -0.53686637441E+02 -0.76070005601E+03  0.83140993250E+03  0.92041467426E+02 0.  0.
          2    1    3    3  502    0  0.71470754498E+02  0.17495156871E+03 -0.42993789907E+03  0.46964105144E+03  0.00000000000E+00 0. -1.
         -1    1    3    3    0  502  0.87355532042E+02  0.27858344758E+03 -0.45739387769E+03  0.54263144545E+03  0.00000000000E+00 0.  1.
         11    1    4    4    0    0 -0.35152367902E+03 -0.37750219048E+03 -0.21292809940E+04  0.21908706836E+04  0.00000000000E+00 0. -1.
        -11    1    4    4    0    0 -0.12545982318E+03 -0.22346188369E+02 -0.61863653044E+03  0.63162542394E+03  0.00000000000E+00 0.  1.
          3    1    5    5  503    0  0.17675179622E+03 -0.51784852934E+02 -0.32784194602E+03  0.37603618181E+03  0.00000000000E+00 0. -1.
         -3    1    5    5    0  503  0.14140541944E+03 -0.19017845069E+01 -0.43285810998E+03  0.45537375068E+03  0.00000000000E+00 0.  1.
<mgrwt>
<rscale>  0 0.15648806E+04</rscale>
<asrwt>0</asrwt>
<pdfrwt beam="1">  1        2 0.69708670E+00 0.15648806E+04</pdfrwt>
<pdfrwt beam="2">  1       -1 0.20786862E-01 0.15648806E+04</pdfrwt>
<totfact> 0.24882990E+00</totfact>
</mgrwt>
</event>
<event>
12    6  0.1663299E-008  0.1276411E+04  0.7818608E-02  0.9048483E-01
          2   -1    0    0  501    0  0.00000000000E+00  0.00000000000E+00  0.28157722249E+04  0.28157722249E+04  0.00000000000E+00 0. -1.
         -3   -1    0    0    0  501 -0.00000000000E+00 -0.00000000000E+00 -0.14465179135E+03  0.14465179135E+03  0.00000000000E+00 0.  1.
         24    2    1    2    0    0  0.19828730883E+03  0.17924810203E+03  0.30573639694E+03  0.41369485404E+03  0.78872992334E+02 0.  0.
        254    2    1    2    0    0 -0.19828730883E+03 -0.17924810203E+03  0.23653840366E+04  0.25467291623E+04  0.90517404189E+03 0.  0.
         23    2    4    4    0    0 -0.34647641208E+01  0.20552773302E+03  0.14387868689E+03  0.28187273765E+03  0.12844263335E+03 0.  0.
         23    2    4    4    0    0 -0.19482254471E+03 -0.38477583505E+03  0.22215053498E+04  0.22648564246E+04  0.92088749886E+02 0.  0.
          4    1    3    3  502    0  0.52643602706E+01  0.28896989100E+02  0.60632188574E+02  0.67372188323E+02  0.00000000000E+00 0. -1.
         -3    1    3    3    0  502  0.19302294856E+03  0.15035111293E+03  0.24510420836E+03  0.34632266571E+03  0.00000000000E+00 0.  1.
         11    1    5    5    0    0  0.15596495585E+02  0.21865393977E+03  0.13149551809E+03  0.25562446544E+03  0.00000000000E+00 0. -1.
        -11    1    5    5    0    0 -0.19061259706E+02 -0.13126206745E+02  0.12383168792E+02  0.26248272218E+02  0.00000000000E+00 0.  1.
          3    1    6    6  503    0 -0.41852725593E+01 -0.29130748018E+02  0.29992263924E+03  0.30136308087E+03  0.00000000000E+00 0. -1.
         -3    1    6    6    0  503 -0.19063727215E+03 -0.35564508703E+03  0.19215827105E+04  0.19634933437E+04  0.00000000000E+00 0.  1.
<mgrwt>
<rscale>  0 0.12764114E+04</rscale>
<asrwt>0</asrwt>
<pdfrwt beam="1">  1        2 0.43319569E+00 0.12764114E+04</pdfrwt>
<pdfrwt beam="2">  1       -3 0.22254124E-01 0.12764114E+04</pdfrwt>
<totfact> 0.27625724E+01</totfact>
</mgrwt>
</event>
<event>
12    6  0.1663299E-008  0.1964090E+04  0.7818608E-02  0.8623596E-01
         -1   -1    0    0    0  501 -0.00000000000E+00  0.00000000000E+00  0.18129802302E+04  0.18129802302E+04  0.00000000000E+00 0.  1.
          2   -1    0    0  501    0  0.00000000000E+00 -0.00000000000E+00 -0.53194874386E+03  0.53194874386E+03  0.00000000000E+00 0. -1.
         24    2    1    2    0    0 -0.22307417195E+03 -0.43446192311E+03  0.11634744208E+04  0.12644091669E+04  0.80861391545E+02 0.  0.
        254    2    1    2    0    0  0.22307417195E+03  0.43446192311E+03  0.11755706550E+03  0.10805198071E+04  0.95665257075E+03 0.  0.
         23    2    4    4    0    0  0.28132228827E+03 -0.10809863667E+03  0.35318324149E+03  0.47911607544E+03  0.11826354701E+03 0.  0.
         23    2    4    4    0    0 -0.58248116318E+02  0.54256055977E+03 -0.23562617600E+03  0.60140373168E+03  0.91662149179E+02 0.  0.
          4    1    3    3  502    0 -0.60713737922E+02 -0.20498671738E+03  0.51752874931E+03  0.55994796065E+03  0.00000000000E+00 0. -1.
         -3    1    3    3    0  502 -0.16236043403E+03 -0.22947520573E+03  0.64594567149E+03  0.70446120624E+03  0.00000000000E+00 0.  1.
         11    1    5    5    0    0  0.19156672000E+03 -0.90527797943E+02  0.31584146782E+03  0.38032738951E+03  0.00000000000E+00 0.  1.
        -11    1    5    5    0    0  0.89755568267E+02 -0.17570838722E+02  0.37341773669E+02  0.98788685937E+02  0.00000000000E+00 0. -1.
          1    1    6    6  503    0  0.96192030312E+01  0.74292105886E+01  0.13463584323E+01  0.12228447079E+02  0.00000000000E+00 0. -1.
         -1    1    6    6    0  503 -0.67867319349E+02  0.53513134918E+03 -0.23697253443E+03  0.58917528460E+03  0.00000000000E+00 0.  1.
<mgrwt>
<rscale>  0 0.19640902E+04</rscale>
<asrwt>0</asrwt>
<pdfrwt beam="1">  1        2 0.81838269E-01 0.19640902E+04</pdfrwt>
<pdfrwt beam="2">  1       -1 0.27892003E+00 0.19640902E+04</pdfrwt>
<totfact> 0.27579554E+00</totfact>
</mgrwt>
</event>
<event>
12    6  0.1663299E-008  0.1276332E+04  0.7818608E-02  0.9048548E-01
         -1   -1    0    0    0  501 -0.00000000000E+00  0.00000000000E+00  0.77853151761E+03  0.77853151761E+03  0.00000000000E+00 0.  1.
          2   -1    0    0  501    0  0.00000000000E+00 -0.00000000000E+00 -0.52310755814E+03  0.52310755814E+03  0.00000000000E+00 0. -1.
         24    2    1    2    0    0  0.13256302354E+03 -0.64671169209E+02 -0.21663000685E+03  0.27308553451E+03  0.76758282643E+02 0.  0.
        254    2    1    2    0    0 -0.13256302354E+03  0.64671169209E+02  0.47205396632E+03  0.10285535412E+04  0.90184928049E+03 0.  0.
         23    2    4    4    0    0 -0.40934614280E+02  0.42762133891E+03  0.47476836601E+03  0.64384809843E+03  0.67821238208E+02 0.  0.
         23    2    4    4    0    0 -0.91628409262E+02 -0.36295016970E+03 -0.27143996911E+01  0.38470544280E+03  0.88669716845E+02 0.  0.
          4    1    3    3  502    0  0.14195590268E+03 -0.66351504363E+02 -0.20284782174E+03  0.25632252968E+03  0.00000000000E+00 0. -1.
         -3    1    3    3    0  502 -0.93928791342E+01  0.16803351539E+01 -0.13782185106E+02  0.16763004831E+02  0.00000000000E+00 0.  1.
         11    1    5    5    0    0 -0.94990549756E+01  0.34930692193E+03  0.36378445261E+03  0.50442510417E+03  0.00000000000E+00 0.  1.
        -11    1    5    5    0    0 -0.31435559305E+02  0.78314416978E+02  0.11098391340E+03  0.13942299426E+03  0.00000000000E+00 0. -1.
          1    1    6    6  503    0  0.11962347325E+02 -0.54103622888E+02  0.18081689495E+02  0.58285909602E+02  0.00000000000E+00 0. -1.
         -1    1    6    6    0  503 -0.10359075659E+03 -0.30884654681E+03 -0.20796089186E+02  0.32641953320E+03  0.00000000000E+00 0.  1.
<mgrwt>
<rscale>  0 0.12763318E+04</rscale>
<asrwt>0</asrwt>
<pdfrwt beam="1">  1        2 0.80478086E-01 0.12763318E+04</pdfrwt>
<pdfrwt beam="2">  1       -1 0.11977408E+00 0.12763318E+04</pdfrwt>
<totfact> 0.40794327E+01</totfact>
</mgrwt>
</event>
<event>
11    6  0.1663299E-008  0.1987938E+04  0.7818608E-02  0.8612281E-01
         -1   -1    0    0    0  501 -0.00000000000E+00  0.00000000000E+00  0.76274356673E+03  0.76274356673E+03  0.00000000000E+00 0.  1.
          2   -1    0    0  501    0  0.00000000000E+00 -0.00000000000E+00 -0.12952909652E+04  0.12952909652E+04  0.00000000000E+00 0. -1.
         24    2    1    2    0    0 -0.11797048387E+03  0.76585320088E+03 -0.54622449870E+02  0.78096176543E+03  0.80433243536E+02 0.  0.
        254    2    1    2    0    0  0.11797048387E+03 -0.76585320088E+03 -0.47792494862E+03  0.12770727665E+04  0.89557491822E+03 0.  0.
         23    2    4    4    0    0  0.27287687186E+03 -0.91668224024E+03 -0.36103864990E+03  0.10268649804E+04  0.96616067891E+02 0.  0.
          4    1    3    3  502    0 -0.60819133718E+02  0.41552635018E+03  0.10472770956E+02  0.42008426970E+03  0.00000000000E+00 0. -1.
         -3    1    3    3    0  502 -0.57151350151E+02  0.35032685070E+03 -0.65095220826E+02  0.36087749572E+03  0.00000000000E+00 0.  1.
         11    1    4    4    0    0 -0.51341222119E+02  0.29140989065E+02 -0.15754114570E+02  0.61100822075E+02  0.00000000000E+00 0.  1.
        -11    1    4    4    0    0 -0.10356516587E+03  0.12168805030E+03 -0.10113218415E+03  0.18910696401E+03  0.00000000000E+00 0. -1.
          4    1    5    5  503    0  0.44937258640E+02 -0.24444188729E+03 -0.59009109917E+02  0.25544719323E+03  0.00000000000E+00 0. -1.
         -4    1    5    5    0  503  0.22793961322E+03 -0.67224035296E+03 -0.30202953998E+03  0.77141778722E+03  0.00000000000E+00 0.  1.
<mgrwt>
<rscale>  0 0.19879385E+04</rscale>
<asrwt>0</asrwt>
<pdfrwt beam="1">  1        2 0.19927553E+00 0.19879385E+04</pdfrwt>
<pdfrwt beam="2">  1       -1 0.11734517E+00 0.19879385E+04</pdfrwt>
<totfact> 0.11531070E+01</totfact>
</mgrwt>
</event>
<event>
11    6  0.1663299E-008  0.2108307E+04  0.7818608E-02  0.8557593E-01
         -1   -1    0    0    0  501 -0.00000000000E+00  0.00000000000E+00  0.61357216335E+03  0.61357216335E+03  0.00000000000E+00 0.  1.
          2   -1    0    0  501    0  0.00000000000E+00 -0.00000000000E+00 -0.18110984156E+04  0.18110984156E+04  0.00000000000E+00 0. -1.
         24    2    1    2    0    0  0.73315790860E+03 -0.69758516417E+02 -0.99753450638E+03  0.12424242792E+04  0.78461637920E+02 0.  0.
        254    2    1    2    0    0 -0.73315790860E+03  0.69758516417E+02 -0.19999174584E+03  0.11822462997E+04  0.90295229397E+03 0.  0.
         23    2    4    4    0    0  0.11447003686E+03  0.15421600198E+03  0.13337585693E+03  0.25132749826E+03  0.92143516121E+02 0.  0.
          2    1    3    3  502    0  0.72683379289E+03 -0.68561070380E+02 -0.99733140413E+03  0.12359845924E+04  0.00000000000E+00 0. -1.
         -1    1    3    3    0  502  0.63241157029E+01 -0.11974460367E+01 -0.20310224863E+00  0.64396868679E+01  0.00000000000E+00 0.  1.
         11    1    4    4    0    0 -0.83736445407E+03 -0.90580625474E+02 -0.29771873182E+03  0.89331994376E+03  0.00000000000E+00 0. -1.
        -11    1    4    4    0    0 -0.10263491386E+02  0.61231399120E+01 -0.35648870959E+02  0.37598857675E+02  0.00000000000E+00 0.  1.
          4    1    5    5  503    0  0.51027538991E+02  0.13814428367E+03  0.98457985723E+02  0.17714860372E+03  0.00000000000E+00 0. -1.
         -4    1    5    5    0  503  0.63442497868E+02  0.16071718304E+02  0.34917871211E+02  0.74178894538E+02  0.00000000000E+00 0.  1.
<mgrwt>
<rscale>  0 0.21083070E+04</rscale>
<asrwt>0</asrwt>
<pdfrwt beam="1">  1        2 0.27863052E+00 0.21083070E+04</pdfrwt>
<pdfrwt beam="2">  1       -1 0.94395720E-01 0.21083070E+04</pdfrwt>
<totfact> 0.96894990E+00</totfact>
</mgrwt>
</event>
<event>
11    6  0.1663299E-008  0.2490093E+04  0.7818608E-02  0.8406523E-01
          2   -1    0    0  501    0  0.00000000000E+00  0.00000000000E+00  0.15016916786E+04  0.15016916786E+04  0.00000000000E+00 0. -1.
         -1   -1    0    0    0  501 -0.00000000000E+00 -0.00000000000E+00 -0.10322630627E+04  0.10322630627E+04  0.00000000000E+00 0.  1.
         24    2    1    2    0    0  0.36631102473E+03 -0.88942770311E+03  0.71895499403E+03  0.12038311099E+04  0.83950294360E+02 0.  0.
        254    2    1    2    0    0 -0.36631102473E+03  0.88942770311E+03 -0.24952637817E+03  0.13301236314E+04  0.88413802967E+03 0.  0.
         23    2    4    4    0    0 -0.52115746730E+03  0.69899750959E+03 -0.44905227630E+03  0.98483496305E+03  0.89718077653E+02 0.  0.
          2    1    3    3  502    0  0.19969928108E+03 -0.47200304079E+03  0.33100592152E+03  0.61010785396E+03  0.00000000000E+00 0. -1.
         -1    1    3    3    0  502  0.16661174365E+03 -0.41742466232E+03  0.38794907251E+03  0.59372325598E+03  0.00000000000E+00 0.  1.
         11    1    4    4    0    0 -0.19271299343E+02  0.57714450702E+02  0.27089464751E+02  0.66604653731E+02  0.00000000000E+00 0.  1.
        -11    1    4    4    0    0  0.17411774191E+03  0.13271574282E+03  0.17243643339E+03  0.27868401461E+03  0.00000000000E+00 0. -1.
          4    1    5    5  503    0 -0.43373584160E+03  0.54352252170E+03 -0.32501990951E+03  0.76758156144E+03  0.00000000000E+00 0. -1.
         -4    1    5    5    0  503 -0.87421625705E+02  0.15547498789E+03 -0.12403236680E+03  0.21725340162E+03  0.00000000000E+00 0.  1.
<mgrwt>
<rscale>  0 0.24900931E+04</rscale>
<asrwt>0</asrwt>
<pdfrwt beam="1">  1        2 0.23102949E+00 0.24900931E+04</pdfrwt>
<pdfrwt beam="2">  1       -1 0.15880970E+00 0.24900931E+04</pdfrwt>
<totfact> 0.38425757E+00</totfact>
</mgrwt>
</event>
<event>
11    6  0.1663299E-008  0.1371630E+04  0.7818608E-02  0.8974614E-01
          2   -1    0    0  501    0  0.00000000000E+00  0.00000000000E+00  0.95368465323E+03  0.95368465323E+03  0.00000000000E+00 0. -1.
         -1   -1    0    0    0  501 -0.00000000000E+00 -0.00000000000E+00 -0.49318427405E+03  0.49318427405E+03  0.00000000000E+00 0.  1.
         24    2    1    2    0    0  0.11700028471E+03 -0.28079214817E+03  0.37379776652E+03  0.48867527964E+03  0.80904026985E+02 0.  0.
        254    2    1    2    0    0 -0.11700028471E+03  0.28079214817E+03  0.86702612655E+02  0.95819364765E+03  0.90448019672E+03 0.  0.
         23    2    4    4    0    0  0.14557247816E+03  0.53018485542E+03  0.12707960322E+03  0.57163799746E+03  0.91287716965E+02 0.  0.
          2    1    3    3  502    0  0.63933235204E+02 -0.19734159279E+03  0.19688715748E+03  0.28599950278E+03  0.00000000000E+00 0. -1.
         -1    1    3    3    0  502  0.53067049504E+02 -0.83450555373E+02  0.17691060904E+03  0.20267577686E+03  0.00000000000E+00 0.  1.
         11    1    4    4    0    0 -0.24909445022E+03 -0.25591956303E+03 -0.59722977551E+02  0.36209073714E+03  0.00000000000E+00 0. -1.
        -11    1    4    4    0    0 -0.13478312640E+02  0.65268557703E+01  0.19345986988E+02  0.24464913048E+02  0.00000000000E+00 0.  1.
          3    1    5    5  503    0  0.82591171101E+02  0.39562040348E+03  0.59834391767E+02  0.40855472049E+03  0.00000000000E+00 0. -1.
         -3    1    5    5    0  503  0.62981307055E+02  0.13456445194E+03  0.67245211450E+02  0.16308327697E+03  0.00000000000E+00 0.  1.
<mgrwt>
<rscale>  0 0.13716301E+04</rscale>
<asrwt>0</asrwt>
<pdfrwt beam="1">  1        2 0.14672071E+00 0.13716301E+04</pdfrwt>
<pdfrwt beam="2">  1       -1 0.75874504E-01 0.13716301E+04</pdfrwt>
<totfact> 0.52440823E+01</totfact>
</mgrwt>
</event>
<event>
11    6  0.1663299E-008  0.1366724E+04  0.7818608E-02  0.8978264E-01
          2   -1    0    0  501    0  0.00000000000E+00  0.00000000000E+00  0.55700876389E+03  0.55700876389E+03  0.00000000000E+00 0. -1.
         -1   -1    0    0    0  501 -0.00000000000E+00 -0.00000000000E+00 -0.83837807772E+03  0.83837807772E+03  0.00000000000E+00 0.  1.
         24    2    1    2    0    0  0.58940253896E+02 -0.22599508257E+02  0.29911097759E+03  0.31597499514E+03  0.79925773917E+02 0.  0.
        254    2    1    2    0    0 -0.58940253896E+02  0.22599508257E+02 -0.58048029141E+03  0.10794118465E+04  0.90784793567E+03 0.  0.
         23    2    4    4    0    0 -0.14468319882E+03 -0.27614657127E+03  0.47239033186E+02  0.32822327755E+03  0.91152821245E+02 0.  0.
          4    1    3    3  502    0  0.63155417014E+02  0.81421439658E+01  0.24918091940E+03  0.25718870854E+03  0.00000000000E+00 0. -1.
         -3    1    3    3    0  502 -0.42151631182E+01 -0.30741652223E+02  0.49930058186E+02  0.58786286598E+02  0.00000000000E+00 0.  1.
         11    1    4    4    0    0 -0.86093985972E+02  0.29405679170E+02 -0.17284927348E+03  0.19532982294E+03  0.00000000000E+00 0. -1.
        -11    1    4    4    0    0  0.17183693090E+03  0.26934040036E+03 -0.45487005113E+03  0.55585874599E+03  0.00000000000E+00 0.  1.
          1    1    5    5  503    0 -0.14763046145E+03 -0.27766137687E+03  0.36019820666E+02  0.31652491345E+03  0.00000000000E+00 0.  1.
         -1    1    5    5    0  503  0.29472626275E+01  0.15148055977E+01  0.11219212521E+02  0.11698364099E+02  0.00000000000E+00 0. -1.
<mgrwt>
<rscale>  0 0.13667245E+04</rscale>
<asrwt>0</asrwt>
<pdfrwt beam="1">  1        2 0.85693656E-01 0.13667245E+04</pdfrwt>
<pdfrwt beam="2">  1       -1 0.12898124E+00 0.13667245E+04</pdfrwt>
<totfact> 0.31294936E+01</totfact>
</mgrwt>
</event>
<event>
11    6  0.1663299E-008  0.1846697E+04  0.7818608E-02  0.8681853E-01
         -1   -1    0    0    0  501 -0.00000000000E+00  0.00000000000E+00  0.33388824348E+03  0.33388824348E+03  0.00000000000E+00 0.  1.
          2   -1    0    0  501    0  0.00000000000E+00 -0.00000000000E+00 -0.25534669224E+04  0.25534669224E+04  0.00000000000E+00 0. -1.
         24    2    1    2    0    0  0.39907355997E+03 -0.44283960792E+03 -0.25707536570E+03  0.65402866052E+03  0.79366998962E+02 0.  0.
        254    2    1    2    0    0 -0.39907355997E+03  0.44283960792E+03 -0.19625033132E+04  0.22333265054E+04  0.88372020486E+03 0.  0.
         23    2    4    4    0    0 -0.25582883865E+02  0.19937030369E+03 -0.12919298446E+04  0.13105532242E+04  0.89799932910E+02 0.  0.
          2    1    3    3  502    0  0.52414748818E+02 -0.55457395975E+02 -0.54866168532E+01  0.76504454945E+02  0.00000000000E+00 0. -1.
         -1    1    3    3    0  502  0.34665881116E+03 -0.38738221194E+03 -0.25158874884E+03  0.57752420558E+03  0.00000000000E+00 0.  1.
         11    1    4    4    0    0 -0.47525306460E+03  0.16360935553E+03 -0.50306508636E+03  0.71113147711E+03  0.00000000000E+00 0. -1.
        -11    1    4    4    0    0  0.10176238849E+03  0.79859948698E+02 -0.16750838222E+03  0.21164180407E+03  0.00000000000E+00 0.  1.
          4    1    5    5  503    0  0.26578059494E+02  0.12774372068E+03 -0.70498993473E+03  0.71696280203E+03  0.00000000000E+00 0. -1.
         -4    1    5    5    0  503 -0.52160943359E+02  0.71626583008E+02 -0.58693990992E+03  0.59359042214E+03  0.00000000000E+00 0.  1.
<mgrwt>
<rscale>  0 0.18466971E+04</rscale>
<asrwt>0</asrwt>
<pdfrwt beam="1">  1        2 0.39284108E+00 0.18466971E+04</pdfrwt>
<pdfrwt beam="2">  1       -1 0.51367420E-01 0.18466971E+04</pdfrwt>
<totfact> 0.13243362E+01</totfact>
</mgrwt>
</event>
<event>
11    6  0.1663299E-008  0.1968845E+04  0.7818608E-02  0.8621327E-01
         -1   -1    0    0    0  501 -0.00000000000E+00  0.00000000000E+00  0.26162963875E+04  0.26162963875E+04  0.00000000000E+00 0.  1.
          2   -1    0    0  501    0  0.00000000000E+00 -0.00000000000E+00 -0.37040436393E+03  0.37040436393E+03  0.00000000000E+00 0. -1.
         24    2    1    2    0    0 -0.43476631558E+03 -0.40643832372E+03  0.13487573426E+03  0.61563127192E+03  0.81219080980E+02 0.  0.
        254    2    1    2    0    0  0.43476631558E+03  0.40643832372E+03  0.21110162893E+04  0.23710694795E+04  0.90075903703E+03 0.  0.
         23    2    4    4    0    0  0.17865156617E+03  0.94956634581E+02  0.18646284554E+04  0.18778131053E+04  0.91704073167E+02 0.  0.
          4    1    3    3  502    0 -0.40261056782E+03 -0.37834461694E+03  0.14610958093E+03  0.57147872063E+03  0.00000000000E+00 0. -1.
         -3    1    3    3    0  502 -0.32155747752E+02 -0.28093706782E+02 -0.11233846663E+02  0.44152551286E+02  0.00000000000E+00 0.  1.
         11    1    4    4    0    0  0.55526816136E+02 -0.10871268468E+00  0.20085070995E+02  0.59047855216E+02  0.00000000000E+00 0. -1.
        -11    1    4    4    0    0  0.20058793327E+03  0.31159040183E+03  0.22630276286E+03  0.43420851899E+03  0.00000000000E+00 0.  1.
          1    1    5    5  503    0  0.54210808153E+02  0.43354191187E+02  0.32654844885E+03  0.33384470501E+03  0.00000000000E+00 0. -1.
         -1    1    5    5    0  503  0.12444075802E+03  0.51602443393E+02  0.15380800066E+04  0.15439684003E+04  0.00000000000E+00 0.  1.
<mgrwt>
<rscale>  0 0.19688449E+04</rscale>
<asrwt>0</asrwt>
<pdfrwt beam="1">  1        2 0.56985289E-01 0.19688449E+04</pdfrwt>
<pdfrwt beam="2">  1       -1 0.40250712E+00 0.19688449E+04</pdfrwt>
<totfact> 0.63618043E-01</totfact>
</mgrwt>
</event>
<event>
11    6  0.1663299E-008  0.1384173E+04  0.7818608E-02  0.8965355E-01
         -1   -1    0    0    0  501 -0.00000000000E+00  0.00000000000E+00  0.72713529556E+03  0.72713529556E+03  0.00000000000E+00 0.  1.
          2   -1    0    0  501    0  0.00000000000E+00 -0.00000000000E+00 -0.65872693722E+03  0.65872693722E+03  0.00000000000E+00 0. -1.
         24    2    1    2    0    0 -0.36324025357E+03  0.45034270821E+02  0.14911394743E+03  0.40390898094E+03  0.83282220240E+02 0.  0.
        254    2    1    2    0    0  0.36324025357E+03 -0.45034270821E+02 -0.80705589082E+02  0.98195325184E+03  0.90760521667E+03 0.  0.
         23    2    4    4    0    0 -0.20448518048E+03 -0.25510759520E+03  0.19114588124E+02  0.34022988433E+03  0.92178807480E+02 0.  0.
          4    1    3    3  502    0 -0.15275433032E+03  0.60218771031E+02  0.59632000862E+02  0.17468875563E+03  0.00000000000E+00 0. -1.
         -3    1    3    3    0  502 -0.21048592325E+03 -0.15184500210E+02  0.89481946567E+02  0.22922022531E+03  0.00000000000E+00 0.  1.
         11    1    4    4    0    0  0.56014138636E+03  0.21351937565E+03 -0.12745785462E+03  0.61285757007E+03  0.00000000000E+00 0.  1.
        -11    1    4    4    0    0  0.75840476903E+01 -0.34460512697E+01  0.27637677415E+02  0.28865797436E+02  0.00000000000E+00 0. -1.
          4    1    5    5  503    0 -0.15779663472E+03 -0.24522850744E+03  0.21858468882E+02  0.29242878014E+03  0.00000000000E+00 0.  1.
         -4    1    5    5    0  503 -0.46688545765E+02 -0.98790877547E+01 -0.27438807579E+01  0.47801104194E+02  0.00000000000E+00 0. -1.
<mgrwt>
<rscale>  0 0.13841728E+04</rscale>
<asrwt>0</asrwt>
<pdfrwt beam="1">  1        2 0.10134260E+00 0.13841728E+04</pdfrwt>
<pdfrwt beam="2">  1       -1 0.11186697E+00 0.13841728E+04</pdfrwt>
<totfact> 0.36114969E+01</totfact>
</mgrwt>
</event>
<event>
12    6  0.1663299E-008  0.2185375E+04  0.7818608E-02  0.8524540E-01
          2   -1    0    0  501    0  0.00000000000E+00  0.00000000000E+00  0.12893102907E+04  0.12893102907E+04  0.00000000000E+00 0. -1.
         -1   -1    0    0    0  501 -0.00000000000E+00 -0.00000000000E+00 -0.92604983857E+03  0.92604983857E+03  0.00000000000E+00 0.  1.
         24    2    1    2    0    0  0.83204977110E+03  0.32969764544E+03  0.22009942991E+02  0.89881709098E+03  0.79877195970E+02 0.  0.
        254    2    1    2    0    0 -0.83204977110E+03 -0.32969764544E+03  0.34125050911E+03  0.13165430383E+04  0.90323103501E+03 0.  0.
         23    2    4    4    0    0  0.26632781239E+02  0.13772460053E+03 -0.13807838891E+03  0.22394059871E+03  0.10680065375E+03 0.  0.
         23    2    4    4    0    0 -0.85868255234E+03 -0.46742224597E+03  0.47932889803E+03  0.10926024395E+04  0.90579339176E+02 0.  0.
          4    1    3    3  502    0  0.63349422734E+03  0.26071547716E+03 -0.15892888694E+02  0.68522994682E+03  0.00000000000E+00 0. -1.
         -3    1    3    3    0  502  0.19855554376E+03  0.68982168282E+02  0.37902831685E+02  0.21358714416E+03  0.00000000000E+00 0.  1.
         11    1    5    5    0    0  0.19415572064E+01  0.47852551627E+01  0.17249227862E+02  0.18005670585E+02  0.00000000000E+00 0. -1.
        -11    1    5    5    0    0  0.24691224032E+02  0.13293934537E+03 -0.15532761678E+03  0.20593492813E+03  0.00000000000E+00 0.  1.
          1    1    6    6  503    0 -0.45936905291E+02 -0.87262316514E+01  0.93184479783E+01  0.47677875993E+02  0.00000000000E+00 0. -1.
         -1    1    6    6    0  503 -0.81274564705E+03 -0.45869601432E+03  0.47001045005E+03  0.10449245635E+04  0.00000000000E+00 0.  1.
<mgrwt>
<rscale>  0 0.21853746E+04</rscale>
<asrwt>0</asrwt>
<pdfrwt beam="1">  1        2 0.19835543E+00 0.21853746E+04</pdfrwt>
<pdfrwt beam="2">  1       -1 0.14246921E+00 0.21853746E+04</pdfrwt>
<totfact> 0.70033819E+00</totfact>
</mgrwt>
</event>
<event>
12    6  0.1663299E-008  0.1362197E+04  0.7818608E-02  0.8981646E-01
          2   -1    0    0  501    0  0.00000000000E+00  0.00000000000E+00  0.11635522698E+04  0.11635522698E+04  0.00000000000E+00 0. -1.
         -1   -1    0    0    0  501 -0.00000000000E+00 -0.00000000000E+00 -0.39868900951E+03  0.39868900951E+03  0.00000000000E+00 0.  1.
         24    2    1    2    0    0 -0.33626462216E+03 -0.12820748407E+02  0.24859824795E+03  0.42517470271E+03  0.75724310731E+02 0.  0.
        254    2    1    2    0    0  0.33626462216E+03  0.12820748407E+02  0.51626501231E+03  0.11370665766E+04  0.95559016787E+03 0.  0.
         23    2    4    4    0    0  0.65459867996E+02  0.45569418786E+03  0.12978350386E+03  0.48370120350E+03  0.71978533082E+02 0.  0.
         23    2    4    4    0    0  0.27080475416E+03 -0.44287343945E+03  0.38648150845E+03  0.65336537308E+03  0.89700925933E+02 0.  0.
          2    1    3    3  502    0 -0.28652781839E+03  0.13057205682E+02  0.22409452872E+03  0.36398769091E+03  0.00000000000E+00 0. -1.
         -1    1    3    3    0  502 -0.49736803770E+02 -0.25877954089E+02  0.24503719231E+02  0.61187011802E+02  0.00000000000E+00 0.  1.
         11    1    5    5    0    0  0.58073733372E+02  0.41870536973E+03  0.96939253303E+02  0.43368648121E+03  0.00000000000E+00 0.  1.
        -11    1    5    5    0    0  0.73861346241E+01  0.36988818125E+02  0.32844250559E+02  0.50014722290E+02  0.00000000000E+00 0. -1.
          2    1    6    6  503    0  0.25990575767E+03 -0.39800895690E+03  0.37584124628E+03  0.60598578782E+03  0.00000000000E+00 0.  1.
         -2    1    6    6    0  503  0.10898996493E+02 -0.44864482557E+02  0.10640262167E+02  0.47379585252E+02  0.00000000000E+00 0. -1.
<mgrwt>
<rscale>  0 0.13621975E+04</rscale>
<asrwt>0</asrwt>
<pdfrwt beam="1">  1        2 0.17900804E+00 0.13621975E+04</pdfrwt>
<pdfrwt beam="2">  1       -1 0.61336771E-01 0.13621975E+04</pdfrwt>
<totfact> 0.59766868E+01</totfact>
</mgrwt>
</event>
<event>
11    6  0.1663299E-008  0.2935403E+04  0.7818608E-02  0.8262421E-01
         -1   -1    0    0    0  501 -0.00000000000E+00  0.00000000000E+00  0.11242703919E+04  0.11242703919E+04  0.00000000000E+00 0.  1.
          2   -1    0    0  501    0  0.00000000000E+00 -0.00000000000E+00 -0.19160403925E+04  0.19160403925E+04  0.00000000000E+00 0. -1.
         24    2    1    2    0    0 -0.22196199110E+03 -0.14772877934E+02 -0.17170971762E+04  0.17332524215E+04  0.79094125239E+02 0.  0.
        254    2    1    2    0    0  0.22196199110E+03  0.14772877934E+02  0.92532717564E+03  0.13070583629E+04  0.89592735122E+03 0.  0.
         23    2    4    4    0    0  0.19501138613E+03  0.15338761947E+03 -0.62141282680E+02  0.27170788236E+03  0.91686595510E+02 0.  0.
          2    1    3    3  502    0 -0.13273462691E+03 -0.46907286591E+02 -0.97114057748E+03  0.98129139197E+03  0.00000000000E+00 0. -1.
         -1    1    3    3    0  502 -0.89227364191E+02  0.32134408657E+02 -0.74595659874E+03  0.75196102954E+03  0.00000000000E+00 0.  1.
         11    1    4    4    0    0  0.14446495192E+03 -0.33854806455E+02  0.38356901501E+03  0.41126811149E+03  0.00000000000E+00 0. -1.
        -11    1    4    4    0    0 -0.11751434695E+03 -0.10475993508E+03  0.60389944330E+03  0.62408236905E+03  0.00000000000E+00 0.  1.
          3    1    5    5  503    0  0.51505910745E+02  0.61921919911E+02 -0.61818467214E+02  0.10153179746E+03  0.00000000000E+00 0. -1.
         -3    1    5    5    0  503  0.14350547539E+03  0.91465699560E+02 -0.32281546565E+00  0.17017608490E+03  0.00000000000E+00 0.  1.
<mgrwt>
<rscale>  0 0.29354029E+04</rscale>
<asrwt>0</asrwt>
<pdfrwt beam="1">  1        2 0.29477544E+00 0.29354029E+04</pdfrwt>
<pdfrwt beam="2">  1       -1 0.17296468E+00 0.29354029E+04</pdfrwt>
<totfact> 0.17048490E+00</totfact>
</mgrwt>
</event>
<event>
11    6  0.1663299E-008  0.1780392E+04  0.7818608E-02  0.8716797E-01
         -1   -1    0    0    0  501 -0.00000000000E+00  0.00000000000E+00  0.12554873124E+04  0.12554873124E+04  0.00000000000E+00 0.  1.
          2   -1    0    0  501    0  0.00000000000E+00 -0.00000000000E+00 -0.63118813859E+03  0.63118813859E+03  0.00000000000E+00 0. -1.
         24    2    1    2    0    0  0.47799717721E+02 -0.35112564236E+03  0.82371576766E+03  0.90029124356E+03  0.80265980420E+02 0.  0.
        254    2    1    2    0    0 -0.47799717721E+02  0.35112564236E+03 -0.19941659387E+03  0.98638420740E+03  0.89867279750E+03 0.  0.
         23    2    4    4    0    0 -0.42548189681E+03  0.27563653792E+03 -0.22198158440E+03  0.56077279570E+03  0.90443125981E+02 0.  0.
          4    1    3    3  502    0  0.17056611569E+02 -0.24619837154E+02  0.12352342556E+03  0.12710271846E+03  0.00000000000E+00 0. -1.
         -1    1    3    3    0  502  0.30743106152E+02 -0.32650580521E+03  0.70019234210E+03  0.77318852510E+03  0.00000000000E+00 0.  1.
         11    1    4    4    0    0  0.71914423429E+02  0.85487958675E+02 -0.28877363900E+02  0.11538534362E+03  0.00000000000E+00 0.  1.
        -11    1    4    4    0    0  0.30576775566E+03 -0.99988542306E+01  0.51442354434E+02  0.31022606808E+03  0.00000000000E+00 0. -1.
          2    1    5    5  503    0 -0.31896417243E+03  0.23738054351E+03 -0.20153192830E+03  0.44576090436E+03  0.00000000000E+00 0. -1.
         -2    1    5    5    0  503 -0.10651772438E+03  0.38255994410E+02 -0.20449656099E+02  0.11501189135E+03  0.00000000000E+00 0.  1.
<mgrwt>
<rscale>  0 0.17803918E+04</rscale>
<asrwt>0</asrwt>
<pdfrwt beam="1">  1        2 0.97105868E-01 0.17803918E+04</pdfrwt>
<pdfrwt beam="2">  1       -1 0.19315189E+00 0.17803918E+04</pdfrwt>
<totfact> 0.84541369E+00</totfact>
</mgrwt>
</event>
<event>
11    6  0.1663299E-008  0.1702220E+04  0.7818608E-02  0.8760099E-01
         -1   -1    0    0    0  501 -0.00000000000E+00  0.00000000000E+00  0.63567191587E+03  0.63567191587E+03  0.00000000000E+00 0.  1.
          2   -1    0    0  501    0  0.00000000000E+00 -0.00000000000E+00 -0.11395632339E+04  0.11395632339E+04  0.00000000000E+00 0. -1.
         24    2    1    2    0    0  0.39627752720E+03  0.44188985571E+03 -0.43654657209E+02  0.60032935213E+03  0.78657986256E+02 0.  0.
        254    2    1    2    0    0 -0.39627752720E+03 -0.44188985571E+03 -0.46023666080E+03  0.11749057976E+04  0.90348399331E+03 0.  0.
         23    2    4    4    0    0 -0.43568677783E+02 -0.30144436829E+03  0.21321652111E+03  0.38366671113E+03  0.94720238021E+02 0.  0.
          4    1    3    3  502    0  0.30486244018E+03  0.33001597617E+03 -0.66125400529E+02  0.45411916999E+03  0.00000000000E+00 0. -1.
         -3    1    3    3    0  502  0.91415087018E+02  0.11187387954E+03  0.22470743320E+02  0.14621018215E+03  0.00000000000E+00 0.  1.
         11    1    4    4    0    0 -0.36374655853E+03 -0.10702267885E+03 -0.59958553352E+03  0.70941400088E+03  0.00000000000E+00 0. -1.
        -11    1    4    4    0    0  0.11037709115E+02 -0.33422808566E+02 -0.73867648389E+02  0.81825085600E+02  0.00000000000E+00 0.  1.
          2    1    5    5  503    0  0.94032592833E+01 -0.54844100675E+01 -0.51794845189E+01  0.12055168967E+02  0.00000000000E+00 0.  1.
         -2    1    5    5    0  503 -0.52971937066E+02 -0.29595995823E+03  0.21839600563E+03  0.37161154216E+03  0.00000000000E+00 0. -1.
<mgrwt>
<rscale>  0 0.17022201E+04</rscale>
<asrwt>0</asrwt>
<pdfrwt beam="1">  1        2 0.17531742E+00 0.17022201E+04</pdfrwt>
<pdfrwt beam="2">  1       -1 0.97795680E-01 0.17022201E+04</pdfrwt>
<totfact> 0.22419201E+01</totfact>
</mgrwt>
</event>
<event>
12    6  0.1663299E-008  0.1047173E+04  0.7818608E-02  0.9258268E-01
          2   -1    0    0  501    0  0.00000000000E+00  0.00000000000E+00  0.88713531732E+03  0.88713531732E+03  0.00000000000E+00 0. -1.
         -1   -1    0    0    0  501 -0.00000000000E+00 -0.00000000000E+00 -0.30902005924E+03  0.30902005924E+03  0.00000000000E+00 0.  1.
         24    2    1    2    0    0 -0.56939628995E+02 -0.83032762401E+02  0.30959167263E+02  0.13234224761E+03  0.80121404644E+02 0.  0.
        254    2    1    2    0    0  0.56939628995E+02  0.83032762401E+02  0.54715609081E+03  0.10638131290E+04  0.90674253492E+03 0.  0.
         23    2    4    4    0    0  0.32534901638E+03  0.37187708983E+03  0.26630746629E+03  0.57140389969E+03  0.10694950950E+03 0.  0.
         23    2    4    4    0    0 -0.26840938739E+03 -0.28884432743E+03  0.28084862452E+03  0.49240922926E+03  0.90090257167E+02 0.  0.
          2    1    3    3  502    0 -0.26860992158E+02 -0.11851782411E+02  0.45070017491E+02  0.53789256573E+02  0.00000000000E+00 0. -1.
         -1    1    3    3    0  502 -0.30078636838E+02 -0.71180979990E+02 -0.14110850228E+02  0.78552991035E+02  0.00000000000E+00 0.  1.
         11    1    5    5    0    0  0.22006127953E+03  0.31386747895E+03  0.22393206568E+03  0.44394293680E+03  0.00000000000E+00 0. -1.
        -11    1    5    5    0    0  0.10528773685E+03  0.58009610880E+02  0.42375400606E+02  0.12746096289E+03  0.00000000000E+00 0.  1.
          1    1    6    6  503    0 -0.17332954662E+03 -0.12423050064E+03  0.16665621399E+03  0.27064855936E+03  0.00000000000E+00 0. -1.
         -1    1    6    6    0  503 -0.95079840763E+02 -0.16461382680E+03  0.11419241053E+03  0.22176066990E+03  0.00000000000E+00 0.  1.
<mgrwt>
<rscale>  0 0.10471726E+04</rscale>
<asrwt>0</asrwt>
<pdfrwt beam="1">  1        2 0.13648235E+00 0.10471726E+04</pdfrwt>
<pdfrwt beam="2">  1       -1 0.47541548E-01 0.10471726E+04</pdfrwt>
<totfact> 0.15006959E+02</totfact>
</mgrwt>
</event>
<event>
12    6  0.1663299E-008  0.2373304E+04  0.7818608E-02  0.8449566E-01
         -1   -1    0    0    0  501 -0.00000000000E+00  0.00000000000E+00  0.10085536985E+04  0.10085536985E+04  0.00000000000E+00 0.  1.
          2   -1    0    0  501    0  0.00000000000E+00 -0.00000000000E+00 -0.13962005250E+04  0.13962005250E+04  0.00000000000E+00 0. -1.
         24    2    1    2    0    0 -0.12717633331E+03 -0.83398620616E+03 -0.73322157185E+03  0.11206342267E+04  0.80624963275E+02 0.  0.
        254    2    1    2    0    0  0.12717633331E+03  0.83398620616E+03  0.34557474529E+03  0.12841199968E+04  0.90434255115E+03 0.  0.
         23    2    4    4    0    0  0.11222556577E+03  0.99998429198E+03  0.16407340766E+03  0.10210860961E+04  0.55978305688E+02 0.  0.
         23    2    4    4    0    0  0.14950767543E+02 -0.16599808582E+03  0.18150133763E+03  0.26303390073E+03  0.92006561869E+02 0.  0.
          2    1    3    3  502    0 -0.96105932305E+02 -0.74448664544E+03 -0.67443596841E+03  0.10091385390E+04  0.00000000000E+00 0. -1.
         -1    1    3    3    0  502 -0.31070401009E+02 -0.89499560720E+02 -0.58785603441E+02  0.11149568763E+03  0.00000000000E+00 0.  1.
         11    1    5    5    0    0  0.10882728083E+03  0.77517381972E+03  0.13603844773E+03  0.79450883387E+03  0.00000000000E+00 0. -1.
        -11    1    5    5    0    0  0.33982849445E+01  0.22481047225E+03  0.28034959929E+02  0.22657726222E+03  0.00000000000E+00 0.  1.
          3    1    6    6  503    0 -0.21230749653E+02 -0.97182527733E+02  0.14812038678E+03  0.17842319750E+03  0.00000000000E+00 0. -1.
         -3    1    6    6    0  503  0.36181517196E+02 -0.68815558084E+02  0.33380950852E+02  0.84610703229E+02  0.00000000000E+00 0.  1.
<mgrwt>
<rscale>  0 0.23733042E+04</rscale>
<asrwt>0</asrwt>
<pdfrwt beam="1">  1        2 0.21480008E+00 0.23733042E+04</pdfrwt>
<pdfrwt beam="2">  1       -1 0.15516211E+00 0.23733042E+04</pdfrwt>
<totfact> 0.47520519E+00</totfact>
</mgrwt>
</event>
<event>
12    6  0.1663299E-008  0.2371995E+04  0.7818608E-02  0.8450063E-01
         -1   -1    0    0    0  501 -0.00000000000E+00  0.00000000000E+00  0.20949035616E+04  0.20949035616E+04  0.00000000000E+00 0.  1.
          2   -1    0    0  501    0  0.00000000000E+00 -0.00000000000E+00 -0.67143450796E+03  0.67143450796E+03  0.00000000000E+00 0. -1.
         24    2    1    2    0    0  0.80450139274E+03  0.60706546254E+03  0.74494779655E+03  0.12557703491E+04  0.79126376309E+02 0.  0.
        254    2    1    2    0    0 -0.80450139274E+03 -0.60706546254E+03  0.67852125708E+03  0.15105677204E+04  0.89759276678E+03 0.  0.
         23    2    4    4    0    0 -0.32949910487E+02 -0.62465962811E+02 -0.18237488085E+03  0.22949642901E+03  0.12008463953E+03 0.  0.
         23    2    4    4    0    0 -0.77155148225E+03 -0.54459949973E+03  0.86089613793E+03  0.12810712914E+04  0.90117637266E+02 0.  0.
          2    1    3    3  502    0  0.15298658030E+03  0.94627303431E+02  0.16536146280E+03  0.24434327019E+03  0.00000000000E+00 0. -1.
         -1    1    3    3    0  502  0.65151481244E+03  0.51243815911E+03  0.57958633376E+03  0.10114270789E+04  0.00000000000E+00 0.  1.
         11    1    5    5    0    0 -0.54060610160E+02  0.16709317459E+02 -0.86661877872E+02  0.10349894655E+03  0.00000000000E+00 0. -1.
        -11    1    5    5    0    0  0.21110699673E+02 -0.79175280270E+02 -0.95713002976E+02  0.12599748246E+03  0.00000000000E+00 0.  1.
          4    1    6    6  503    0 -0.73213694581E+03 -0.48951986581E+03  0.79176845099E+03  0.11842936656E+04  0.00000000000E+00 0. -1.
         -4    1    6    6    0  503 -0.39414536447E+02 -0.55079633920E+02  0.69127686938E+02  0.96777625811E+02  0.00000000000E+00 0.  1.
<mgrwt>
<rscale>  0 0.23719954E+04</rscale>
<asrwt>0</asrwt>
<pdfrwt beam="1">  1        2 0.10329762E+00 0.23719954E+04</pdfrwt>
<pdfrwt beam="2">  1       -1 0.32229285E+00 0.23719954E+04</pdfrwt>
<totfact> 0.10504593E+00</totfact>
</mgrwt>
</event>
<event>
11    6  0.1663299E-008  0.1900029E+04  0.7818608E-02  0.8654842E-01
         -1   -1    0    0    0  501 -0.00000000000E+00  0.00000000000E+00  0.44452299936E+03  0.44452299936E+03  0.00000000000E+00 0.  1.
          2   -1    0    0  501    0  0.00000000000E+00 -0.00000000000E+00 -0.20303288869E+04  0.20303288869E+04  0.00000000000E+00 0. -1.
         24    2    1    2    0    0  0.62791489607E+03  0.37799581343E+03 -0.64258129777E+03  0.97795949763E+03  0.79599642436E+02 0.  0.
        254    2    1    2    0    0 -0.62791489607E+03 -0.37799581343E+03 -0.94322458974E+03  0.14968923886E+04  0.90213981440E+03 0.  0.
         23    2    4    4    0    0 -0.80737989337E+03 -0.19970620166E+03 -0.64679252725E+03  0.10575723869E+04  0.91509130494E+02 0.  0.
          2    1    3    3  502    0  0.23556514350E+03  0.12609337007E+03 -0.18738799116E+03  0.32635063052E+03  0.00000000000E+00 0. -1.
         -1    1    3    3    0  502  0.39234975256E+03  0.25190244336E+03 -0.45519330661E+03  0.65160886711E+03  0.00000000000E+00 0.  1.
         11    1    4    4    0    0  0.56714424029E+02 -0.56586587021E+01 -0.19744894741E+03  0.20551066431E+03  0.00000000000E+00 0. -1.
        -11    1    4    4    0    0  0.12275057328E+03 -0.17263095308E+03 -0.98983115085E+02  0.23380933744E+03  0.00000000000E+00 0.  1.
          3    1    5    5  503    0 -0.22307847582E+03 -0.14716356859E+02 -0.18511462492E+03  0.29025506351E+03  0.00000000000E+00 0. -1.
         -3    1    5    5    0  503 -0.58430141756E+03 -0.18498984480E+03 -0.46167790233E+03  0.76731732336E+03  0.00000000000E+00 0.  1.
<mgrwt>
<rscale>  0 0.19000294E+04</rscale>
<asrwt>0</asrwt>
<pdfrwt beam="1">  1        2 0.31235828E+00 0.19000294E+04</pdfrwt>
<pdfrwt beam="2">  1       -1 0.68388155E-01 0.19000294E+04</pdfrwt>
<totfact> 0.14831962E+01</totfact>
</mgrwt>
</event>
<event>
12    6  0.1663299E-008  0.1735805E+04  0.7818608E-02  0.8741203E-01
          2   -1    0    0  501    0  0.00000000000E+00  0.00000000000E+00  0.16367435578E+04  0.16367435578E+04  0.00000000000E+00 0. -1.
         -1   -1    0    0    0  501 -0.00000000000E+00 -0.00000000000E+00 -0.46021539732E+03  0.46021539732E+03  0.00000000000E+00 0.  1.
         24    2    1    2    0    0  0.31191640455E+03 -0.53174223119E+03  0.72237165631E+03  0.95309552269E+03  0.80799886643E+02 0.  0.
        254    2    1    2    0    0 -0.31191640455E+03  0.53174223119E+03  0.45415650419E+03  0.11438634324E+04  0.84977866409E+03 0.  0.
         23    2    4    4    0    0  0.99709579448E+01  0.65251348704E+02  0.55216501972E+03  0.56148565246E+03  0.77606510094E+02 0.  0.
         23    2    4    4    0    0 -0.32188736249E+03  0.46649088248E+03 -0.98008515532E+02  0.58237777998E+03  0.91285222971E+02 0.  0.
          2    1    3    3  502    0  0.79072408381E+02 -0.10112262522E+03  0.19571405437E+03  0.23405602359E+03  0.00000000000E+00 0. -1.
         -1    1    3    3    0  502  0.23284399617E+03 -0.43061960597E+03  0.52665760194E+03  0.71903949910E+03  0.00000000000E+00 0.  1.
         11    1    5    5    0    0  0.63520958233E+01 -0.76502716237E+01  0.26509529924E+03  0.26528172469E+03  0.00000000000E+00 0. -1.
        -11    1    5    5    0    0  0.36188621215E+01  0.72901620328E+02  0.28706972049E+03  0.29620392777E+03  0.00000000000E+00 0.  1.
          1    1    6    6  503    0 -0.84520629605E+02  0.78639124147E+02  0.71060009282E+01  0.11566479121E+03  0.00000000000E+00 0. -1.
         -1    1    6    6    0  503 -0.23736673289E+03  0.38785175833E+03 -0.10511451646E+03  0.46671298878E+03  0.00000000000E+00 0.  1.
<mgrwt>
<rscale>  0 0.17358048E+04</rscale>
<asrwt>0</asrwt>
<pdfrwt beam="1">  1        2 0.25180670E+00 0.17358048E+04</pdfrwt>
<pdfrwt beam="2">  1       -1 0.70802370E-01 0.17358048E+04</pdfrwt>
<totfact> 0.23171858E+01</totfact>
</mgrwt>
</event>
<event>
11    6  0.1663299E-008  0.2451215E+04  0.7818608E-02  0.8420575E-01
         -1   -1    0    0    0  501 -0.00000000000E+00  0.00000000000E+00  0.39787159176E+03  0.39787159176E+03  0.00000000000E+00 0.  1.
          2   -1    0    0  501    0  0.00000000000E+00 -0.00000000000E+00 -0.37753729208E+04  0.37753729208E+04  0.00000000000E+00 0. -1.
         24    2    1    2    0    0  0.98513797178E+03  0.37324051112E+03 -0.16539395863E+04  0.19625476410E+04  0.79194605066E+02 0.  0.
        254    2    1    2    0    0 -0.98513797178E+03 -0.37324051112E+03 -0.17235617428E+04  0.22106968716E+04  0.89817051517E+03 0.  0.
         23    2    4    4    0    0 -0.36214473231E+02  0.20204703188E+03 -0.20240888695E+03  0.30360735537E+03  0.95255328194E+02 0.  0.
          4    1    3    3  502    0  0.98232989118E+03  0.37272900317E+03 -0.16355996146E+04  0.19439868889E+04  0.00000000000E+00 0. -1.
         -3    1    3    3    0  502  0.28080806034E+01  0.51150794165E+00 -0.18339971640E+02  0.18560752054E+02  0.00000000000E+00 0.  1.
         11    1    4    4    0    0 -0.93180845049E+03 -0.55176399436E+03 -0.13364934106E+04  0.17201526474E+04  0.00000000000E+00 0. -1.
        -11    1    4    4    0    0 -0.17115048068E+02 -0.23523548639E+02 -0.18465944519E+03  0.18693686878E+03  0.00000000000E+00 0.  1.
          2    1    5    5  503    0  0.20878260074E+02  0.13218919937E+03 -0.14143878304E+03  0.19471727074E+03  0.00000000000E+00 0. -1.
         -2    1    5    5    0  503 -0.57092733306E+02  0.69857832510E+02 -0.60970103913E+02  0.10889008463E+03  0.00000000000E+00 0.  1.
<mgrwt>
<rscale>  0 0.24512149E+04</rscale>
<asrwt>0</asrwt>
<pdfrwt beam="1">  1        2 0.58082662E+00 0.24512149E+04</pdfrwt>
<pdfrwt beam="2">  1       -1 0.61211012E-01 0.24512149E+04</pdfrwt>
<totfact> 0.14173999E+00</totfact>
</mgrwt>
</event>
<event>
11    6  0.1663299E-008  0.1606057E+04  0.7818608E-02  0.8816836E-01
          2   -1    0    0  501    0  0.00000000000E+00  0.00000000000E+00  0.75961247246E+03  0.75961247246E+03  0.00000000000E+00 0. -1.
         -1   -1    0    0    0  501 -0.00000000000E+00 -0.00000000000E+00 -0.84892575451E+03  0.84892575451E+03  0.00000000000E+00 0.  1.
         24    2    1    2    0    0 -0.36007478843E+02 -0.33283601293E+02  0.51338397530E+03  0.52199013985E+03  0.80661411873E+02 0.  0.
        254    2    1    2    0    0  0.36007478843E+02  0.33283601293E+02 -0.60269725734E+03  0.10865480871E+04  0.90273940036E+03 0.  0.
         23    2    4    4    0    0  0.40731946593E+03  0.62466059076E+02 -0.23981654858E+03  0.48702927570E+03  0.99369927839E+02 0.  0.
          4    1    3    3  502    0 -0.39921018812E+02 -0.57355306248E+02  0.36835411906E+03  0.37492409356E+03  0.00000000000E+00 0. -1.
         -3    1    3    3    0  502  0.39135399691E+01  0.24071704956E+02  0.14502985623E+03  0.14706604630E+03  0.00000000000E+00 0.  1.
         11    1    4    4    0    0 -0.31470238502E+03  0.78227197513E+02 -0.35045820941E+03  0.47747046203E+03  0.00000000000E+00 0. -1.
        -11    1    4    4    0    0 -0.56609602064E+02 -0.10740965530E+03 -0.12422499352E+02  0.12204834938E+03  0.00000000000E+00 0.  1.
          1    1    5    5  503    0  0.49359136849E+02  0.32402016943E+02 -0.81976006442E+01  0.59610533874E+02  0.00000000000E+00 0.  1.
         -1    1    5    5    0  503  0.35796032908E+03  0.30064042134E+02 -0.23161894794E+03  0.42741874183E+03  0.00000000000E+00 0. -1.
<mgrwt>
<rscale>  0 0.16060568E+04</rscale>
<asrwt>0</asrwt>
<pdfrwt beam="1">  1        2 0.11686346E+00 0.16060568E+04</pdfrwt>
<pdfrwt beam="2">  1       -1 0.13060396E+00 0.16060568E+04</pdfrwt>
<totfact> 0.20236416E+01</totfact>
</mgrwt>
</event>
<event>
12    6  0.1663299E-008  0.1638945E+04  0.7818608E-02  0.8796973E-01
         -1   -1    0    0    0  501 -0.00000000000E+00  0.00000000000E+00  0.43955998628E+03  0.43955998628E+03  0.00000000000E+00 0.  1.
          2   -1    0    0  501    0  0.00000000000E+00 -0.00000000000E+00 -0.15277449950E+04  0.15277449950E+04  0.00000000000E+00 0. -1.
         24    2    1    2    0    0  0.37682327480E+03  0.19095402078E+03  0.71542619732E+02  0.43566742500E+03  0.78921101634E+02 0.  0.
        254    2    1    2    0    0 -0.37682327480E+03 -0.19095402078E+03 -0.11597276284E+04  0.15316375563E+04  0.90691025637E+03 0.  0.
         23    2    4    4    0    0 -0.43735063522E+03  0.26980736702E+03 -0.56209694658E+03  0.76911789293E+03  0.10732083885E+03 0.  0.
         23    2    4    4    0    0  0.60527360422E+02 -0.46076138780E+03 -0.59763068186E+03  0.76251966333E+03  0.91154743249E+02 0.  0.
          4    1    3    3  502    0  0.34642132389E+02  0.36995156073E+02  0.28068133478E+02  0.57935645559E+02  0.00000000000E+00 0. -1.
         -3    1    3    3    0  502  0.34218114241E+03  0.15395886471E+03  0.43474486254E+02  0.37773177944E+03  0.00000000000E+00 0.  1.
         11    1    5    5    0    0 -0.40325034672E+03  0.22159843952E+03 -0.45665672350E+03  0.64826851971E+03  0.00000000000E+00 0.  1.
        -11    1    5    5    0    0 -0.34100288505E+02  0.48208927495E+02 -0.10544022307E+03  0.12084937322E+03  0.00000000000E+00 0. -1.
          2    1    6    6  503    0  0.15420487857E+02 -0.38131730947E+03 -0.49677712176E+03  0.62644089159E+03  0.00000000000E+00 0. -1.
         -2    1    6    6    0  503  0.45106872565E+02 -0.79444078332E+02 -0.10085356010E+03  0.13607877174E+03  0.00000000000E+00 0.  1.
<mgrwt>
<rscale>  0 0.16389455E+04</rscale>
<asrwt>0</asrwt>
<pdfrwt beam="1">  1        2 0.23503769E+00 0.16389455E+04</pdfrwt>
<pdfrwt beam="2">  1       -1 0.67624613E-01 0.16389455E+04</pdfrwt>
<totfact> 0.29537300E+01</totfact>
</mgrwt>
</event>
<event>
11    6  0.1663299E-008  0.2516330E+04  0.7818608E-02  0.8397191E-01
          2   -1    0    0  501    0  0.00000000000E+00  0.00000000000E+00  0.29593599506E+04  0.29593599506E+04  0.00000000000E+00 0. -1.
         -1   -1    0    0    0  501 -0.00000000000E+00 -0.00000000000E+00 -0.53490574890E+03  0.53490574890E+03  0.00000000000E+00 0.  1.
         24    2    1    2    0    0  0.11473529189E+03 -0.96011848244E+03  0.33944691593E+03  0.10278697644E+04  0.79374784373E+02 0.  0.
        254    2    1    2    0    0 -0.11473529189E+03  0.96011848244E+03  0.20850072858E+04  0.24663959351E+04  0.89490884410E+03 0.  0.
         23    2    4    4    0    0  0.46297383413E+02 -0.44644379025E+02  0.69790067871E+03  0.70672086396E+03  0.90843017995E+02 0.  0.
          2    1    3    3  502    0  0.10577768476E+01 -0.11966582251E+03  0.18621767539E+02  0.12111068572E+03  0.00000000000E+00 0. -1.
         -1    1    3    3    0  502  0.11367751504E+03 -0.84045265993E+03  0.32082514840E+03  0.90675907872E+03  0.00000000000E+00 0.  1.
         11    1    4    4    0    0 -0.66136155271E+02 -0.65728730701E+01  0.99020645846E+02  0.11925720942E+03  0.00000000000E+00 0. -1.
        -11    1    4    4    0    0 -0.94896520028E+02  0.10113357345E+04  0.12880859612E+04  0.16404178617E+04  0.00000000000E+00 0.  1.
          4    1    5    5  503    0  0.63000810223E+01 -0.56463516906E+01  0.21470841391E+01  0.87282460209E+01  0.00000000000E+00 0. -1.
         -4    1    5    5    0  503  0.39997302391E+02 -0.38998027334E+02  0.69575359457E+03  0.69799261794E+03  0.00000000000E+00 0.  1.
<mgrwt>
<rscale>  0 0.25163296E+04</rscale>
<asrwt>0</asrwt>
<pdfrwt beam="1">  1        2 0.45528614E+00 0.25163296E+04</pdfrwt>
<pdfrwt beam="2">  1       -1 0.82293194E-01 0.25163296E+04</pdfrwt>
<totfact> 0.27455826E+00</totfact>
</mgrwt>
</event>
<event>
11    6  0.1663299E-008  0.1930597E+04  0.7818608E-02  0.8639775E-01
         -1   -1    0    0    0  501 -0.00000000000E+00  0.00000000000E+00  0.68354505491E+03  0.68354505491E+03  0.00000000000E+00 0.  1.
          2   -1    0    0  501    0  0.00000000000E+00 -0.00000000000E+00 -0.13631886230E+04  0.13631886230E+04  0.00000000000E+00 0. -1.
         24    2    1    2    0    0  0.14085467274E+03  0.74197960996E+03 -0.25466597054E+03  0.80087782999E+03  0.78592376089E+02 0.  0.
        254    2    1    2    0    0 -0.14085467274E+03 -0.74197960996E+03 -0.42497759752E+03  0.12458558479E+04  0.89508494285E+03 0.  0.
         23    2    4    4    0    0 -0.39410480848E+03 -0.27583380769E+03 -0.48326386603E+03  0.68779265902E+03  0.90066020569E+02 0.  0.
          4    1    3    3  502    0  0.11339027919E+03  0.57698875500E+03 -0.16325101699E+03  0.61026573995E+03  0.00000000000E+00 0. -1.
         -3    1    3    3    0  502  0.27464393557E+02  0.16499085496E+03 -0.91414953554E+02  0.19061209004E+03  0.00000000000E+00 0.  1.
         11    1    4    4    0    0  0.12250922817E+03 -0.25175817766E+03  0.11151771481E+03  0.30137500182E+03  0.00000000000E+00 0. -1.
        -11    1    4    4    0    0  0.13074090757E+03 -0.21438762461E+03 -0.53231446299E+02  0.25668818706E+03  0.00000000000E+00 0.  1.
          1    1    5    5  503    0 -0.34063718470E+03 -0.24130426612E+03 -0.45694263423E+03  0.61891680493E+03  0.00000000000E+00 0. -1.
         -1    1    5    5    0  503 -0.53467623774E+02 -0.34529541566E+02 -0.26321231805E+02  0.68875854089E+02  0.00000000000E+00 0.  1.
<mgrwt>
<rscale>  0 0.19305966E+04</rscale>
<asrwt>0</asrwt>
<pdfrwt beam="1">  1        2 0.20972132E+00 0.19305966E+04</pdfrwt>
<pdfrwt beam="2">  1       -1 0.10516078E+00 0.19305966E+04</pdfrwt>
<totfact> 0.13725168E+01</totfact>
</mgrwt>
</event>
<event>
12    6  0.3013415E-008  0.2179441E+04  0.7818608E-02  0.8527034E-01
         -1   -1    0    0    0  501 -0.00000000000E+00  0.00000000000E+00  0.63229321849E+03  0.63229321849E+03  0.00000000000E+00 0.  1.
          2   -1    0    0  501    0  0.00000000000E+00 -0.00000000000E+00 -0.18780700154E+04  0.18780700154E+04  0.00000000000E+00 0. -1.
         24    2    1    2    0    0  0.62817264081E+03  0.12388083832E+03 -0.12442279498E+04  0.14018061331E+04  0.83725235276E+02 0.  0.
        254    2    1    2    0    0 -0.62817264081E+03 -0.12388083832E+03 -0.15488470963E+01  0.11085571008E+04  0.90495807524E+03 0.  0.
         23    2    4    4    0    0 -0.58619164910E+03  0.30488318151E+03 -0.89281324988E+01  0.66951283468E+03  0.10767228242E+03 0.  0.
         23    2    4    4    0    0 -0.41980991705E+02 -0.42876401983E+03  0.73792854024E+01  0.43904426608E+03  0.84287753350E+02 0.  0.
          2    1    3    3  502    0  0.57735850984E+03  0.12880459764E+03 -0.11026947305E+04  0.12513469311E+04  0.00000000000E+00 0. -1.
         -1    1    3    3    0  502  0.50814130970E+02 -0.49237593271E+01 -0.14153321928E+03  0.15045920202E+03  0.00000000000E+00 0.  1.
         11    1    5    5    0    0 -0.26777732897E+02 -0.77544704176E+01 -0.66527570425E+01  0.28660739119E+02  0.00000000000E+00 0. -1.
        -11    1    5    5    0    0 -0.55941391621E+03  0.31263765193E+03 -0.22753754562E+01  0.64085209556E+03  0.00000000000E+00 0.  1.
          2    1    6    6  503    0 -0.46187739833E+01  0.30184212970E+01 -0.77430611452E+00  0.55716685287E+01  0.00000000000E+00 0. -1.
         -2    1    6    6    0  503 -0.37362217721E+02 -0.43178244112E+03  0.81535915170E+01  0.43347259755E+03  0.00000000000E+00 0.  1.
<mgrwt>
<rscale>  0 0.21794412E+04</rscale>
<asrwt>0</asrwt>
<pdfrwt beam="1">  1        2 0.28893384E+00 0.21794412E+04</pdfrwt>
<pdfrwt beam="2">  1       -1 0.97275881E-01 0.21794412E+04</pdfrwt>
<totfact> 0.82618466E+00</totfact>
</mgrwt>
</event>
<event>
11    6  0.1663299E-008  0.2289741E+04  0.7818608E-02  0.8481977E-01
          2   -1    0    0  501    0  0.00000000000E+00  0.00000000000E+00  0.16566167258E+04  0.16566167258E+04  0.00000000000E+00 0. -1.
         -1   -1    0    0    0  501 -0.00000000000E+00 -0.00000000000E+00 -0.79120806223E+03  0.79120806223E+03  0.00000000000E+00 0.  1.
         24    2    1    2    0    0  0.42329055700E+03 -0.28645235852E+02 -0.55982231839E+03  0.70709916834E+03  0.81195815934E+02 0.  0.
        254    2    1    2    0    0 -0.42329055700E+03  0.28645235852E+02  0.14252309819E+04  0.17407256197E+04  0.90490158908E+03 0.  0.
         23    2    4    4    0    0  0.86858680481E+02 -0.29070175973E+03  0.26211254486E+03  0.41145333443E+03  0.92406259303E+02 0.  0.
          4    1    3    3  502    0  0.94886833922E+02 -0.18209427267E+02 -0.18456227830E+03  0.20832265615E+03  0.00000000000E+00 0. -1.
         -3    1    3    3    0  502  0.32840372307E+03 -0.10435808584E+02 -0.37526004009E+03  0.49877651220E+03  0.00000000000E+00 0.  1.
         11    1    4    4    0    0 -0.39637251570E+03  0.12117220695E+03  0.72370934395E+03  0.83399585698E+03  0.00000000000E+00 0. -1.
        -11    1    4    4    0    0 -0.11377672178E+03  0.19817478863E+03  0.43940909310E+03  0.49527642824E+03  0.00000000000E+00 0.  1.
          4    1    5    5  503    0  0.39886697270E+02 -0.62739387567E+02  0.11221936975E+03  0.13461191001E+03  0.00000000000E+00 0. -1.
         -4    1    5    5    0  503  0.46971983211E+02 -0.22796237216E+03  0.14989317512E+03  0.27684142442E+03  0.00000000000E+00 0.  1.
<mgrwt>
<rscale>  0 0.22897410E+04</rscale>
<asrwt>0</asrwt>
<pdfrwt beam="1">  1        2 0.25486411E+00 0.22897410E+04</pdfrwt>
<pdfrwt beam="2">  1       -1 0.12172432E+00 0.22897410E+04</pdfrwt>
<totfact> 0.64037924E+00</totfact>
</mgrwt>
</event>
<event>
11    6  0.1663299E-008  0.2142101E+04  0.7818608E-02  0.8542921E-01
          2   -1    0    0  501    0  0.00000000000E+00  0.00000000000E+00  0.52369213245E+03  0.52369213245E+03  0.00000000000E+00 0. -1.
         -1   -1    0    0    0  501 -0.00000000000E+00 -0.00000000000E+00 -0.21905031298E+04  0.21905031298E+04  0.00000000000E+00 0.  1.
         24    2    1    2    0    0 -0.32596069198E+03  0.81454241272E+03 -0.68176664488E+03  0.11141475150E+04  0.82396676821E+02 0.  0.
        254    2    1    2    0    0  0.32596069198E+03 -0.81454241272E+03 -0.98504435246E+03  0.16000477472E+04  0.90559963680E+03 0.  0.
         23    2    4    4    0    0 -0.24806270774E+03 -0.42892338350E+03 -0.22450540518E+03  0.55106002058E+03  0.88057330425E+02 0.  0.
          4    1    3    3  502    0 -0.71333225731E+02  0.25066835965E+03 -0.16940206621E+03  0.31083776422E+03  0.00000000000E+00 0. -1.
         -3    1    3    3    0  502 -0.25462746625E+03  0.56387405306E+03 -0.51236457866E+03  0.80330975081E+03  0.00000000000E+00 0.  1.
         11    1    4    4    0    0  0.47047541054E+03 -0.39260704482E+03 -0.69350147786E+03  0.92543595314E+03  0.00000000000E+00 0. -1.
        -11    1    4    4    0    0  0.10354798918E+03  0.69880156046E+01 -0.67037469419E+02  0.12355177348E+03  0.00000000000E+00 0.  1.
          4    1    5    5  503    0 -0.21639518154E+03 -0.39707837584E+03 -0.22717633361E+03  0.50607034857E+03  0.00000000000E+00 0. -1.
         -4    1    5    5    0  503 -0.31667526196E+02 -0.31845007668E+02  0.26709284326E+01  0.44989672008E+02  0.00000000000E+00 0.  1.
<mgrwt>
<rscale>  0 0.21421011E+04</rscale>
<asrwt>0</asrwt>
<pdfrwt beam="1">  1        2 0.80568021E-01 0.21421011E+04</pdfrwt>
<pdfrwt beam="2">  1       -1 0.33700048E+00 0.21421011E+04</pdfrwt>
<totfact> 0.11595646E+00</totfact>
</mgrwt>
</event>
<event>
11    6  0.1663299E-008  0.1240035E+04  0.7818608E-02  0.9078518E-01
         -1   -1    0    0    0  501 -0.00000000000E+00  0.00000000000E+00  0.31091979825E+03  0.31091979825E+03  0.00000000000E+00 0.  1.
          2   -1    0    0  501    0  0.00000000000E+00 -0.00000000000E+00 -0.12364006749E+04  0.12364006749E+04  0.00000000000E+00 0. -1.
         24    2    1    2    0    0 -0.27967180514E+01  0.11374528316E+03  0.10490922365E+03  0.17399013306E+03  0.79503522693E+02 0.  0.
        254    2    1    2    0    0  0.27967180514E+01 -0.11374528316E+03 -0.10303901003E+04  0.13733303401E+04  0.90077003346E+03 0.  0.
         23    2    4    4    0    0 -0.27220947013E+03 -0.38426052359E+03 -0.63689564988E+03  0.79736874991E+03  0.91688106564E+02 0.  0.
          2    1    3    3  502    0  0.10277720625E+02 -0.99895165461E+01  0.12259470294E+02  0.18860450524E+02  0.00000000000E+00 0. -1.
         -1    1    3    3    0  502 -0.13074438676E+02  0.12373479971E+03  0.92649753356E+02  0.15512968253E+03  0.00000000000E+00 0.  1.
         11    1    4    4    0    0  0.43759933680E+02  0.14791477135E+03 -0.10595429988E+03  0.18713638086E+03  0.00000000000E+00 0.  1.
        -11    1    4    4    0    0  0.23124625450E+03  0.12260046908E+03 -0.28754015059E+03  0.38882520937E+03  0.00000000000E+00 0. -1.
          1    1    5    5  503    0 -0.54785440158E+02 -0.91831152887E+02 -0.21328662279E+03  0.23859083921E+03  0.00000000000E+00 0. -1.
         -1    1    5    5    0  503 -0.21742402997E+03 -0.29242937071E+03 -0.42360902709E+03  0.55877791071E+03  0.00000000000E+00 0.  1.
<mgrwt>
<rscale>  0 0.12400346E+04</rscale>
<asrwt>0</asrwt>
<pdfrwt beam="1">  1        2 0.19021549E+00 0.12400346E+04</pdfrwt>
<pdfrwt beam="2">  1       -1 0.47833815E-01 0.12400346E+04</pdfrwt>
<totfact> 0.88228878E+01</totfact>
</mgrwt>
</event>
<event>
12    6  0.1663299E-008  0.1719955E+04  0.7818608E-02  0.8750064E-01
          2   -1    0    0  501    0  0.00000000000E+00  0.00000000000E+00  0.73703466890E+03  0.73703466890E+03  0.00000000000E+00 0. -1.
         -1   -1    0    0    0  501 -0.00000000000E+00 -0.00000000000E+00 -0.10034283364E+04  0.10034283364E+04  0.00000000000E+00 0.  1.
         24    2    1    2    0    0  0.24275579087E+03 -0.55768978009E+03 -0.31603676119E+03  0.69025700145E+03  0.81407793291E+02 0.  0.
        254    2    1    2    0    0 -0.24275579087E+03  0.55768978009E+03  0.49643093653E+02  0.10502060039E+04  0.85470459754E+03 0.  0.
         23    2    4    4    0    0 -0.51729960723E+03  0.54366192347E+03  0.47797053530E+02  0.76158552824E+03  0.12066808951E+03 0.  0.
         23    2    4    4    0    0  0.27454381636E+03  0.14027856620E+02  0.18460401234E+01  0.28862047565E+03  0.87904967088E+02 0.  0.
          2    1    3    3  502    0  0.38942535690E+02 -0.41075693772E+02 -0.15022153930E+02  0.58561069095E+02  0.00000000000E+00 0. -1.
         -1    1    3    3    0  502  0.20381325518E+03 -0.51661408632E+03 -0.30101460726E+03  0.63169593235E+03  0.00000000000E+00 0.  1.
         11    1    5    5    0    0 -0.84338448098E+02  0.14551089095E+03 -0.20513068907E+02  0.16943193090E+03  0.00000000000E+00 0.  1.
        -11    1    5    5    0    0 -0.43296115913E+03  0.39815103252E+03  0.68310122436E+02  0.59215359734E+03  0.00000000000E+00 0. -1.
          1    1    6    6  503    0  0.23310886018E+03  0.24301971284E+02 -0.28707087526E+02  0.23612374590E+03  0.00000000000E+00 0. -1.
         -1    1    6    6    0  503  0.41434956184E+02 -0.10274114664E+02  0.30553127650E+02  0.52496729758E+02  0.00000000000E+00 0.  1.
<mgrwt>
<rscale>  0 0.17199552E+04</rscale>
<asrwt>0</asrwt>
<pdfrwt beam="1">  1        2 0.11338995E+00 0.17199552E+04</pdfrwt>
<pdfrwt beam="2">  1       -1 0.15437359E+00 0.17199552E+04</pdfrwt>
<totfact> 0.13427165E+01</totfact>
</mgrwt>
</event>
<event>
12    6  0.1663299E-008  0.1653407E+04  0.7818608E-02  0.8788394E-01
         -1   -1    0    0    0  501 -0.00000000000E+00  0.00000000000E+00  0.23204612857E+03  0.23204612857E+03  0.00000000000E+00 0.  1.
          2   -1    0    0  501    0  0.00000000000E+00 -0.00000000000E+00 -0.29452703428E+04  0.29452703428E+04  0.00000000000E+00 0. -1.
         24    2    1    2    0    0 -0.37252565926E+03  0.18227709947E+03 -0.17552558282E+03  0.45736512952E+03  0.79833098887E+02 0.  0.
        254    2    1    2    0    0  0.37252565926E+03 -0.18227709947E+03 -0.25376986314E+04  0.27199513419E+04  0.88669084263E+03 0.  0.
         23    2    4    4    0    0  0.16945551774E+03  0.35361292376E+03 -0.10258619686E+04  0.11008651626E+04  0.75855489267E+02 0.  0.
         23    2    4    4    0    0  0.20307014151E+03 -0.53589002322E+03 -0.15118366628E+04  0.16190861793E+04  0.85874102565E+02 0.  0.
          4    1    3    3  502    0 -0.47911991931E+02 -0.33298629966E+01 -0.26311267507E+02  0.54762484934E+02  0.00000000000E+00 0. -1.
         -3    1    3    3    0  502 -0.32461366732E+03  0.18560696246E+03 -0.14921431532E+03  0.40260264458E+03  0.00000000000E+00 0.  1.
         11    1    5    5    0    0  0.43456591251E+02  0.11589615437E+03 -0.23682405028E+03  0.26721905754E+03  0.00000000000E+00 0. -1.
        -11    1    5    5    0    0  0.12599892649E+03  0.23771676938E+03 -0.78903791835E+03  0.83364610508E+03  0.00000000000E+00 0.  1.
          3    1    6    6  503    0  0.26407380684E+02 -0.17492843277E+02 -0.90617302093E+02  0.95993982932E+02  0.00000000000E+00 0. -1.
         -3    1    6    6    0  503  0.17666276083E+03 -0.51839717995E+03 -0.14212193607E+04  0.15230921963E+04  0.00000000000E+00 0.  1.
<mgrwt>
<rscale>  0 0.16534069E+04</rscale>
<asrwt>0</asrwt>
<pdfrwt beam="1">  1        2 0.45311851E+00 0.16534069E+04</pdfrwt>
<pdfrwt beam="2">  1       -1 0.35699405E-01 0.16534069E+04</pdfrwt>
<totfact> 0.15413773E+01</totfact>
</mgrwt>
</event>
<event>
12    6  0.1663299E-008  0.2786585E+04  0.7818608E-02  0.8307445E-01
         -1   -1    0    0    0  501 -0.00000000000E+00  0.00000000000E+00  0.16089065469E+04  0.16089065469E+04  0.00000000000E+00 0.  1.
          2   -1    0    0  501    0  0.00000000000E+00 -0.00000000000E+00 -0.12065735437E+04  0.12065735437E+04  0.00000000000E+00 0. -1.
         24    2    1    2    0    0 -0.11741339895E+04  0.38776036366E+03  0.16904663380E+02  0.12392461201E+04  0.80600580639E+02 0.  0.
        254    2    1    2    0    0  0.11741339895E+04 -0.38776036366E+03  0.38542833975E+03  0.15762339705E+04  0.89833724178E+03 0.  0.
         23    2    4    4    0    0  0.68213670377E+03 -0.66046482460E+03  0.19511536418E+03  0.97556113770E+03  0.11011476232E+03 0.  0.
         23    2    4    4    0    0  0.49199728569E+03  0.27270446094E+03  0.19031297557E+03  0.60067283284E+03  0.90331452418E+02 0.  0.
          2    1    3    3  502    0 -0.11036642236E+04  0.37726987059E+03  0.15596384176E+01  0.11663660258E+04  0.00000000000E+00 0. -1.
         -1    1    3    3    0  502 -0.70469765840E+02  0.10490493071E+02  0.15345024962E+02  0.72880094220E+02  0.00000000000E+00 0.  1.
         11    1    5    5    0    0  0.19818068866E+03 -0.26196444920E+03  0.52778221047E+02  0.33269580494E+03  0.00000000000E+00 0.  1.
        -11    1    5    5    0    0  0.48395601510E+03 -0.39850037540E+03  0.14233714313E+03  0.64286533276E+03  0.00000000000E+00 0. -1.
          1    1    6    6  503    0  0.40966271098E+03  0.23030131731E+03  0.19293936870E+03  0.50802345765E+03  0.00000000000E+00 0. -1.
         -1    1    6    6    0  503  0.82334574712E+02  0.42403143633E+02 -0.26263931366E+01  0.92649375194E+02  0.00000000000E+00 0.  1.
<mgrwt>
<rscale>  0 0.27865851E+04</rscale>
<asrwt>0</asrwt>
<pdfrwt beam="1">  1        2 0.18562670E+00 0.27865851E+04</pdfrwt>
<pdfrwt beam="2">  1       -1 0.24752408E+00 0.27865851E+04</pdfrwt>
<totfact> 0.13482076E+00</totfact>
</mgrwt>
</event>
<event>
12    6  0.1663299E-008  0.1266288E+04  0.7818608E-02  0.9056734E-01
          2   -1    0    0  501    0  0.00000000000E+00  0.00000000000E+00  0.21209320436E+04  0.21209320436E+04  0.00000000000E+00 0. -1.
         -1   -1    0    0    0  501 -0.00000000000E+00 -0.00000000000E+00 -0.18900725527E+03  0.18900725527E+03  0.00000000000E+00 0.  1.
         24    2    1    2    0    0 -0.27642446399E+03  0.99585594979E+02  0.30647339326E+03  0.43211719087E+03  0.80445949879E+02 0.  0.
        254    2    1    2    0    0  0.27642446399E+03 -0.99585594979E+02  0.16254513950E+04  0.18778221080E+04  0.89319418747E+03 0.  0.
         23    2    4    4    0    0 -0.25123632501E+03  0.14803774784E+03  0.28385077639E+03  0.41221995804E+03  0.65720352717E+02 0.  0.
         23    2    4    4    0    0  0.52766078900E+03 -0.24762334282E+03  0.13416006186E+04  0.14656021499E+04  0.91401388203E+02 0.  0.
          2    1    3    3  502    0 -0.16577203618E+03  0.38150189757E+02  0.12599879964E+03  0.21168727517E+03  0.00000000000E+00 0. -1.
         -1    1    3    3    0  502 -0.11065242781E+03  0.61435405222E+02  0.18047459362E+03  0.22042991570E+03  0.00000000000E+00 0.  1.
         11    1    5    5    0    0 -0.23383972414E+03  0.15385723047E+03  0.27247429065E+03  0.39063448775E+03  0.00000000000E+00 0.  1.
        -11    1    5    5    0    0 -0.17396600868E+02 -0.58194826333E+01  0.11376485740E+02  0.21585470291E+02  0.00000000000E+00 0. -1.
          3    1    6    6  503    0  0.18771350329E+03 -0.65833919850E+02  0.55599818459E+03  0.59051201985E+03  0.00000000000E+00 0. -1.
         -3    1    6    6    0  503  0.33994728571E+03 -0.18178942297E+03  0.78560243405E+03  0.87509013007E+03  0.00000000000E+00 0.  1.
<mgrwt>
<rscale>  0 0.12662883E+04</rscale>
<asrwt>0</asrwt>
<pdfrwt beam="1">  1        2 0.32629722E+00 0.12662883E+04</pdfrwt>
<pdfrwt beam="2">  1       -1 0.29078041E-01 0.12662883E+04</pdfrwt>
<totfact> 0.69107540E+01</totfact>
</mgrwt>
</event>
<event>
11    6  0.1663299E-008  0.1963662E+04  0.7818608E-02  0.8623801E-01
         -1   -1    0    0    0  501 -0.00000000000E+00  0.00000000000E+00  0.21957168987E+03  0.21957168987E+03  0.00000000000E+00 0.  1.
          2   -1    0    0  501    0  0.00000000000E+00 -0.00000000000E+00 -0.43903278076E+04  0.43903278076E+04  0.00000000000E+00 0. -1.
         24    2    1    2    0    0  0.51920785250E+03  0.25187600541E+03 -0.43122085729E+03  0.72476494692E+03  0.79463729638E+02 0.  0.
        254    2    1    2    0    0 -0.51920785250E+03 -0.25187600541E+03 -0.37395352605E+04  0.38851345506E+04  0.88154874826E+03 0.  0.
         23    2    4    4    0    0 -0.58539121290E+03  0.92714428133E+01 -0.30495650901E+04  0.31067491208E+04  0.96301758838E+02 0.  0.
          2    1    3    3  502    0  0.49157374858E+03  0.23466994572E+03 -0.42660536680E+03  0.69188645940E+03  0.00000000000E+00 0. -1.
         -1    1    3    3    0  502  0.27634103917E+02  0.17206059686E+02 -0.46154904908E+01  0.32878487521E+02  0.00000000000E+00 0.  1.
         11    1    4    4    0    0 -0.62095631400E+02 -0.18320080985E+03 -0.26804349298E+03  0.33055365419E+03  0.00000000000E+00 0.  1.
        -11    1    4    4    0    0  0.12827899180E+03 -0.77946638371E+02 -0.42192667739E+03  0.44783177563E+03  0.00000000000E+00 0. -1.
          1    1    5    5  503    0 -0.54811060482E+03 -0.14744762396E+02 -0.27792814549E+04  0.28328515755E+04  0.00000000000E+00 0. -1.
         -1    1    5    5    0  503 -0.37280608082E+02  0.24016205210E+02 -0.27028363520E+03  0.27389754528E+03  0.00000000000E+00 0.  1.
<mgrwt>
<rscale>  0 0.19636616E+04</rscale>
<asrwt>0</asrwt>
<pdfrwt beam="1">  1        2 0.67543502E+00 0.19636616E+04</pdfrwt>
<pdfrwt beam="2">  1       -1 0.33780261E-01 0.19636616E+04</pdfrwt>
<totfact> 0.13966113E+00</totfact>
</mgrwt>
</event>
<event>
12    6  0.1663299E-008  0.1640814E+04  0.7818608E-02  0.8795859E-01
          2   -1    0    0  501    0  0.00000000000E+00  0.00000000000E+00  0.64933940814E+03  0.64933940814E+03  0.00000000000E+00 0. -1.
         -1   -1    0    0    0  501 -0.00000000000E+00 -0.00000000000E+00 -0.10365421730E+04  0.10365421730E+04  0.00000000000E+00 0.  1.
         24    2    1    2    0    0  0.10038135174E+03  0.16945793097E+03  0.41730872124E+03  0.46828036209E+03  0.79671340834E+02 0.  0.
        254    2    1    2    0    0 -0.10038135174E+03 -0.16945793097E+03 -0.80451148613E+03  0.12176012191E+04  0.89248058310E+03 0.  0.
         23    2    4    4    0    0 -0.46022058206E+03 -0.24739020053E+03 -0.44885032047E+03  0.69786678716E+03  0.11201136985E+03 0.  0.
         23    2    4    4    0    0  0.35983923032E+03  0.77932269559E+02 -0.35566116566E+03  0.51973443190E+03  0.89840439837E+02 0.  0.
          4    1    3    3  502    0  0.81866924067E+02  0.13313996225E+03  0.38733977798E+03  0.41768474524E+03  0.00000000000E+00 0. -1.
         -3    1    3    3    0  502  0.18514427674E+02  0.36317968720E+02  0.29968943264E+02  0.50595616849E+02  0.00000000000E+00 0.  1.
         11    1    5    5    0    0 -0.85422345891E+02 -0.69289386950E+02 -0.45045874252E+02  0.11885759172E+03  0.00000000000E+00 0. -1.
        -11    1    5    5    0    0 -0.37479823617E+03 -0.17810081358E+03 -0.40380444621E+03  0.57900919545E+03  0.00000000000E+00 0.  1.
          1    1    6    6  503    0  0.11712328301E+03  0.36753044536E+02 -0.65254353071E+02  0.13902079090E+03  0.00000000000E+00 0. -1.
         -1    1    6    6    0  503  0.24271594730E+03  0.41179225024E+02 -0.29040681259E+03  0.38071364100E+03  0.00000000000E+00 0.  1.
<mgrwt>
<rscale>  0 0.16408140E+04</rscale>
<asrwt>0</asrwt>
<pdfrwt beam="1">  1        2 0.99898372E-01 0.16408140E+04</pdfrwt>
<pdfrwt beam="2">  1       -1 0.15946802E+00 0.16408140E+04</pdfrwt>
<totfact> 0.14500076E+01</totfact>
</mgrwt>
</event>
<event>
12    6  0.1663299E-008  0.2665177E+04  0.7818608E-02  0.8346393E-01
          2   -1    0    0  501    0  0.00000000000E+00  0.00000000000E+00  0.21307053600E+04  0.21307053600E+04  0.00000000000E+00 0. -1.
         -1   -1    0    0    0  501 -0.00000000000E+00 -0.00000000000E+00 -0.83342951697E+03  0.83342951697E+03  0.00000000000E+00 0.  1.
         24    2    1    2    0    0  0.86662433896E+03 -0.23285492709E+03  0.14254096443E+04  0.16863400721E+04  0.81798672547E+02 0.  0.
        254    2    1    2    0    0 -0.86662433896E+03  0.23285492709E+03 -0.12813380126E+03  0.12777948049E+04  0.90060098290E+03 0.  0.
         23    2    4    4    0    0  0.14823517077E+03 -0.22725154839E+02 -0.12133220268E+03  0.22754844620E+03  0.12069255753E+03 0.  0.
         23    2    4    4    0    0 -0.10148595097E+04  0.25558008193E+03 -0.68015985783E+01  0.10502463587E+04  0.87807456501E+02 0.  0.
          2    1    3    3  502    0  0.35396465186E+03 -0.74349037850E+02  0.63982191898E+03  0.73497676304E+03  0.00000000000E+00 0. -1.
         -1    1    3    3    0  502  0.51265968709E+03 -0.15850588924E+03  0.78558772533E+03  0.95136330909E+03  0.00000000000E+00 0.  1.
         11    1    5    5    0    0  0.16244278084E+03 -0.26321740494E+02 -0.13070401490E+03  0.21015239847E+03  0.00000000000E+00 0. -1.
        -11    1    5    5    0    0 -0.14207610073E+02  0.35965856546E+01  0.93718122188E+01  0.17396047730E+02  0.00000000000E+00 0.  1.
          1    1    6    6  503    0 -0.92518756931E+03  0.25551564365E+03  0.47395481969E+01  0.95983474925E+03  0.00000000000E+00 0. -1.
         -1    1    6    6    0  503 -0.89671940414E+02  0.64438276737E-01 -0.11541146775E+02  0.90411609425E+02  0.00000000000E+00 0.  1.
<mgrwt>
<rscale>  0 0.26651775E+04</rscale>
<asrwt>0</asrwt>
<pdfrwt beam="1">  1        2 0.32780082E+00 0.26651775E+04</pdfrwt>
<pdfrwt beam="2">  1       -1 0.12821993E+00 0.26651775E+04</pdfrwt>
<totfact> 0.29677094E+00</totfact>
</mgrwt>
</event>
<event>
12    6  0.1663299E-008  0.1778761E+04  0.7818608E-02  0.8717676E-01
          2   -1    0    0  501    0  0.00000000000E+00  0.00000000000E+00  0.67324278431E+03  0.67324278431E+03  0.00000000000E+00 0. -1.
         -1   -1    0    0    0  501 -0.00000000000E+00 -0.00000000000E+00 -0.11749076781E+04  0.11749076781E+04  0.00000000000E+00 0.  1.
         24    2    1    2    0    0 -0.38320928885E+03 -0.47051570296E+03  0.10526066897E+03  0.62083897375E+03  0.78274115083E+02 0.  0.
        254    2    1    2    0    0  0.38320928885E+03  0.47051570296E+03 -0.60692556280E+03  0.12273114887E+04  0.87732574664E+03 0.  0.
         23    2    4    4    0    0  0.43445382526E+02  0.13082618269E+02 -0.63701350064E+03  0.64939229827E+03  0.11775186155E+03 0.  0.
         23    2    4    4    0    0  0.33976390633E+03  0.45743308470E+03  0.30087937839E+02  0.57791919043E+03  0.91655701674E+02 0.  0.
          4    1    3    3  502    0 -0.38626409969E+03 -0.46008751824E+03  0.10098726375E+03  0.60916246321E+03  0.00000000000E+00 0. -1.
         -3    1    3    3    0  502  0.30548108425E+01 -0.10428184729E+02  0.42734052253E+01  0.11676510533E+02  0.00000000000E+00 0.  1.
         11    1    5    5    0    0 -0.64658597627E+01  0.48392255791E+02 -0.44995536044E+03  0.45259633687E+03  0.00000000000E+00 0. -1.
        -11    1    5    5    0    0  0.49911242289E+02 -0.35309637521E+02 -0.18705814020E+03  0.19679596140E+03  0.00000000000E+00 0.  1.
          1    1    6    6  503    0  0.30772310869E+03  0.44839448797E+03  0.27409641994E+02  0.54452035494E+03  0.00000000000E+00 0. -1.
         -1    1    6    6    0  503  0.32040797632E+02  0.90385967229E+01  0.26782958452E+01  0.33398835492E+02  0.00000000000E+00 0.  1.
<mgrwt>
<rscale>  0 0.17787615E+04</rscale>
<asrwt>0</asrwt>
<pdfrwt beam="1">  1        2 0.10357581E+00 0.17787615E+04</pdfrwt>
<pdfrwt beam="2">  1       -1 0.18075503E+00 0.17787615E+04</pdfrwt>
<totfact> 0.95511749E+00</totfact>
</mgrwt>
</event>
<event>
12    6  0.1663299E-008  0.1592253E+04  0.7818608E-02  0.8825321E-01
         -1   -1    0    0    0  501 -0.00000000000E+00  0.00000000000E+00  0.28161000114E+03  0.28161000114E+03  0.00000000000E+00 0.  1.
          2   -1    0    0  501    0  0.00000000000E+00 -0.00000000000E+00 -0.22506932584E+04  0.22506932584E+04  0.00000000000E+00 0. -1.
         24    2    1    2    0    0 -0.31607231918E+02  0.49690798768E+02  0.17173567379E+03  0.19955169468E+03  0.82822367788E+02 0.  0.
        254    2    1    2    0    0  0.31607231918E+02 -0.49690798768E+02 -0.21408189311E+04  0.23327515649E+04  0.92474643836E+03 0.  0.
         23    2    4    4    0    0 -0.15709550899E+02 -0.35325781124E+03 -0.18872236659E+04  0.19241525531E+04  0.12534756166E+03 0.  0.
         23    2    4    4    0    0  0.47316782817E+02  0.30356701248E+03 -0.25359526520E+03  0.40859901183E+03  0.90833831459E+02 0.  0.
          2    1    3    3  502    0 -0.19772975636E+02  0.60759294844E+02  0.63404980673E+02  0.90015854435E+02  0.00000000000E+00 0. -1.
         -3    1    3    3    0  502 -0.11834256282E+02 -0.11068496076E+02  0.10833069312E+03  0.10953584025E+03  0.00000000000E+00 0.  1.
         11    1    5    5    0    0  0.45766130059E+02 -0.62130722164E+02 -0.42820526120E+03  0.43510287406E+03  0.00000000000E+00 0.  1.
        -11    1    5    5    0    0 -0.61475680958E+02 -0.29112708908E+03 -0.14590184047E+04  0.14890496790E+04  0.00000000000E+00 0. -1.
          3    1    6    6  503    0  0.64786979118E+01  0.90002381993E+01 -0.42464962618E+02  0.43889074545E+02  0.00000000000E+00 0. -1.
         -3    1    6    6    0  503  0.40838084905E+02  0.29456677428E+03 -0.21113030258E+03  0.36470993729E+03  0.00000000000E+00 0.  1.
<mgrwt>
<rscale>  0 0.15922534E+04</rscale>
<asrwt>0</asrwt>
<pdfrwt beam="1">  1        2 0.34626050E+00 0.15922534E+04</pdfrwt>
<pdfrwt beam="2">  1       -1 0.43324616E-01 0.15922534E+04</pdfrwt>
<totfact> 0.27798096E+01</totfact>
</mgrwt>
</event>
<event>
12    6  0.1663299E-008  0.1874589E+04  0.7818608E-02  0.8667610E-01
         -3   -1    0    0    0  501 -0.00000000000E+00  0.00000000000E+00  0.42910998577E+03  0.42910998577E+03  0.00000000000E+00 0.  1.
          4   -1    0    0  501    0  0.00000000000E+00 -0.00000000000E+00 -0.20473087353E+04  0.20473087353E+04  0.00000000000E+00 0. -1.
         24    2    1    2    0    0  0.32380712520E+03 -0.62881308628E+03 -0.50344947973E+03  0.87202275816E+03  0.81886264440E+02 0.  0.
        254    2    1    2    0    0 -0.32380712520E+03  0.62881308628E+03 -0.11147492698E+04  0.16043959629E+04  0.91168169852E+03 0.  0.
         23    2    4    4    0    0 -0.59302121973E+03  0.28237463309E+03 -0.86017730470E+03  0.10887701842E+04  0.11876833806E+03 0.  0.
         23    2    4    4    0    0  0.26921409453E+03  0.34643845319E+03 -0.25457196507E+03  0.51562577862E+03  0.92559319573E+02 0.  0.
          2    1    3    3  502    0  0.22603843896E+02 -0.14431790362E+02 -0.10953650901E+02  0.28968824622E+02  0.00000000000E+00 0. -1.
         -1    1    3    3    0  502  0.30120328130E+03 -0.61438129592E+03 -0.49249582883E+03  0.84305393354E+03  0.00000000000E+00 0.  1.
         11    1    5    5    0    0 -0.28357590227E+03  0.11051490799E+03 -0.30895865752E+03  0.43368685626E+03  0.00000000000E+00 0. -1.
        -11    1    5    5    0    0 -0.30944531746E+03  0.17185972511E+03 -0.55121864719E+03  0.65508332799E+03  0.00000000000E+00 0.  1.
          3    1    6    6  503    0  0.56823188051E+02  0.10983780386E+03 -0.32692162077E+02  0.12791401534E+03  0.00000000000E+00 0. -1.
         -3    1    6    6    0  503  0.21239090648E+03  0.23660064932E+03 -0.22187980299E+03  0.38771176328E+03  0.00000000000E+00 0.  1.
<mgrwt>
<rscale>  0 0.18745886E+04</rscale>
<asrwt>0</asrwt>
<pdfrwt beam="1">  1        4 0.31497058E+00 0.18745886E+04</pdfrwt>
<pdfrwt beam="2">  1       -3 0.66016920E-01 0.18745886E+04</pdfrwt>
<totfact> 0.11835390E-01</totfact>
</mgrwt>
</event>
<event>
12    6  0.1663299E-008  0.1509446E+04  0.7818608E-02  0.8878196E-01
          2   -1    0    0  501    0  0.00000000000E+00  0.00000000000E+00  0.16742709172E+04  0.16742709172E+04  0.00000000000E+00 0. -1.
         -1   -1    0    0    0  501 -0.00000000000E+00 -0.00000000000E+00 -0.34021165100E+03  0.34021165100E+03  0.00000000000E+00 0.  1.
         24    2    1    2    0    0  0.34636244232E+03 -0.12740476733E+03  0.84307828230E+03  0.92413082569E+03  0.83892053955E+02 0.  0.
        254    2    1    2    0    0 -0.34636244232E+03  0.12740476733E+03  0.49098098394E+03  0.10903517426E+04  0.90089160265E+03 0.  0.
         23    2    4    4    0    0 -0.53364804311E+03 -0.20360707751E+03  0.32195670304E+03  0.66392059772E+03  0.10439523702E+03 0.  0.
         23    2    4    4    0    0  0.18728560079E+03  0.33101184484E+03  0.16902428091E+03  0.42643114485E+03  0.92895511565E+02 0.  0.
          4    1    3    3  502    0  0.29397176442E+03 -0.13733901244E+03  0.74219916568E+03  0.81002531081E+03  0.00000000000E+00 0. -1.
         -3    1    3    3    0  502  0.52390677899E+02  0.99342451044E+01  0.10087911662E+03  0.11410551488E+03  0.00000000000E+00 0.  1.
         11    1    5    5    0    0 -0.46558176589E+03 -0.18045856545E+03  0.23728539655E+03  0.55284358908E+03  0.00000000000E+00 0.  1.
        -11    1    5    5    0    0 -0.68066277226E+02 -0.23148512064E+02  0.84671306486E+02  0.11107700864E+03  0.00000000000E+00 0. -1.
          1    1    6    6  503    0  0.59877265894E+02  0.19667918232E+03  0.10224138554E+03  0.22961116838E+03  0.00000000000E+00 0. -1.
         -1    1    6    6    0  503  0.12740833490E+03  0.13433266252E+03  0.66782895370E+02  0.19681997647E+03  0.00000000000E+00 0.  1.
<mgrwt>
<rscale>  0 0.15094456E+04</rscale>
<asrwt>0</asrwt>
<pdfrwt beam="1">  1        2 0.25758014E+00 0.15094456E+04</pdfrwt>
<pdfrwt beam="2">  1       -1 0.52340255E-01 0.15094456E+04</pdfrwt>
<totfact> 0.40995568E+01</totfact>
</mgrwt>
</event>
<event>
12    6  0.1663299E-008  0.2413536E+04  0.7818608E-02  0.8434453E-01
          2   -1    0    0  501    0  0.00000000000E+00  0.00000000000E+00  0.10507832366E+04  0.10507832366E+04  0.00000000000E+00 0. -1.
         -1   -1    0    0    0  501 -0.00000000000E+00 -0.00000000000E+00 -0.13859076280E+04  0.13859076280E+04  0.00000000000E+00 0.  1.
         24    2    1    2    0    0  0.72486843705E+03  0.43158939106E+03 -0.75357788331E+03  0.11340082997E+04  0.79947132855E+02 0.  0.
        254    2    1    2    0    0 -0.72486843705E+03 -0.43158939106E+03  0.41845349192E+03  0.13026825650E+04  0.90009715404E+03 0.  0.
         23    2    4    4    0    0 -0.67574192084E+03 -0.94008303075E+01  0.51562598920E+03  0.85714474788E+03  0.11005198268E+03 0.  0.
         23    2    4    4    0    0 -0.49126516209E+02 -0.42218856075E+03 -0.97172497279E+02  0.44553781710E+03  0.91678006195E+02 0.  0.
          4    1    3    3  502    0  0.53687920370E+02  0.97749804584E+01 -0.53125033708E+02  0.76159124490E+02  0.00000000000E+00 0. -1.
         -3    1    3    3    0  502  0.67118051668E+03  0.42181441060E+03 -0.70045284961E+03  0.10578491752E+04  0.00000000000E+00 0.  1.
         11    1    5    5    0    0 -0.13109606618E+02  0.99475356085E+01 -0.13018598919E+01  0.16507879619E+02  0.00000000000E+00 0. -1.
        -11    1    5    5    0    0 -0.66263231422E+03 -0.19348365916E+02  0.51692784909E+03  0.84063686826E+03  0.00000000000E+00 0.  1.
          1    1    6    6  503    0  0.17114404901E+02 -0.14579565419E+03 -0.61228864434E+02  0.15905423439E+03  0.00000000000E+00 0. -1.
         -1    1    6    6    0  503 -0.66240921110E+02 -0.27639290656E+03 -0.35943632846E+02  0.28648358272E+03  0.00000000000E+00 0.  1.
<mgrwt>
<rscale>  0 0.24135356E+04</rscale>
<asrwt>0</asrwt>
<pdfrwt beam="1">  1        2 0.16165896E+00 0.24135356E+04</pdfrwt>
<pdfrwt beam="2">  1       -1 0.21321656E+00 0.24135356E+04</pdfrwt>
<totfact> 0.29274001E+00</totfact>
</mgrwt>
</event>
<event>
11    6  0.1663299E-008  0.1630350E+04  0.7818608E-02  0.8802117E-01
          2   -1    0    0  501    0  0.00000000000E+00  0.00000000000E+00  0.27674318004E+04  0.27674318004E+04  0.00000000000E+00 0. -1.
         -1   -1    0    0    0  501 -0.00000000000E+00 -0.00000000000E+00 -0.24011816753E+03  0.24011816753E+03  0.00000000000E+00 0.  1.
         24    2    1    2    0    0  0.16298901858E+03  0.46463419298E+03  0.37983157795E+03  0.62687422790E+03  0.79050088826E+02 0.  0.
        254    2    1    2    0    0 -0.16298901858E+03 -0.46463419298E+03  0.21474820549E+04  0.23806757400E+04  0.90193539097E+03 0.  0.
         23    2    4    4    0    0  0.31860538199E+03 -0.20363587605E+02  0.98764000746E+03  0.10419535743E+04  0.91161404079E+02 0.  0.
          2    1    3    3  502    0  0.55963601452E+02  0.77939281494E+02  0.93314323649E+02  0.13384326388E+03  0.00000000000E+00 0. -1.
         -1    1    3    3    0  502  0.10702541713E+03  0.38669491148E+03  0.28651725430E+03  0.49303096403E+03  0.00000000000E+00 0.  1.
         11    1    4    4    0    0 -0.38103651181E+01 -0.28705466113E+02  0.10013655855E+03  0.10423940246E+03  0.00000000000E+00 0. -1.
        -11    1    4    4    0    0 -0.47778403545E+03 -0.41556513926E+03  0.10597054889E+04  0.12344827633E+04  0.00000000000E+00 0.  1.
          1    1    5    5  503    0  0.16484422500E+03 -0.11277010962E+02  0.65278237496E+03  0.67336885773E+03  0.00000000000E+00 0. -1.
         -1    1    5    5    0  503  0.15376115699E+03 -0.90865766430E+01  0.33485763250E+03  0.36858471660E+03  0.00000000000E+00 0.  1.
<mgrwt>
<rscale>  0 0.16303505E+04</rscale>
<asrwt>0</asrwt>
<pdfrwt beam="1">  1        2 0.42575872E+00 0.16303505E+04</pdfrwt>
<pdfrwt beam="2">  1       -1 0.36941259E-01 0.16303505E+04</pdfrwt>
<totfact> 0.18626120E+01</totfact>
</mgrwt>
</event>
<event>
11    6  0.1663299E-008  0.1586928E+04  0.7818608E-02  0.8828619E-01
         -1   -1    0    0    0  501 -0.00000000000E+00  0.00000000000E+00  0.40080807454E+03  0.40080807454E+03  0.00000000000E+00 0.  1.
          2   -1    0    0  501    0  0.00000000000E+00 -0.00000000000E+00 -0.15707896717E+04  0.15707896717E+04  0.00000000000E+00 0. -1.
         24    2    1    2    0    0  0.63802789632E+02 -0.39129027084E+03  0.46946290252E+02  0.40723575351E+03  0.80362508321E+02 0.  0.
        254    2    1    2    0    0 -0.63802789632E+02  0.39129027084E+03 -0.12169278874E+04  0.15643619927E+04  0.89951992145E+03 0.  0.
         23    2    4    4    0    0  0.19774641002E+03  0.85849247386E+02 -0.10322888170E+04  0.10582600632E+04  0.88433159382E+02 0.  0.
          4    1    3    3  502    0  0.30591740932E+02 -0.21614390744E+03 -0.14235671465E+02  0.21876173724E+03  0.00000000000E+00 0. -1.
         -3    1    3    3    0  502  0.33211048700E+02 -0.17514636340E+03  0.61181961717E+02  0.18847401627E+03  0.00000000000E+00 0.  1.
         11    1    4    4    0    0  0.37842375534E+02  0.98685826265E+02 -0.59793681536E+02  0.12143402342E+03  0.00000000000E+00 0.  1.
        -11    1    4    4    0    0 -0.29939157519E+03  0.20675519719E+03 -0.12484538884E+03  0.38466790609E+03  0.00000000000E+00 0. -1.
          4    1    5    5  503    0  0.13304166140E+03  0.10024890187E+03 -0.72160333813E+03  0.74058173323E+03  0.00000000000E+00 0. -1.
         -4    1    5    5    0  503  0.64704748618E+02 -0.14399654479E+02 -0.31068547887E+03  0.31767832995E+03  0.00000000000E+00 0.  1.
<mgrwt>
<rscale>  0 0.15869281E+04</rscale>
<asrwt>0</asrwt>
<pdfrwt beam="1">  1        2 0.24165995E+00 0.15869281E+04</pdfrwt>
<pdfrwt beam="2">  1       -1 0.61662780E-01 0.15869281E+04</pdfrwt>
<totfact> 0.33783220E+01</totfact>
</mgrwt>
</event>
<event>
11    6  0.1663299E-008  0.3129842E+04  0.7818608E-02  0.8207596E-01
         -1   -1    0    0    0  501 -0.00000000000E+00  0.00000000000E+00  0.15362095787E+04  0.15362095787E+04  0.00000000000E+00 0.  1.
          2   -1    0    0  501    0  0.00000000000E+00 -0.00000000000E+00 -0.15941685434E+04  0.15941685434E+04  0.00000000000E+00 0. -1.
         24    2    1    2    0    0  0.87168819034E+03 -0.10880431478E+04 -0.36245464249E+03  0.14427215540E+04  0.79962002388E+02 0.  0.
        254    2    1    2    0    0 -0.87168819034E+03  0.10880431478E+04  0.30449567778E+03  0.16876565681E+04  0.90099327481E+03 0.  0.
         23    2    4    4    0    0 -0.75772434647E+03  0.89865781883E+03  0.59397082602E+03  0.13202185583E+04  0.91889275524E+02 0.  0.
          2    1    3    3  502    0  0.60966134950E+03 -0.71675634398E+03 -0.27044802712E+03  0.97906524455E+03  0.00000000000E+00 0. -1.
         -1    1    3    3    0  502  0.26202684084E+03 -0.37128680382E+03 -0.92006615375E+02  0.46365630944E+03  0.00000000000E+00 0.  1.
         11    1    4    4    0    0 -0.47670394089E+02  0.92707028289E+02 -0.98893081673E+02  0.14369029602E+03  0.00000000000E+00 0.  1.
        -11    1    4    4    0    0 -0.66293449785E+02  0.96678300678E+02 -0.19058206656E+03  0.22374771373E+03  0.00000000000E+00 0. -1.
          1    1    5    5  503    0 -0.58747279993E+03  0.67803833098E+03  0.41067607353E+03  0.98666869126E+03  0.00000000000E+00 0. -1.
         -1    1    5    5    0  503 -0.17025154653E+03  0.22061948785E+03  0.18329475249E+03  0.33354986705E+03  0.00000000000E+00 0.  1.
<mgrwt>
<rscale>  0 0.31298415E+04</rscale>
<asrwt>0</asrwt>
<pdfrwt beam="1">  1        2 0.24525670E+00 0.31298415E+04</pdfrwt>
<pdfrwt beam="2">  1       -1 0.23633994E+00 0.31298415E+04</pdfrwt>
<totfact> 0.92841733E-01</totfact>
</mgrwt>
</event>
<event>
11    6  0.1663299E-008  0.1284000E+04  0.7818608E-02  0.9042351E-01
         -1   -1    0    0    0  501 -0.00000000000E+00  0.00000000000E+00  0.11736596068E+04  0.11736596068E+04  0.00000000000E+00 0.  1.
          2   -1    0    0  501    0  0.00000000000E+00 -0.00000000000E+00 -0.35117836628E+03  0.35117836628E+03  0.00000000000E+00 0. -1.
         24    2    1    2    0    0  0.58353976344E+02  0.58094242673E+02 -0.15386140597E+03  0.19270456345E+03  0.81740986891E+02 0.  0.
        254    2    1    2    0    0 -0.58353976344E+02 -0.58094242673E+02  0.97634264646E+03  0.13321334096E+04  0.90252663677E+03 0.  0.
         23    2    4    4    0    0  0.87908092025E+02 -0.10277282892E+03 -0.80801126439E+02  0.18226996788E+03  0.91670235900E+02 0.  0.
          4    1    3    3  502    0  0.17989909756E+02  0.63459217911E+02 -0.12929750853E+03  0.14515011162E+03  0.00000000000E+00 0. -1.
         -3    1    3    3    0  502  0.40364066588E+02 -0.53649752374E+01 -0.24563897438E+02  0.47554451823E+02  0.00000000000E+00 0.  1.
         11    1    4    4    0    0  0.48727488127E+02 -0.67933916443E+01 -0.20655744041E+02  0.53358954554E+02  0.00000000000E+00 0. -1.
        -11    1    4    4    0    0 -0.19498955650E+03  0.51471977887E+02  0.10777995169E+04  0.10965044872E+04  0.00000000000E+00 0.  1.
          1    1    5    5  503    0 -0.19158424000E+02 -0.96042565387E+01 -0.11625337781E+02  0.24381046580E+02  0.00000000000E+00 0. -1.
         -1    1    5    5    0  503  0.10706651602E+03 -0.93168572377E+02 -0.69175788658E+02  0.15788892130E+03  0.00000000000E+00 0.  1.
<mgrwt>
<rscale>  0 0.12839998E+04</rscale>
<asrwt>0</asrwt>
<pdfrwt beam="1">  1        2 0.54027442E-01 0.12839998E+04</pdfrwt>
<pdfrwt beam="2">  1       -1 0.18056301E+00 0.12839998E+04</pdfrwt>
<totfact> 0.21324180E+01</totfact>
</mgrwt>
</event>
<event>
11    6  0.1663299E-008  0.1392123E+04  0.7818608E-02  0.8959540E-01
          2   -1    0    0  501    0  0.00000000000E+00  0.00000000000E+00  0.92274420641E+03  0.92274420641E+03  0.00000000000E+00 0. -1.
         -1   -1    0    0    0  501 -0.00000000000E+00 -0.00000000000E+00 -0.52506578029E+03  0.52506578029E+03  0.00000000000E+00 0.  1.
         24    2    1    2    0    0 -0.22597563172E+03 -0.16884508424E+03 -0.17166229190E+03  0.33965500403E+03  0.79523145687E+02 0.  0.
        254    2    1    2    0    0  0.22597563172E+03  0.16884508424E+03  0.56934071802E+03  0.11081549827E+04  0.90790140644E+03 0.  0.
         23    2    4    4    0    0  0.36905942710E+03  0.45307603117E+03  0.41226198947E+03  0.72064696496E+03  0.88822009648E+02 0.  0.
          2    1    3    3  502    0 -0.16997550222E+03 -0.82968674599E+02 -0.12700957536E+03  0.22783086830E+03  0.00000000000E+00 0. -1.
         -1    1    3    3    0  502 -0.56000129504E+02 -0.85876409640E+02 -0.44652716546E+02  0.11182413573E+03  0.00000000000E+00 0.  1.
         11    1    4    4    0    0 -0.79996543503E+01 -0.47633402472E+02 -0.30144048410E+02  0.56935043298E+02  0.00000000000E+00 0.  1.
        -11    1    4    4    0    0 -0.13508414102E+03 -0.23659754446E+03  0.18722277696E+03  0.33057297441E+03  0.00000000000E+00 0. -1.
          3    1    5    5  503    0  0.22753740906E+03  0.25969337913E+03  0.19150585070E+03  0.39482706916E+03  0.00000000000E+00 0. -1.
         -3    1    5    5    0  503  0.14152201804E+03  0.19338265204E+03  0.22075613877E+03  0.32581989581E+03  0.00000000000E+00 0.  1.
<mgrwt>
<rscale>  0 0.13921227E+04</rscale>
<asrwt>0</asrwt>
<pdfrwt beam="1">  1        2 0.14196065E+00 0.13921227E+04</pdfrwt>
<pdfrwt beam="2">  1       -1 0.80779351E-01 0.13921227E+04</pdfrwt>
<totfact> 0.48079542E+01</totfact>
</mgrwt>
</event>
<event>
12    6  0.1663299E-008  0.1392304E+04  0.7818608E-02  0.8959408E-01
         -3   -1    0    0    0  501 -0.00000000000E+00  0.00000000000E+00  0.25927809677E+03  0.25927809677E+03  0.00000000000E+00 0.  1.
          2   -1    0    0  501    0  0.00000000000E+00 -0.00000000000E+00 -0.18691422410E+04  0.18691422410E+04  0.00000000000E+00 0. -1.
         24    2    1    2    0    0  0.16035518591E+03  0.20292531744E+03 -0.97512837036E+03  0.10119979833E+04  0.79825493795E+02 0.  0.
        254    2    1    2    0    0 -0.16035518591E+03 -0.20292531744E+03 -0.63473577385E+03  0.11164223544E+04  0.88125870251E+03 0.  0.
         23    2    4    4    0    0 -0.40907588802E+03 -0.93938966587E+02 -0.73679703156E+01  0.42692803837E+03  0.77753786776E+02 0.  0.
         23    2    4    4    0    0  0.24872070211E+03 -0.10898635085E+03 -0.62736780354E+03  0.68949431605E+03  0.89844524697E+02 0.  0.
          4    1    3    3  502    0  0.13292198123E+03  0.20239433678E+03 -0.90044033643E+03  0.93242936469E+03  0.00000000000E+00 0. -1.
         -3    1    3    3    0  502  0.27433204681E+02  0.53098065878E+00 -0.74688033923E+02  0.79568618630E+02  0.00000000000E+00 0.  1.
         11    1    5    5    0    0 -0.11822294921E+03  0.81823661155E+01  0.20657093047E+01  0.11852376972E+03  0.00000000000E+00 0. -1.
        -11    1    5    5    0    0 -0.29085293881E+03 -0.10212133270E+03 -0.94336796203E+01  0.30840426865E+03  0.00000000000E+00 0.  1.
          2    1    6    6  503    0  0.51415489064E+01  0.67628491795E+01 -0.67800816734E+02  0.68330976899E+02  0.00000000000E+00 0. -1.
         -2    1    6    6    0  503  0.24357915321E+03 -0.11574920003E+03 -0.55956698680E+03  0.62116333915E+03  0.00000000000E+00 0.  1.
<mgrwt>
<rscale>  0 0.13923041E+04</rscale>
<asrwt>0</asrwt>
<pdfrwt beam="1">  1        2 0.28756035E+00 0.13923041E+04</pdfrwt>
<pdfrwt beam="2">  1       -3 0.39888937E-01 0.13923041E+04</pdfrwt>
<totfact> 0.30956601E+01</totfact>
</mgrwt>
</event>
<event>
12    6  0.1663299E-008  0.1834041E+04  0.7818608E-02  0.8688403E-01
          2   -1    0    0  501    0  0.00000000000E+00  0.00000000000E+00  0.15679722870E+04  0.15679722870E+04  0.00000000000E+00 0. -1.
         -1   -1    0    0    0  501 -0.00000000000E+00 -0.00000000000E+00 -0.53631466988E+03  0.53631466988E+03  0.00000000000E+00 0.  1.
         24    2    1    2    0    0  0.53390423828E+03  0.95870806337E+02  0.88735276403E+03  0.10431201310E+04  0.80372461877E+02 0.  0.
        254    2    1    2    0    0 -0.53390423828E+03 -0.95870806337E+02  0.14430485311E+03  0.10611668259E+04  0.90055882354E+03 0.  0.
         23    2    4    4    0    0 -0.48095997455E+03  0.73986799229E+02  0.46592019617E+03  0.68284136583E+03  0.11132905330E+03 0.  0.
         23    2    4    4    0    0 -0.52944263728E+02 -0.16985760557E+03 -0.32161534306E+03  0.37832546010E+03  0.89660602480E+02 0.  0.
          2    1    3    3  502    0  0.18097632776E+03  0.25854508682E+02  0.37324704353E+03  0.41561309211E+03  0.00000000000E+00 0. -1.
         -1    1    3    3    0  502  0.35292791051E+03  0.70016297655E+02  0.51410572050E+03  0.62750703885E+03  0.00000000000E+00 0.  1.
         11    1    5    5    0    0 -0.25617781854E+03 -0.59152275103E+01  0.19602525893E+03  0.32262666778E+03  0.00000000000E+00 0. -1.
        -11    1    5    5    0    0 -0.22478215601E+03  0.79902026740E+02  0.26989493724E+03  0.36021469804E+03  0.00000000000E+00 0.  1.
          3    1    6    6  503    0 -0.69436842013E+02 -0.83709585684E+02 -0.14635791931E+03  0.18234420832E+03  0.00000000000E+00 0. -1.
         -3    1    6    6    0  503  0.16492578284E+02 -0.86148019882E+02 -0.17525742376E+03  0.19598125178E+03  0.00000000000E+00 0.  1.
<mgrwt>
<rscale>  0 0.18340409E+04</rscale>
<asrwt>0</asrwt>
<pdfrwt beam="1">  1        2 0.24122650E+00 0.18340409E+04</pdfrwt>
<pdfrwt beam="2">  1       -1 0.82509950E-01 0.18340409E+04</pdfrwt>
<totfact> 0.18201699E+01</totfact>
</mgrwt>
</event>
<event>
11    6  0.1663299E-008  0.2036380E+04  0.7818608E-02  0.8589798E-01
          2   -1    0    0  501    0  0.00000000000E+00  0.00000000000E+00  0.31784004021E+04  0.31784004021E+04  0.00000000000E+00 0. -1.
         -1   -1    0    0    0  501 -0.00000000000E+00 -0.00000000000E+00 -0.32617363834E+03  0.32617363834E+03  0.00000000000E+00 0.  1.
         24    2    1    2    0    0  0.35460765566E+03  0.14362694137E+03 -0.89848967131E+02  0.40090888243E+03  0.79245235697E+02 0.  0.
        254    2    1    2    0    0 -0.35460765566E+03 -0.14362694137E+03  0.29420757309E+04  0.31036651580E+04  0.91134654169E+03 0.  0.
         23    2    4    4    0    0  0.21871904646E+03  0.20623557433E+03  0.98992415661E+03  0.10385433303E+04  0.90836554566E+02 0.  0.
          4    1    3    3  502    0  0.36869578020E+02  0.24925191344E+02  0.13188396091E+02  0.46417289218E+02  0.00000000000E+00 0. -1.
         -3    1    3    3    0  502  0.31773807764E+03  0.11870175002E+03 -0.10303736322E+03  0.35449159321E+03  0.00000000000E+00 0.  1.
         11    1    4    4    0    0 -0.37896743512E+03 -0.25165661887E+03  0.12666698828E+04  0.13458825962E+04  0.00000000000E+00 0. -1.
        -11    1    4    4    0    0 -0.19435926700E+03 -0.98205896822E+02  0.68548169150E+03  0.71923923156E+03  0.00000000000E+00 0.  1.
          2    1    5    5  503    0  0.91830525267E+02  0.87357312402E+02  0.57233979446E+03  0.58620558315E+03  0.00000000000E+00 0. -1.
         -2    1    5    5    0  503  0.12688852120E+03  0.11887826193E+03  0.41758436215E+03  0.45233774714E+03  0.00000000000E+00 0.  1.
<mgrwt>
<rscale>  0 0.20363796E+04</rscale>
<asrwt>0</asrwt>
<pdfrwt beam="1">  1        2 0.48898466E+00 0.20363796E+04</pdfrwt>
<pdfrwt beam="2">  1       -1 0.50180562E-01 0.20363796E+04</pdfrwt>
<totfact> 0.56470266E+00</totfact>
</mgrwt>
</event>
<event>
11    6  0.1663299E-008  0.1451148E+04  0.7818608E-02  0.8917605E-01
          2   -1    0    0  501    0  0.00000000000E+00  0.00000000000E+00  0.34693902493E+03  0.34693902493E+03  0.00000000000E+00 0. -1.
         -1   -1    0    0    0  501 -0.00000000000E+00 -0.00000000000E+00 -0.15174350885E+04  0.15174350885E+04  0.00000000000E+00 0.  1.
         24    2    1    2    0    0 -0.28877862352E+03  0.16205328117E+03 -0.28162764381E+01  0.34189176491E+03  0.85015811262E+02 0.  0.
        254    2    1    2    0    0  0.28877862352E+03 -0.16205328117E+03 -0.11676797871E+04  0.15224823485E+04  0.91914202217E+03 0.  0.
         23    2    4    4    0    0  0.83810661999E+02  0.33739247609E+03 -0.68316362929E+03  0.77197263578E+03  0.91494786844E+02 0.  0.
          4    1    3    3  502    0 -0.21782748210E+03  0.77597101110E+02  0.52273541406E+01  0.23129515189E+03  0.00000000000E+00 0. -1.
         -3    1    3    3    0  502 -0.70951141418E+02  0.84456180056E+02 -0.80436305787E+01  0.11059661302E+03  0.00000000000E+00 0.  1.
         11    1    4    4    0    0  0.10060104354E+03 -0.33880651051E+03 -0.19585363662E+03  0.40406567351E+03  0.00000000000E+00 0.  1.
        -11    1    4    4    0    0  0.10436691798E+03 -0.16063924674E+03 -0.28866252118E+03  0.34644403919E+03  0.00000000000E+00 0. -1.
          3    1    5    5  503    0  0.22129729216E+02  0.25340783131E+03 -0.45896353023E+03  0.52474067497E+03  0.00000000000E+00 0. -1.
         -3    1    5    5    0  503  0.61680932783E+02  0.83984644777E+02 -0.22420009906E+03  0.24723196081E+03  0.00000000000E+00 0.  1.
<mgrwt>
<rscale>  0 0.14511478E+04</rscale>
<asrwt>0</asrwt>
<pdfrwt beam="1">  1        2 0.53375234E-01 0.14511478E+04</pdfrwt>
<pdfrwt beam="2">  1       -1 0.23345156E+00 0.14511478E+04</pdfrwt>
<totfact> 0.92795535E+00</totfact>
</mgrwt>
</event>
<event>
12    6  0.1663299E-008  0.1346921E+04  0.7818608E-02  0.8993163E-01
         -1   -1    0    0    0  501 -0.00000000000E+00  0.00000000000E+00  0.25077751565E+03  0.25077751565E+03  0.00000000000E+00 0.  1.
          2   -1    0    0  501    0  0.00000000000E+00 -0.00000000000E+00 -0.18085701287E+04  0.18085701287E+04  0.00000000000E+00 0. -1.
         24    2    1    2    0    0  0.50952251619E+02  0.24681902847E+03 -0.17717715530E+02  0.26383477761E+03  0.76020442444E+02 0.  0.
        254    2    1    2    0    0 -0.50952251619E+02 -0.24681902847E+03 -0.15400748975E+04  0.17955128667E+04  0.88798648633E+03 0.  0.
         23    2    4    4    0    0 -0.20811681030E+03 -0.62935199634E+02 -0.15152864939E+04  0.15355500223E+04  0.12061204912E+03 0.  0.
         23    2    4    4    0    0  0.15716455868E+03 -0.18388382884E+03 -0.24788403590E+02  0.25996284439E+03  0.91936143575E+02 0.  0.
          2    1    3    3  502    0  0.12806996036E+02  0.32769018765E+02 -0.29757043650E+02  0.46079381345E+02  0.00000000000E+00 0. -1.
         -3    1    3    3    0  502  0.38145255583E+02  0.21405000971E+03  0.12039328120E+02  0.21775539626E+03  0.00000000000E+00 0.  1.
         11    1    5    5    0    0 -0.13163044871E+02 -0.49692822074E+02 -0.39784721529E+03  0.40115464479E+03  0.00000000000E+00 0. -1.
        -11    1    5    5    0    0 -0.19495376543E+03 -0.13242377560E+02 -0.11174392786E+04  0.11343953775E+04  0.00000000000E+00 0.  1.
          1    1    6    6  503    0  0.13099789205E+03 -0.10843665031E+03 -0.48184107203E+02  0.17675028441E+03  0.00000000000E+00 0. -1.
         -1    1    6    6    0  503  0.26166666635E+02 -0.75447178533E+02  0.23395703613E+02  0.83212559983E+02  0.00000000000E+00 0.  1.
<mgrwt>
<rscale>  0 0.13469205E+04</rscale>
<asrwt>0</asrwt>
<pdfrwt beam="1">  1        2 0.27824157E+00 0.13469205E+04</pdfrwt>
<pdfrwt beam="2">  1       -1 0.38581155E-01 0.13469205E+04</pdfrwt>
<totfact> 0.61814004E+01</totfact>
</mgrwt>
</event>
<event>
12    6  0.1663299E-008  0.1767459E+04  0.7818608E-02  0.8723799E-01
         -1   -1    0    0    0  501 -0.00000000000E+00  0.00000000000E+00  0.72184377775E+03  0.72184377775E+03  0.00000000000E+00 0.  1.
          2   -1    0    0  501    0  0.00000000000E+00 -0.00000000000E+00 -0.10819202989E+04  0.10819202989E+04  0.00000000000E+00 0. -1.
         24    2    1    2    0    0 -0.84439081775E+02 -0.87632216753E+02  0.51136505803E+03  0.53163349777E+03  0.79565001280E+02 0.  0.
        254    2    1    2    0    0  0.84439081775E+02  0.87632216753E+02 -0.87144157918E+03  0.12721305789E+04  0.91874720126E+03 0.  0.
         23    2    4    4    0    0 -0.22709533311E+03 -0.87030964058E+02  0.58004276617E+02  0.27226529004E+03  0.10778317601E+03 0.  0.
         23    2    4    4    0    0  0.31153441488E+03  0.17466318081E+03 -0.92944585579E+03  0.99986528882E+03  0.91104766903E+02 0.  0.
          2    1    3    3  502    0 -0.21087699600E+02 -0.42703422703E+02  0.78205435199E+02  0.91566169952E+02  0.00000000000E+00 0. -1.
         -1    1    3    3    0  502 -0.63351382174E+02 -0.44928794050E+02  0.43315962283E+03  0.44006732782E+03  0.00000000000E+00 0.  1.
         11    1    5    5    0    0 -0.20227829204E+03 -0.30933150939E+02  0.46681988112E+02  0.20988705360E+03  0.00000000000E+00 0.  1.
        -11    1    5    5    0    0 -0.24817041072E+02 -0.56097813119E+02  0.11322288505E+02  0.62378236439E+02  0.00000000000E+00 0. -1.
          2    1    6    6  503    0  0.90407147857E+02  0.71520352113E+02 -0.20186653267E+03  0.23246227686E+03  0.00000000000E+00 0. -1.
         -2    1    6    6    0  503  0.22112726703E+03  0.10314282870E+03 -0.72757932313E+03  0.76740301197E+03  0.00000000000E+00 0.  1.
<mgrwt>
<rscale>  0 0.17674586E+04</rscale>
<asrwt>0</asrwt>
<pdfrwt beam="1">  1        2 0.16644928E+00 0.17674586E+04</pdfrwt>
<pdfrwt beam="2">  1       -1 0.11105289E+00 0.17674586E+04</pdfrwt>
<totfact> 0.18010940E+01</totfact>
</mgrwt>
</event>
<event>
11    6  0.1663299E-008  0.1447705E+04  0.7818608E-02  0.8919993E-01
          2   -1    0    0  501    0  0.00000000000E+00  0.00000000000E+00  0.49005082897E+03  0.49005082897E+03  0.00000000000E+00 0. -1.
         -1   -1    0    0    0  501 -0.00000000000E+00 -0.00000000000E+00 -0.10691998138E+04  0.10691998138E+04  0.00000000000E+00 0.  1.
         24    2    1    2    0    0  0.14917836147E+03  0.37621219704E+03  0.10341929916E+03  0.42597932909E+03  0.83504710292E+02 0.  0.
        254    2    1    2    0    0 -0.14917836147E+03 -0.37621219704E+03 -0.68256828394E+03  0.11332713136E+04  0.80908257139E+03 0.  0.
         23    2    4    4    0    0  0.12663066719E+03 -0.23843767871E+03 -0.72988568853E+03  0.78332944113E+03  0.89353469561E+02 0.  0.
          4    1    3    3  502    0  0.15184339491E+03  0.29325957279E+03  0.82385783565E+02  0.34036011950E+03  0.00000000000E+00 0. -1.
         -3    1    3    3    0  502 -0.26650334376E+01  0.82952624248E+02  0.21033515599E+02  0.85619209592E+02  0.00000000000E+00 0.  1.
         11    1    4    4    0    0 -0.22408283290E+03 -0.11939798523E+03  0.10091023038E+03  0.27322494299E+03  0.00000000000E+00 0. -1.
        -11    1    4    4    0    0 -0.51726195768E+02 -0.18376533105E+02 -0.53592825799E+02  0.76716929519E+02  0.00000000000E+00 0.  1.
          1    1    5    5  503    0  0.70202204301E+02 -0.11394970896E+03 -0.48225473433E+03  0.50048228185E+03  0.00000000000E+00 0. -1.
         -1    1    5    5    0  503  0.56428462893E+02 -0.12448796975E+03 -0.24763095419E+03  0.28284715928E+03  0.00000000000E+00 0.  1.
<mgrwt>
<rscale>  0 0.14477047E+04</rscale>
<asrwt>0</asrwt>
<pdfrwt beam="1">  1        2 0.75392435E-01 0.14477047E+04</pdfrwt>
<pdfrwt beam="2">  1       -1 0.16449228E+00 0.14477047E+04</pdfrwt>
<totfact> 0.18898715E+01</totfact>
</mgrwt>
</event>
<event>
12    6  0.1663299E-008  0.1989824E+04  0.7818608E-02  0.8611393E-01
         -1   -1    0    0    0  501 -0.00000000000E+00  0.00000000000E+00  0.49947320967E+03  0.49947320967E+03  0.00000000000E+00 0.  1.
          4   -1    0    0  501    0  0.00000000000E+00 -0.00000000000E+00 -0.19817871689E+04  0.19817871689E+04  0.00000000000E+00 0. -1.
         24    2    1    2    0    0 -0.50105395620E+03 -0.32589521914E+03  0.48679980118E+02  0.60510331624E+03  0.80731171050E+02 0.  0.
        254    2    1    2    0    0  0.50105395620E+03  0.32589521914E+03 -0.15309939394E+04  0.18761570624E+04  0.90485364525E+03 0.  0.
         23    2    4    4    0    0  0.47983712697E+03 -0.12069717783E+03 -0.37361525306E+03  0.63208594011E+03  0.12301545112E+03 0.  0.
         23    2    4    4    0    0  0.21216829233E+02  0.44659239697E+03 -0.11573786863E+04  0.12440711222E+04  0.91063773146E+02 0.  0.
          2    1    3    3  502    0 -0.33884634151E+03 -0.21315974864E+03  0.70101665470E+02  0.40640886444E+03  0.00000000000E+00 0. -1.
         -1    1    3    3    0  502 -0.16220761469E+03 -0.11273547051E+03 -0.21421685352E+02  0.19869445180E+03  0.00000000000E+00 0.  1.
         11    1    5    5    0    0  0.40238315276E+03 -0.76698996396E+02 -0.35278719847E+03  0.54060498063E+03  0.00000000000E+00 0. -1.
        -11    1    5    5    0    0  0.77453974209E+02 -0.43998181432E+02 -0.20828054584E+02  0.91480959483E+02  0.00000000000E+00 0.  1.
          1    1    6    6  503    0 -0.25007294376E+01  0.42212044243E+03 -0.10651007120E+04  0.11457012910E+04  0.00000000000E+00 0. -1.
         -1    1    6    6    0  503  0.23717558671E+02  0.24471954536E+02 -0.92277974358E+02  0.98369831248E+02  0.00000000000E+00 0.  1.
<mgrwt>
<rscale>  0 0.19898237E+04</rscale>
<asrwt>0</asrwt>
<pdfrwt beam="1">  1        4 0.30489033E+00 0.19898237E+04</pdfrwt>
<pdfrwt beam="2">  1       -1 0.76842033E-01 0.19898237E+04</pdfrwt>
<totfact> 0.18500455E-01</totfact>
</mgrwt>
</event>
<event>
11    6  0.1663299E-008  0.1243073E+04  0.7818608E-02  0.9075968E-01
         -1   -1    0    0    0  501 -0.00000000000E+00  0.00000000000E+00  0.17944184399E+03  0.17944184399E+03  0.00000000000E+00 0.  1.
          2   -1    0    0  501    0  0.00000000000E+00 -0.00000000000E+00 -0.21528306489E+04  0.21528306489E+04  0.00000000000E+00 0. -1.
         24    2    1    2    0    0 -0.88625335052E+02 -0.85771675852E+02 -0.98527574027E+03  0.99631235961E+03  0.81601489931E+02 0.  0.
        254    2    1    2    0    0  0.88625335052E+02  0.85771675852E+02 -0.98811306468E+03  0.13359601333E+04  0.89062383688E+03 0.  0.
         23    2    4    4    0    0  0.46717108826E+03  0.82675941941E+02 -0.55065688464E+03  0.73254263039E+03  0.91167777534E+02 0.  0.
          2    1    3    3  502    0 -0.81690812619E+02 -0.76865142882E+02 -0.57263921245E+03  0.58352147064E+03  0.00000000000E+00 0. -1.
         -1    1    3    3    0  502 -0.69345224332E+01 -0.89065329696E+01 -0.41263652782E+03  0.41279088898E+03  0.00000000000E+00 0.  1.
         11    1    4    4    0    0 -0.53682529420E+02  0.58446023145E+02 -0.13235092063E+03  0.15431953142E+03  0.00000000000E+00 0. -1.
        -11    1    4    4    0    0 -0.32486322379E+03 -0.55350289234E+02 -0.30510525940E+03  0.44909797150E+03  0.00000000000E+00 0.  1.
          4    1    5    5  503    0  0.46067301240E+03  0.66438877606E+02 -0.53428831482E+03  0.70858856338E+03  0.00000000000E+00 0.  1.
         -4    1    5    5    0  503  0.64980758573E+01  0.16237064335E+02 -0.16368569825E+02  0.23954067007E+02  0.00000000000E+00 0. -1.
<mgrwt>
<rscale>  0 0.12430735E+04</rscale>
<asrwt>0</asrwt>
<pdfrwt beam="1">  1        2 0.33120473E+00 0.12430735E+04</pdfrwt>
<pdfrwt beam="2">  1       -1 0.27606437E-01 0.12430735E+04</pdfrwt>
<totfact> 0.72754931E+01</totfact>
</mgrwt>
</event>
<event>
12    6  0.1663299E-008  0.2318299E+04  0.7818608E-02  0.8470741E-01
         -1   -1    0    0    0  501 -0.00000000000E+00  0.00000000000E+00  0.48334996876E+03  0.48334996876E+03  0.00000000000E+00 0.  1.
          2   -1    0    0  501    0  0.00000000000E+00 -0.00000000000E+00 -0.27798237573E+04  0.27798237573E+04  0.00000000000E+00 0. -1.
         24    2    1    2    0    0 -0.46158949740E+03  0.57149289293E+03 -0.18890786922E+04  0.20285325888E+04  0.81591468632E+02 0.  0.
        254    2    1    2    0    0  0.46158949740E+03 -0.57149289293E+03 -0.40739509632E+03  0.12346411372E+04  0.90481986190E+03 0.  0.
         23    2    4    4    0    0  0.17801322249E+03  0.99831927557E+02  0.17793352017E+03  0.29613781574E+03  0.11992559013E+03 0.  0.
         23    2    4    4    0    0  0.28357627492E+03 -0.67132482048E+03 -0.58532861649E+03  0.93850332151E+03  0.84180620717E+02 0.  0.
          4    1    3    3  502    0 -0.33837204340E+03  0.35842230027E+03 -0.12446479024E+04  0.13386973467E+04  0.00000000000E+00 0. -1.
         -3    1    3    3    0  502 -0.12321745401E+03  0.21307059266E+03 -0.64443078986E+03  0.68983524217E+03  0.00000000000E+00 0.  1.
         11    1    5    5    0    0  0.17172568770E+03  0.41607625604E+02  0.11883721838E+03  0.21293940639E+03  0.00000000000E+00 0.  1.
        -11    1    5    5    0    0  0.62875347910E+01  0.58224301953E+02  0.59096301790E+02  0.83198409341E+02  0.00000000000E+00 0. -1.
          2    1    6    6  503    0  0.32371391997E+02 -0.16461037009E+03 -0.14489702574E+03  0.22167460168E+03  0.00000000000E+00 0. -1.
         -2    1    6    6    0  503  0.25120488292E+03 -0.50671445040E+03 -0.44043159075E+03  0.71682871983E+03  0.00000000000E+00 0.  1.
<mgrwt>
<rscale>  0 0.23182991E+04</rscale>
<asrwt>0</asrwt>
<pdfrwt beam="1">  1        2 0.42766520E+00 0.23182991E+04</pdfrwt>
<pdfrwt beam="2">  1       -1 0.74361533E-01 0.23182991E+04</pdfrwt>
<totfact> 0.44595346E+00</totfact>
</mgrwt>
</event>
<event>
12    6  0.1663299E-008  0.1082078E+04  0.7818608E-02  0.9222838E-01
         -1   -1    0    0    0  501 -0.00000000000E+00  0.00000000000E+00  0.63635524503E+03  0.63635524503E+03  0.00000000000E+00 0.  1.
          2   -1    0    0  501    0  0.00000000000E+00 -0.00000000000E+00 -0.45999932930E+03  0.45999932930E+03  0.00000000000E+00 0. -1.
         24    2    1    2    0    0  0.30409204682E+02 -0.63760247352E+02  0.15917451032E+03  0.19132436061E+03  0.79236338595E+02 0.  0.
        254    2    1    2    0    0 -0.30409204682E+02  0.63760247352E+02  0.17181405414E+02  0.90503021372E+03  0.90210553605E+03 0.  0.
         23    2    4    4    0    0  0.22590232377E+03 -0.60685567476E+02  0.36470750623E+03  0.44695387016E+03  0.10973421967E+03 0.  0.
         23    2    4    4    0    0 -0.25631152845E+03  0.12444581483E+03 -0.34752610081E+03  0.45807634356E+03  0.88753508866E+02 0.  0.
          4    1    3    3  502    0 -0.14280035733E+02 -0.30692584432E+02  0.15427425362E+02  0.37201607666E+02  0.00000000000E+00 0. -1.
         -3    1    3    3    0  502  0.44689240415E+02 -0.33067662921E+02  0.14374708496E+03  0.15412275294E+03  0.00000000000E+00 0.  1.
         11    1    5    5    0    0  0.17343064219E+03 -0.92441125576E+02  0.28955304673E+03  0.34994930521E+03  0.00000000000E+00 0. -1.
        -11    1    5    5    0    0  0.52471681586E+02  0.31755558100E+02  0.75154459497E+02  0.97004564949E+02  0.00000000000E+00 0.  1.
          2    1    6    6  503    0 -0.25799636227E+03  0.11490214630E+03 -0.31018851623E+03  0.41950153965E+03  0.00000000000E+00 0. -1.
         -2    1    6    6    0  503  0.16848338176E+01  0.95436685250E+01 -0.37337584585E+02  0.38574803908E+02  0.00000000000E+00 0.  1.
<mgrwt>
<rscale>  0 0.10820776E+04</rscale>
<asrwt>0</asrwt>
<pdfrwt beam="1">  1        2 0.70769127E-01 0.10820776E+04</pdfrwt>
<pdfrwt beam="2">  1       -1 0.97900807E-01 0.10820776E+04</pdfrwt>
<totfact> 0.77182708E+01</totfact>
</mgrwt>
</event>
<event>
12    6  0.1663299E-008  0.2341845E+04  0.7818608E-02  0.8461602E-01
         -1   -1    0    0    0  501 -0.00000000000E+00  0.00000000000E+00  0.70090627998E+03  0.70090627998E+03  0.00000000000E+00 0.  1.
          2   -1    0    0  501    0  0.00000000000E+00 -0.00000000000E+00 -0.19561245451E+04  0.19561245451E+04  0.00000000000E+00 0. -1.
         24    2    1    2    0    0 -0.32528940923E+03 -0.28878626319E+03 -0.15558108858E+04  0.16172644863E+04  0.76067079047E+02 0.  0.
        254    2    1    2    0    0  0.32528940923E+03  0.28878626319E+03  0.30059262072E+03  0.10397663388E+04  0.89529180166E+03 0.  0.
         23    2    4    4    0    0 -0.10653567150E+03  0.84125982897E+02 -0.25019265094E+03  0.30475047392E+03  0.10885521794E+03 0.  0.
         23    2    4    4    0    0  0.43182508073E+03  0.20466028030E+03  0.55078527165E+03  0.73501586488E+03  0.92331876834E+02 0.  0.
          2    1    3    3  502    0 -0.16953373744E+03 -0.14507694264E+03 -0.93581312758E+03  0.96204740901E+03  0.00000000000E+00 0. -1.
         -1    1    3    3    0  502 -0.15575567178E+03 -0.14370932055E+03 -0.61999775826E+03  0.65521707728E+03  0.00000000000E+00 0.  1.
         11    1    5    5    0    0 -0.68899950527E+02  0.38269645621E+02 -0.44151009938E+02  0.90338699554E+02  0.00000000000E+00 0. -1.
        -11    1    5    5    0    0 -0.37635720972E+02  0.45856337276E+02 -0.20604164100E+03  0.21441177437E+03  0.00000000000E+00 0.  1.
          1    1    6    6  503    0  0.28611964506E+03  0.87249285973E+02  0.35419001355E+03  0.46360269077E+03  0.00000000000E+00 0. -1.
         -1    1    6    6    0  503  0.14570543566E+03  0.11741099432E+03  0.19659525811E+03  0.27141317411E+03  0.00000000000E+00 0.  1.
<mgrwt>
<rscale>  0 0.23418454E+04</rscale>
<asrwt>0</asrwt>
<pdfrwt beam="1">  1        2 0.30094224E+00 0.23418454E+04</pdfrwt>
<pdfrwt beam="2">  1       -1 0.10783173E+00 0.23418454E+04</pdfrwt>
<totfact> 0.58129923E+00</totfact>
</mgrwt>
</event>
<event>
12    6  0.1663299E-008  0.2325615E+04  0.7818608E-02  0.8467889E-01
          2   -1    0    0  501    0  0.00000000000E+00  0.00000000000E+00  0.17837289562E+04  0.17837289562E+04  0.00000000000E+00 0. -1.
         -1   -1    0    0    0  501 -0.00000000000E+00 -0.00000000000E+00 -0.75803073191E+03  0.75803073191E+03  0.00000000000E+00 0.  1.
         24    2    1    2    0    0  0.29264737889E+02 -0.43506569318E+03  0.13601715886E+04  0.14306361312E+04  0.80711878071E+02 0.  0.
        254    2    1    2    0    0 -0.29264737889E+02  0.43506569318E+03 -0.33447336435E+03  0.11111235568E+04  0.96570417046E+03 0.  0.
         23    2    4    4    0    0  0.17113965135E+03  0.10226186746E+03 -0.59350237886E+03  0.63529023011E+03  0.10771412610E+03 0.  0.
         23    2    4    4    0    0 -0.20040438924E+03  0.33280382572E+03  0.25902901451E+03  0.47583332674E+03  0.91657071953E+02 0.  0.
          2    1    3    3  502    0 -0.21132493683E+02 -0.14017492175E+03  0.51140291501E+03  0.53068684971E+03  0.00000000000E+00 0. -1.
         -1    1    3    3    0  502  0.50397231572E+02 -0.29489077143E+03  0.84876867358E+03  0.89994928150E+03  0.00000000000E+00 0.  1.
         11    1    5    5    0    0  0.14720874015E+02 -0.11224201631E+02 -0.15488679909E+03  0.15598912580E+03  0.00000000000E+00 0.  1.
        -11    1    5    5    0    0  0.15641877733E+03  0.11348606909E+03 -0.43861557976E+03  0.47930110431E+03  0.00000000000E+00 0. -1.
          1    1    6    6  503    0 -0.60143698456E+02  0.35801523103E+02  0.56542477774E+02  0.89978137974E+02  0.00000000000E+00 0. -1.
         -1    1    6    6    0  503 -0.14026069078E+03  0.29700230262E+03  0.20248653673E+03  0.38585518877E+03  0.00000000000E+00 0.  1.
<mgrwt>
<rscale>  0 0.23256151E+04</rscale>
<asrwt>0</asrwt>
<pdfrwt beam="1">  1        2 0.27441984E+00 0.23256151E+04</pdfrwt>
<pdfrwt beam="2">  1       -1 0.11662011E+00 0.23256151E+04</pdfrwt>
<totfact> 0.60222573E+00</totfact>
</mgrwt>
</event>
<event>
12    6  0.1663299E-008  0.1546121E+04  0.7818608E-02  0.8854350E-01
         -1   -1    0    0    0  501 -0.00000000000E+00  0.00000000000E+00  0.32640744429E+03  0.32640744429E+03  0.00000000000E+00 0.  1.
          2   -1    0    0  501    0  0.00000000000E+00 -0.00000000000E+00 -0.18309085217E+04  0.18309085217E+04  0.00000000000E+00 0. -1.
         24    2    1    2    0    0 -0.22068904307E+03 -0.18337205624E+03 -0.10933842868E+04  0.11326852928E+04  0.71817890082E+02 0.  0.
        254    2    1    2    0    0  0.22068904307E+03  0.18337205624E+03 -0.41111679065E+03  0.10246306732E+04  0.89360060210E+03 0.  0.
         23    2    4    4    0    0  0.25358905635E+03 -0.24506831493E+03  0.67479001864E+02  0.37486527078E+03  0.10772496027E+03 0.  0.
         23    2    4    4    0    0 -0.32900013281E+02  0.42844037117E+03 -0.47859579252E+03  0.64976540237E+03  0.92182335546E+02 0.  0.
          2    1    3    3  502    0 -0.13208751396E+03 -0.15131870737E+03 -0.77967247749E+03  0.80512957634E+03  0.00000000000E+00 0. -1.
         -1    1    3    3    0  502 -0.88601529106E+02 -0.32053348876E+02 -0.31371180927E+03  0.32755571650E+03  0.00000000000E+00 0.  1.
         11    1    5    5    0    0  0.13741167413E+03 -0.20243649707E+03  0.37403232360E+02  0.24751061659E+03  0.00000000000E+00 0.  1.
        -11    1    5    5    0    0  0.11617738222E+03 -0.42631817857E+02  0.30075769504E+02  0.12735465420E+03  0.00000000000E+00 0. -1.
          1    1    6    6  503    0 -0.17902206531E+02  0.10170853957E+02 -0.17282811176E+02  0.26881793672E+02  0.00000000000E+00 0. -1.
         -1    1    6    6    0  503 -0.14997806750E+02  0.41826951721E+03 -0.46131298134E+03  0.62288360870E+03  0.00000000000E+00 0.  1.
<mgrwt>
<rscale>  0 0.15461205E+04</rscale>
<asrwt>0</asrwt>
<pdfrwt beam="1">  1        2 0.28167824E+00 0.15461205E+04</pdfrwt>
<pdfrwt beam="2">  1       -1 0.50216529E-01 0.15461205E+04</pdfrwt>
<totfact> 0.36218486E+01</totfact>
</mgrwt>
</event>
<event>
12    6  0.1663299E-008  0.1802328E+04  0.7818608E-02  0.8705062E-01
          2   -1    0    0  501    0  0.00000000000E+00  0.00000000000E+00  0.12668685246E+04  0.12668685246E+04  0.00000000000E+00 0. -1.
         -1   -1    0    0    0  501 -0.00000000000E+00 -0.00000000000E+00 -0.64102694176E+03  0.64102694176E+03  0.00000000000E+00 0.  1.
         24    2    1    2    0    0  0.92045675594E+02 -0.22498806707E+03  0.90315274387E+03  0.93855832335E+03  0.78197256010E+02 0.  0.
        254    2    1    2    0    0 -0.92045675594E+02  0.22498806707E+03 -0.27731116101E+03  0.96933714304E+03  0.89644909512E+03 0.  0.
         23    2    4    4    0    0  0.20875539506E+03  0.41690562783E+03  0.43790478071E+02  0.48077080926E+03  0.10878348948E+03 0.  0.
         23    2    4    4    0    0 -0.30080107065E+03 -0.19191756076E+03 -0.32110163908E+03  0.48856633379E+03  0.90978929747E+02 0.  0.
          2    1    3    3  502    0  0.96002603172E+02 -0.14250521924E+03  0.64675576706E+03  0.66919149692E+03  0.00000000000E+00 0. -1.
         -1    1    3    3    0  502 -0.39569275785E+01 -0.82482847833E+02  0.25639697681E+03  0.26936682643E+03  0.00000000000E+00 0.  1.
         11    1    5    5    0    0  0.43751089629E+01  0.93832975826E+02 -0.10982869249E+02  0.94574797635E+02  0.00000000000E+00 0.  1.
        -11    1    5    5    0    0  0.20438028610E+03  0.32307265200E+03  0.54773347320E+02  0.38619601162E+03  0.00000000000E+00 0. -1.
          3    1    6    6  503    0 -0.26688078858E+03 -0.19608100526E+03 -0.30706362561E+03  0.45162062188E+03  0.00000000000E+00 0. -1.
         -3    1    6    6    0  503 -0.33920282073E+02  0.41634444989E+01 -0.14038013465E+02  0.36945711903E+02  0.00000000000E+00 0.  1.
<mgrwt>
<rscale>  0 0.18023283E+04</rscale>
<asrwt>0</asrwt>
<pdfrwt beam="1">  1        2 0.19490285E+00 0.18023283E+04</pdfrwt>
<pdfrwt beam="2">  1       -1 0.98619530E-01 0.18023283E+04</pdfrwt>
<totfact> 0.18304249E+01</totfact>
</mgrwt>
</event>
<event>
12    6  0.1663299E-008  0.1468450E+04  0.7818608E-02  0.8905709E-01
         -1   -1    0    0    0  501 -0.00000000000E+00  0.00000000000E+00  0.75272127832E+03  0.75272127832E+03  0.00000000000E+00 0.  1.
          2   -1    0    0  501    0  0.00000000000E+00 -0.00000000000E+00 -0.71618297452E+03  0.71618297452E+03  0.00000000000E+00 0. -1.
         24    2    1    2    0    0 -0.12140834739E+03 -0.28450472392E+03  0.32910601237E+03  0.45875991318E+03  0.80417447218E+02 0.  0.
        254    2    1    2    0    0  0.12140834739E+03  0.28450472392E+03 -0.29256770858E+03  0.10101443397E+04  0.91603100280E+03 0.  0.
         23    2    4    4    0    0  0.40911796597E+03  0.37111890700E+03  0.23731258491E+02  0.56289020506E+03  0.10571403460E+03 0.  0.
         23    2    4    4    0    0 -0.28770961858E+03 -0.86614183085E+02 -0.31629896707E+03  0.44725413460E+03  0.98551423178E+02 0.  0.
          4    1    3    3  502    0 -0.62298331455E+02 -0.15117841383E+03  0.11580609788E+03  0.20036728080E+03  0.00000000000E+00 0. -1.
         -3    1    3    3    0  502 -0.59110015931E+02 -0.13332631009E+03  0.21329991450E+03  0.25839263238E+03  0.00000000000E+00 0.  1.
         11    1    5    5    0    0  0.34033251684E+03  0.24726999009E+03  0.20832378095E+02  0.42119194911E+03  0.00000000000E+00 0.  1.
        -11    1    5    5    0    0  0.68785449125E+02  0.12384891691E+03  0.28988803957E+01  0.14169825595E+03  0.00000000000E+00 0. -1.
          3    1    6    6  503    0 -0.17169166340E+03 -0.41543966695E+02 -0.11565152420E+03  0.21113787794E+03  0.00000000000E+00 0. -1.
         -3    1    6    6    0  503 -0.11601795518E+03 -0.45070216390E+02 -0.20064744287E+03  0.23611625666E+03  0.00000000000E+00 0.  1.
<mgrwt>
<rscale>  0 0.14684497E+04</rscale>
<asrwt>0</asrwt>
<pdfrwt beam="1">  1        2 0.11018200E+00 0.14684497E+04</pdfrwt>
<pdfrwt beam="2">  1       -1 0.11580327E+00 0.14684497E+04</pdfrwt>
<totfact> 0.29723593E+01</totfact>
</mgrwt>
</event>
<event>
12    6  0.1663299E-008  0.2185251E+04  0.7818608E-02  0.8524592E-01
          2   -1    0    0  501    0  0.00000000000E+00  0.00000000000E+00  0.12262199477E+04  0.12262199477E+04  0.00000000000E+00 0. -1.
         -1   -1    0    0    0  501 -0.00000000000E+00 -0.00000000000E+00 -0.97358570883E+03  0.97358570883E+03  0.00000000000E+00 0.  1.
         24    2    1    2    0    0  0.40553833629E+03  0.72457515067E+03 -0.25144356221E+03  0.87132373994E+03  0.80688931348E+02 0.  0.
        254    2    1    2    0    0 -0.40553833629E+03 -0.72457515067E+03  0.50407780106E+03  0.13284819166E+04  0.90625563831E+03 0.  0.
         23    2    4    4    0    0 -0.47035258360E+03 -0.27483878499E+03  0.63629797531E+03  0.84664633352E+03  0.12315433423E+03 0.  0.
         23    2    4    4    0    0  0.64814247307E+02 -0.44973636568E+03 -0.13222017425E+03  0.48183558306E+03  0.90662392169E+02 0.  0.
          4    1    3    3  502    0  0.10443169288E+03  0.17984421318E+03 -0.99962184808E+02  0.23074305598E+03  0.00000000000E+00 0. -1.
         -3    1    3    3    0  502  0.30110664341E+03  0.54473093749E+03 -0.15148137740E+03  0.64058068396E+03  0.00000000000E+00 0.  1.
         11    1    5    5    0    0 -0.41211239924E+03 -0.18835027566E+03  0.53745754103E+03  0.70297444076E+03  0.00000000000E+00 0.  1.
        -11    1    5    5    0    0 -0.58240184362E+02 -0.86488509328E+02  0.98840434277E+02  0.14367189276E+03  0.00000000000E+00 0. -1.
          1    1    6    6  503    0  0.44022751026E+02 -0.18768708251E+03 -0.13079357112E+02  0.19322399730E+03  0.00000000000E+00 0. -1.
         -1    1    6    6    0  503  0.20791496281E+02 -0.26204928317E+03 -0.11914081714E+03  0.28861158576E+03  0.00000000000E+00 0.  1.
<mgrwt>
<rscale>  0 0.21852508E+04</rscale>
<asrwt>0</asrwt>
<pdfrwt beam="1">  1        2 0.18864922E+00 0.21852508E+04</pdfrwt>
<pdfrwt beam="2">  1       -1 0.14978242E+00 0.21852508E+04</pdfrwt>
<totfact> 0.66767067E+00</totfact>
</mgrwt>
</event>
<event>
11    6  0.1663299E-008  0.2316455E+04  0.7818608E-02  0.8471461E-01
          2   -1    0    0  501    0  0.00000000000E+00  0.00000000000E+00  0.17385554380E+04  0.17385554380E+04  0.00000000000E+00 0. -1.
         -1   -1    0    0    0  501 -0.00000000000E+00 -0.00000000000E+00 -0.77161227427E+03  0.77161227427E+03  0.00000000000E+00 0.  1.
         24    2    1    2    0    0  0.34567217686E+03 -0.62566905694E+03  0.11595126027E+04  0.13644614352E+04  0.79589632872E+02 0.  0.
        254    2    1    2    0    0 -0.34567217686E+03  0.62566905694E+03 -0.19256943899E+03  0.11457062771E+04  0.87441915680E+03 0.  0.
         23    2    4    4    0    0 -0.48760636815E+03  0.19902090265E+03 -0.21605647813E+03  0.57637547149E+03  0.90327141209E+02 0.  0.
          4    1    3    3  502    0  0.29855284979E+03 -0.53465408984E+03  0.10412416101E+04  0.12079622885E+04  0.00000000000E+00 0. -1.
         -3    1    3    3    0  502  0.47119327069E+02 -0.91014967102E+02  0.11827099263E+03  0.15649914670E+03  0.00000000000E+00 0.  1.
         11    1    4    4    0    0  0.14952477265E+03  0.66362009766E+02 -0.95993128189E+02  0.18967407476E+03  0.00000000000E+00 0.  1.
        -11    1    4    4    0    0 -0.75905813603E+01  0.36028614453E+03  0.11948016733E+03  0.37965673081E+03  0.00000000000E+00 0. -1.
          4    1    5    5  503    0 -0.42106740071E+03  0.17283698525E+03 -0.21837022610E+03  0.50483258121E+03  0.00000000000E+00 0. -1.
         -4    1    5    5    0  503 -0.66538967440E+02  0.26183917403E+02  0.23137479743E+01  0.71542890271E+02  0.00000000000E+00 0.  1.
<mgrwt>
<rscale>  0 0.23164548E+04</rscale>
<asrwt>0</asrwt>
<pdfrwt beam="1">  1        2 0.26747007E+00 0.23164548E+04</pdfrwt>
<pdfrwt beam="2">  1       -1 0.11870958E+00 0.23164548E+04</pdfrwt>
<totfact> 0.61168796E+00</totfact>
</mgrwt>
</event>
<event>
11    6  0.1663299E-008  0.2701479E+04  0.7818608E-02  0.8334525E-01
          2   -1    0    0  501    0  0.00000000000E+00  0.00000000000E+00  0.38931977969E+04  0.38931977969E+04  0.00000000000E+00 0. -1.
         -1   -1    0    0    0  501 -0.00000000000E+00 -0.00000000000E+00 -0.46863711989E+03  0.46863711989E+03  0.00000000000E+00 0.  1.
         24    2    1    2    0    0  0.60344391855E+03  0.77401245515E+03  0.26282413675E+04  0.28066377375E+04  0.79516417079E+02 0.  0.
        254    2    1    2    0    0 -0.60344391855E+03 -0.77401245515E+03  0.79631930951E+03  0.15551971792E+04  0.90624167855E+03 0.  0.
         23    2    4    4    0    0  0.91327160642E+02 -0.85379018943E+02  0.51304196574E+03  0.53584742004E+03  0.91050380585E+02 0.  0.
          4    1    3    3  502    0  0.34260431873E+03  0.48394893092E+03  0.16632144218E+04  0.17657481417E+04  0.00000000000E+00 0. -1.
         -3    1    3    3    0  502  0.26083959982E+03  0.29006352423E+03  0.96502694565E+03  0.10408895958E+04  0.00000000000E+00 0.  1.
         11    1    4    4    0    0 -0.14905518663E+03 -0.12862392210E+03  0.68531373975E+02  0.20846609128E+03  0.00000000000E+00 0. -1.
        -11    1    4    4    0    0 -0.54571589256E+03 -0.56000951411E+03  0.21474596979E+03  0.81088366788E+03  0.00000000000E+00 0.  1.
          3    1    5    5  503    0 -0.11130120446E+02 -0.41823570494E+02  0.13744589683E+03  0.14409880356E+03  0.00000000000E+00 0. -1.
         -3    1    5    5    0  503  0.10245728109E+03 -0.43555448449E+02  0.37559606891E+03  0.39174861648E+03  0.00000000000E+00 0.  1.
<mgrwt>
<rscale>  0 0.27014789E+04</rscale>
<asrwt>0</asrwt>
<pdfrwt beam="1">  1        2 0.59895349E+00 0.27014789E+04</pdfrwt>
<pdfrwt beam="2">  1       -1 0.72098021E-01 0.27014789E+04</pdfrwt>
<totfact> 0.80644114E-01</totfact>
</mgrwt>
</event>
<event>
12    6  0.1663299E-008  0.1443203E+04  0.7818608E-02  0.8923126E-01
         -1   -1    0    0    0  501 -0.00000000000E+00  0.00000000000E+00  0.21001168139E+03  0.21001168139E+03  0.00000000000E+00 0.  1.
          2   -1    0    0  501    0  0.00000000000E+00 -0.00000000000E+00 -0.24794267114E+04  0.24794267114E+04  0.00000000000E+00 0. -1.
         24    2    1    2    0    0 -0.16347935934E+03 -0.38737515519E+03 -0.51536214703E+03  0.66978189696E+03  0.78896356755E+02 0.  0.
        254    2    1    2    0    0  0.16347935934E+03  0.38737515519E+03 -0.17540528830E+04  0.20196564959E+04  0.90858452173E+03 0.  0.
         23    2    4    4    0    0  0.17778450210E+03 -0.15827662145E+03 -0.12122998110E+03  0.29571532122E+03  0.12685434483E+03 0.  0.
         23    2    4    4    0    0 -0.14305142764E+02  0.54565177664E+03 -0.16328229019E+04  0.17239411747E+04  0.89005877188E+02 0.  0.
          2    1    3    3  502    0 -0.73044348201E+02 -0.12068594229E+03 -0.22284032199E+03  0.26373923215E+03  0.00000000000E+00 0. -1.
         -1    1    3    3    0  502 -0.90435011137E+02 -0.26668921290E+03 -0.29252182504E+03  0.40604266481E+03  0.00000000000E+00 0.  1.
         11    1    5    5    0    0  0.52908352971E+02 -0.10835276394E+03 -0.10567394557E+03  0.16033277282E+03  0.00000000000E+00 0.  1.
        -11    1    5    5    0    0  0.12487614913E+03 -0.49923857505E+02 -0.15556035528E+02  0.13538254840E+03  0.00000000000E+00 0. -1.
          4    1    6    6  503    0  0.26255370241E+02  0.24369905100E+03 -0.63590254509E+03  0.68150613994E+03  0.00000000000E+00 0.  1.
         -4    1    6    6    0  503 -0.40560513005E+02  0.30195272564E+03 -0.99692035683E+03  0.10424350347E+04  0.00000000000E+00 0. -1.
<mgrwt>
<rscale>  0 0.14432028E+04</rscale>
<asrwt>0</asrwt>
<pdfrwt beam="1">  1        2 0.38145025E+00 0.14432028E+04</pdfrwt>
<pdfrwt beam="2">  1       -1 0.32309490E-01 0.14432028E+04</pdfrwt>
<totfact> 0.35500085E+01</totfact>
</mgrwt>
</event>
<event>
11    6  0.1663299E-008  0.2197628E+04  0.7818608E-02  0.8519416E-01
          2   -1    0    0  501    0  0.00000000000E+00  0.00000000000E+00  0.84622636242E+03  0.84622636242E+03  0.00000000000E+00 0. -1.
         -1   -1    0    0    0  501 -0.00000000000E+00 -0.00000000000E+00 -0.14267952375E+04  0.14267952375E+04  0.00000000000E+00 0.  1.
         24    2    1    2    0    0  0.18087737346E+03 -0.19605561390E+03 -0.11426240914E+04  0.11760098653E+04  0.79088311684E+02 0.  0.
        254    2    1    2    0    0 -0.18087737346E+03  0.19605561390E+03  0.56205521638E+03  0.10970117346E+04  0.90353431123E+03 0.  0.
         23    2    4    4    0    0  0.98903466619E+02 -0.30751373126E+03  0.22791181548E+03  0.40574715384E+03  0.91325607535E+02 0.  0.
          4    1    3    3  502    0  0.34187649229E+02 -0.33569691107E+02 -0.36604343251E+03  0.36916597081E+03  0.00000000000E+00 0. -1.
         -3    1    3    3    0  502  0.14668972423E+03 -0.16248592279E+03 -0.77658065894E+03  0.80684389453E+03  0.00000000000E+00 0.  1.
         11    1    4    4    0    0  0.34370706115E+01  0.13724003139E+03  0.41182805221E+02  0.14332711926E+03  0.00000000000E+00 0. -1.
        -11    1    4    4    0    0 -0.28321791069E+03  0.36632931377E+03  0.29296059568E+03  0.54793746147E+03  0.00000000000E+00 0.  1.
          1    1    5    5  503    0  0.21834500023E+02 -0.17177700560E+03  0.15913477622E+03  0.23517644876E+03  0.00000000000E+00 0. -1.
         -1    1    5    5    0  503  0.77068966596E+02 -0.13573672566E+03  0.68777039251E+02  0.17057070509E+03  0.00000000000E+00 0.  1.
<mgrwt>
<rscale>  0 0.21976276E+04</rscale>
<asrwt>0</asrwt>
<pdfrwt beam="1">  1        2 0.13018867E+00 0.21976276E+04</pdfrwt>
<pdfrwt beam="2">  1       -1 0.21950696E+00 0.21976276E+04</pdfrwt>
<totfact> 0.36929125E+00</totfact>
</mgrwt>
</event>
<event>
12    6  0.1663299E-008  0.1517752E+04  0.7818608E-02  0.8872733E-01
          2   -1    0    0  501    0  0.00000000000E+00  0.00000000000E+00  0.23823897803E+04  0.23823897803E+04  0.00000000000E+00 0. -1.
         -1   -1    0    0    0  501 -0.00000000000E+00 -0.00000000000E+00 -0.24172919072E+03  0.24172919072E+03  0.00000000000E+00 0.  1.
         24    2    1    2    0    0  0.44122485151E+03  0.12422409656E+03  0.46507274344E+03  0.65797094712E+03  0.80759611250E+02 0.  0.
        254    2    1    2    0    0 -0.44122485151E+03 -0.12422409656E+03  0.16755878461E+04  0.19661480239E+04  0.92088676068E+03 0.  0.
         23    2    4    4    0    0  0.22716582861E+03 -0.24191786463E+03  0.63067781733E+03  0.71697730913E+03  0.78570895517E+02 0.  0.
         23    2    4    4    0    0 -0.66839068012E+03  0.11769376807E+03  0.10449100288E+04  0.12491707148E+04  0.89401241710E+02 0.  0.
          2    1    3    3  502    0  0.20306873868E+03  0.25949971496E+02  0.16871734157E+03  0.26528447938E+03  0.00000000000E+00 0. -1.
         -1    1    3    3    0  502  0.23815611283E+03  0.98274125060E+02  0.29635540187E+03  0.39268646775E+03  0.00000000000E+00 0.  1.
         11    1    5    5    0    0  0.13632841471E+03 -0.96254258651E+02  0.26779639953E+03  0.31553958637E+03  0.00000000000E+00 0.  1.
        -11    1    5    5    0    0  0.90837413897E+02 -0.14566360598E+03  0.36288141780E+03  0.40143772276E+03  0.00000000000E+00 0. -1.
          1    1    6    6  503    0 -0.29089843347E+03  0.22878067659E+02  0.51111908093E+03  0.58854738082E+03  0.00000000000E+00 0. -1.
         -1    1    6    6    0  503 -0.37749224665E+03  0.94815700411E+02  0.53379094786E+03  0.66062333394E+03  0.00000000000E+00 0.  1.
<mgrwt>
<rscale>  0 0.15177525E+04</rscale>
<asrwt>0</asrwt>
<pdfrwt beam="1">  1        2 0.36652149E+00 0.15177525E+04</pdfrwt>
<pdfrwt beam="2">  1       -1 0.37189108E-01 0.15177525E+04</pdfrwt>
<totfact> 0.31161600E+01</totfact>
</mgrwt>
</event>
<event>
12    6  0.1663299E-008  0.2497099E+04  0.7818608E-02  0.8404020E-01
          2   -1    0    0  501    0  0.00000000000E+00  0.00000000000E+00  0.17947758187E+04  0.17947758187E+04  0.00000000000E+00 0. -1.
         -1   -1    0    0    0  501 -0.00000000000E+00 -0.00000000000E+00 -0.86856278395E+03  0.86856278395E+03  0.00000000000E+00 0.  1.
         24    2    1    2    0    0  0.79374609647E+03  0.51811022808E+03  0.95138853533E+03  0.13454102381E+04  0.80730970864E+02 0.  0.
        254    2    1    2    0    0 -0.79374609647E+03 -0.51811022808E+03 -0.25175500560E+02  0.13179283645E+04  0.91533070203E+03 0.  0.
         23    2    4    4    0    0 -0.15228289287E+03 -0.60212063729E+03 -0.15132742277E+03  0.65189795984E+03  0.12779522623E+03 0.  0.
         23    2    4    4    0    0 -0.64146320360E+03  0.84010409218E+02  0.12615192221E+03  0.66603040467E+03  0.95652506728E+02 0.  0.
          2    1    3    3  502    0  0.22147918782E+03  0.14423116475E+03  0.31803915207E+03  0.41352697829E+03  0.00000000000E+00 0. -1.
         -1    1    3    3    0  502  0.57226690865E+03  0.37387906333E+03  0.63334938326E+03  0.93188325986E+03  0.00000000000E+00 0.  1.
         11    1    5    5    0    0 -0.58794001080E+02 -0.45585966132E+03 -0.12496742583E+03  0.47632092427E+03  0.00000000000E+00 0.  1.
        -11    1    5    5    0    0 -0.93488891789E+02 -0.14626097598E+03 -0.26359996944E+02  0.17557703558E+03  0.00000000000E+00 0. -1.
          4    1    6    6  503    0 -0.15362889012E+03 -0.18387773934E+02  0.43824691484E+02  0.16081215654E+03  0.00000000000E+00 0. -1.
         -4    1    6    6    0  503 -0.48783431348E+03  0.10239818315E+03  0.82327230727E+02  0.50521824813E+03  0.00000000000E+00 0.  1.
<mgrwt>
<rscale>  0 0.24970987E+04</rscale>
<asrwt>0</asrwt>
<pdfrwt beam="1">  1        2 0.27611935E+00 0.24970987E+04</pdfrwt>
<pdfrwt beam="2">  1       -1 0.13362504E+00 0.24970987E+04</pdfrwt>
<totfact> 0.41713072E+00</totfact>
</mgrwt>
</event>
<event>
11    6  0.1663299E-008  0.2459404E+04  0.7818608E-02  0.8417592E-01
         -1   -1    0    0    0  501 -0.00000000000E+00  0.00000000000E+00  0.88584711331E+03  0.88584711331E+03  0.00000000000E+00 0.  1.
          2   -1    0    0  501    0  0.00000000000E+00 -0.00000000000E+00 -0.17070294235E+04  0.17070294235E+04  0.00000000000E+00 0. -1.
         24    2    1    2    0    0  0.10918136298E+03  0.38113119274E+03 -0.13970340455E+04  0.14548686844E+04  0.88075015754E+02 0.  0.
        254    2    1    2    0    0 -0.10918136298E+03 -0.38113119274E+03  0.57585173535E+03  0.11380078524E+04  0.89792822370E+03 0.  0.
         23    2    4    4    0    0  0.12855472881E+03  0.69907436855E+02  0.55360662102E+03  0.57983984909E+03  0.91217277608E+02 0.  0.
          2    1    3    3  502    0  0.10595212122E+03  0.33600985838E+03 -0.11182488362E+04  0.11724371781E+04  0.00000000000E+00 0. -1.
         -1    1    3    3    0  502  0.32292417643E+01  0.45121334363E+02 -0.27878520932E+03  0.28243150631E+03  0.00000000000E+00 0.  1.
         11    1    4    4    0    0 -0.12405354958E+03 -0.78341831003E+02  0.75314652270E+02  0.16492126150E+03  0.00000000000E+00 0. -1.
        -11    1    4    4    0    0 -0.11368254221E+03 -0.37269679860E+03 -0.53069537938E+02  0.39324674181E+03  0.00000000000E+00 0.  1.
          1    1    5    5  503    0  0.27764827283E+02  0.94555689626E+01  0.25664129769E+02  0.38973593307E+02  0.00000000000E+00 0. -1.
         -1    1    5    5    0  503  0.10078990152E+03  0.60451867892E+02  0.52794249125E+03  0.54086625578E+03  0.00000000000E+00 0.  1.
<mgrwt>
<rscale>  0 0.24594041E+04</rscale>
<asrwt>0</asrwt>
<pdfrwt beam="1">  1        2 0.26261991E+00 0.24594041E+04</pdfrwt>
<pdfrwt beam="2">  1       -1 0.13628417E+00 0.24594041E+04</pdfrwt>
<totfact> 0.44515545E+00</totfact>
</mgrwt>
</event>
<event>
11    6  0.1663299E-008  0.2557817E+04  0.7818608E-02  0.8382673E-01
         -1   -1    0    0    0  501 -0.00000000000E+00  0.00000000000E+00  0.13389896289E+04  0.13389896289E+04  0.00000000000E+00 0.  1.
          2   -1    0    0  501    0  0.00000000000E+00 -0.00000000000E+00 -0.12215235515E+04  0.12215235515E+04  0.00000000000E+00 0. -1.
         24    2    1    2    0    0  0.10087019747E+04 -0.41188738560E+03 -0.19415038026E+03  0.11096867179E+04  0.81113190508E+02 0.  0.
        254    2    1    2    0    0 -0.10087019747E+04  0.41188738560E+03  0.31161645766E+03  0.14508264624E+04  0.90590381119E+03 0.  0.
         23    2    4    4    0    0 -0.93313404272E+03  0.32875817846E+03 -0.10368319037E+03  0.99913665674E+03  0.93288655785E+02 0.  0.
          2    1    3    3  502    0  0.20293122606E+03 -0.92157603235E+02 -0.78980184169E+01  0.22301678197E+03  0.00000000000E+00 0. -1.
         -1    1    3    3    0  502  0.80577074861E+03 -0.31972978236E+03 -0.18625236184E+03  0.88666993596E+03  0.00000000000E+00 0.  1.
         11    1    4    4    0    0 -0.80886545406E+02  0.11076751271E+03  0.26099956341E+03  0.29484376744E+03  0.00000000000E+00 0.  1.
        -11    1    4    4    0    0  0.53186134560E+01 -0.27638305564E+02  0.15430008462E+03  0.15684603819E+03  0.00000000000E+00 0. -1.
          2    1    5    5  503    0 -0.15843294351E+03  0.19653177268E+02 -0.17718622280E+02  0.16062750244E+03  0.00000000000E+00 0. -1.
         -2    1    5    5    0  503 -0.77470109921E+03  0.30910500119E+03 -0.85964568093E+02  0.83850915430E+03  0.00000000000E+00 0.  1.
<mgrwt>
<rscale>  0 0.25578173E+04</rscale>
<asrwt>0</asrwt>
<pdfrwt beam="1">  1        2 0.18792670E+00 0.25578173E+04</pdfrwt>
<pdfrwt beam="2">  1       -1 0.20599840E+00 0.25578173E+04</pdfrwt>
<totfact> 0.25462136E+00</totfact>
</mgrwt>
</event>
<event>
12    6  0.1663299E-008  0.1399529E+04  0.7818608E-02  0.8954159E-01
         -1   -1    0    0    0  501 -0.00000000000E+00  0.00000000000E+00  0.12642919542E+04  0.12642919542E+04  0.00000000000E+00 0.  1.
          2   -1    0    0  501    0  0.00000000000E+00 -0.00000000000E+00 -0.38730821791E+03  0.38730821791E+03  0.00000000000E+00 0. -1.
         24    2    1    2    0    0  0.24742772321E+02 -0.45595205188E+02 -0.21257877958E+03  0.23256912097E+03  0.78787886002E+02 0.  0.
        254    2    1    2    0    0 -0.24742772321E+02  0.45595205188E+02  0.10895625159E+04  0.14190310512E+04  0.90764063407E+03 0.  0.
         23    2    4    4    0    0  0.20869573268E+03 -0.25511514356E+03  0.97123634215E+02  0.35204180714E+03  0.76568847083E+02 0.  0.
         23    2    4    4    0    0 -0.23343850500E+03  0.30071034875E+03  0.99243888168E+03  0.10669892440E+04  0.92794738715E+02 0.  0.
          2    1    3    3  502    0  0.35537318766E+02 -0.13746280249E+02 -0.18555819667E+03  0.18942994905E+03  0.00000000000E+00 0. -1.
         -1    1    3    3    0  502 -0.10794546445E+02 -0.31848924940E+02 -0.27020582911E+02  0.43139171916E+02  0.00000000000E+00 0.  1.
         11    1    5    5    0    0  0.59008165823E+02 -0.28609057924E+02  0.31369032387E+02  0.72694277780E+02  0.00000000000E+00 0.  1.
        -11    1    5    5    0    0  0.14968756685E+03 -0.22650608563E+03  0.65754601828E+02  0.27934752936E+03  0.00000000000E+00 0. -1.
          2    1    6    6  503    0 -0.18809628693E+03  0.17033225641E+03  0.64952918562E+03  0.69733883708E+03  0.00000000000E+00 0.  1.
         -2    1    6    6    0  503 -0.45342218072E+02  0.13037809234E+03  0.34290969605E+03  0.36965040694E+03  0.00000000000E+00 0. -1.
<mgrwt>
<rscale>  0 0.13995294E+04</rscale>
<asrwt>0</asrwt>
<pdfrwt beam="1">  1        2 0.59585880E-01 0.13995294E+04</pdfrwt>
<pdfrwt beam="2">  1       -1 0.19450645E+00 0.13995294E+04</pdfrwt>
<totfact> 0.15091730E+01</totfact>
</mgrwt>
</event>
<event>
12    6  0.1663299E-008  0.1334590E+04  0.7818608E-02  0.9002576E-01
          2   -1    0    0  501    0  0.00000000000E+00  0.00000000000E+00  0.13590870518E+04  0.13590870518E+04  0.00000000000E+00 0. -1.
         -1   -1    0    0    0  501 -0.00000000000E+00 -0.00000000000E+00 -0.32763352068E+03  0.32763352068E+03  0.00000000000E+00 0.  1.
         24    2    1    2    0    0 -0.17606436521E+03 -0.29726472421E+03  0.40769873695E+03  0.54048386306E+03  0.80867602674E+02 0.  0.
        254    2    1    2    0    0  0.17606436521E+03  0.29726472421E+03  0.62375479419E+03  0.11462367094E+04  0.89745393967E+03 0.  0.
         23    2    4    4    0    0  0.26146523416E+03  0.51062249573E+03  0.67797745959E+03  0.89121203990E+03  0.74202847169E+02 0.  0.
         23    2    4    4    0    0 -0.85400868946E+02 -0.21335777152E+03 -0.54222665397E+02  0.25502466954E+03  0.96346445420E+02 0.  0.
          2    1    3    3  502    0 -0.99335339868E+02 -0.17314032915E+03  0.29461918582E+03  0.35587293797E+03  0.00000000000E+00 0. -1.
         -1    1    3    3    0  502 -0.76729025343E+02 -0.12412439507E+03  0.11307955112E+03  0.18461092509E+03  0.00000000000E+00 0.  1.
         11    1    5    5    0    0  0.11741090776E+03  0.19609193177E+03  0.32154255453E+03  0.39449585719E+03  0.00000000000E+00 0.  1.
        -11    1    5    5    0    0  0.14405432640E+03  0.31453056396E+03  0.35643490506E+03  0.49671618271E+03  0.00000000000E+00 0. -1.
          1    1    6    6  503    0 -0.83338030778E+02 -0.20084845890E+03 -0.19811830077E+02  0.21835255764E+03  0.00000000000E+00 0. -1.
         -1    1    6    6    0  503 -0.20628381676E+01 -0.12509312617E+02 -0.34410835320E+02  0.36672111896E+02  0.00000000000E+00 0.  1.
<mgrwt>
<rscale>  0 0.13345898E+04</rscale>
<asrwt>0</asrwt>
<pdfrwt beam="1">  1        2 0.20909031E+00 0.13345898E+04</pdfrwt>
<pdfrwt beam="2">  1       -1 0.50405158E-01 0.13345898E+04</pdfrwt>
<totfact> 0.67277742E+01</totfact>
</mgrwt>
</event>
<event>
11    6  0.1663299E-008  0.2572548E+04  0.7818608E-02  0.8377586E-01
          2   -1    0    0  501    0  0.00000000000E+00  0.00000000000E+00  0.10885055072E+04  0.10885055072E+04  0.00000000000E+00 0. -1.
         -1   -1    0    0    0  501 -0.00000000000E+00 -0.00000000000E+00 -0.15199742940E+04  0.15199742940E+04  0.00000000000E+00 0.  1.
         24    2    1    2    0    0  0.51254564933E+03 -0.98218764937E+03  0.82896463667E+01  0.11112137328E+04  0.85624881932E+02 0.  0.
        254    2    1    2    0    0 -0.51254564933E+03  0.98218764937E+03 -0.43975843309E+03  0.14972660684E+04  0.90610296271E+03 0.  0.
         23    2    4    4    0    0 -0.44729750777E+03  0.57608542481E+03 -0.56712297921E+03  0.92823433155E+03  0.89671754612E+02 0.  0.
          4    1    3    3  502    0  0.35814380316E+03 -0.69798380097E+03  0.44436885298E+02  0.78576269123E+03  0.00000000000E+00 0. -1.
         -3    1    3    3    0  502  0.15440184616E+03 -0.28420384840E+03 -0.36147238931E+02  0.32545104152E+03  0.00000000000E+00 0.  1.
         11    1    4    4    0    0  0.11392871893E+03  0.34336649604E+03  0.55321320167E+02  0.36597916890E+03  0.00000000000E+00 0. -1.
        -11    1    4    4    0    0 -0.17917686049E+03  0.62735728510E+02  0.72043225958E+02  0.20305256800E+03  0.00000000000E+00 0.  1.
          4    1    5    5  503    0 -0.36937254290E+03  0.52204937788E+03 -0.50514083611E+03  0.81494717172E+03  0.00000000000E+00 0. -1.
         -4    1    5    5    0  503 -0.77924964862E+02  0.54036046932E+02 -0.61982143102E+02  0.11328715982E+03  0.00000000000E+00 0.  1.
<mgrwt>
<rscale>  0 0.25725477E+04</rscale>
<asrwt>0</asrwt>
<pdfrwt beam="1">  1        2 0.16746239E+00 0.25725477E+04</pdfrwt>
<pdfrwt beam="2">  1       -1 0.23384220E+00 0.25725477E+04</pdfrwt>
<totfact> 0.19921567E+00</totfact>
</mgrwt>
</event>
<event>
11    6  0.1663299E-008  0.1811228E+04  0.7818608E-02  0.8700351E-01
         -1   -1    0    0    0  501 -0.00000000000E+00  0.00000000000E+00  0.40568287276E+03  0.40568287276E+03  0.00000000000E+00 0.  1.
          2   -1    0    0  501    0  0.00000000000E+00 -0.00000000000E+00 -0.20216203564E+04  0.20216203564E+04  0.00000000000E+00 0. -1.
         24    2    1    2    0    0  0.22310958354E+03  0.18185771777E+03  0.21414001160E+03  0.36840002989E+03  0.83740800562E+02 0.  0.
        254    2    1    2    0    0 -0.22310958354E+03 -0.18185771777E+03 -0.18300774953E+04  0.20589031993E+04  0.89835885344E+03 0.  0.
         23    2    4    4    0    0  0.19010180723E+03 -0.36471176953E+03 -0.11978966918E+04  0.12697911556E+04  0.90883015434E+02 0.  0.
          2    1    3    3  502    0  0.88099275297E+02  0.22532137922E+02  0.64844764739E+02  0.11168716605E+03  0.00000000000E+00 0. -1.
         -1    1    3    3    0  502  0.13501030824E+03  0.15932557985E+03  0.14929524686E+03  0.25671286384E+03  0.00000000000E+00 0.  1.
         11    1    4    4    0    0 -0.26802324418E+03  0.12520588477E+03 -0.51467964887E+03  0.59363971731E+03  0.00000000000E+00 0.  1.
        -11    1    4    4    0    0 -0.14518814658E+03  0.57648166998E+02 -0.11750115454E+03  0.19547232639E+03  0.00000000000E+00 0. -1.
          4    1    5    5  503    0  0.11430898690E+03 -0.24247690317E+03 -0.89854874401E+03  0.93768408241E+03  0.00000000000E+00 0. -1.
         -4    1    5    5    0  503  0.75792820328E+02 -0.12223486636E+03 -0.29934794784E+03  0.33210707316E+03  0.00000000000E+00 0.  1.
<mgrwt>
<rscale>  0 0.18112280E+04</rscale>
<asrwt>0</asrwt>
<pdfrwt beam="1">  1        2 0.31101851E+00 0.18112280E+04</pdfrwt>
<pdfrwt beam="2">  1       -1 0.62412751E-01 0.18112280E+04</pdfrwt>
<totfact> 0.18176390E+01</totfact>
</mgrwt>
</event>
<event>
11    6  0.1663299E-008  0.1813343E+04  0.7818608E-02  0.8699236E-01
         -1   -1    0    0    0  501 -0.00000000000E+00  0.00000000000E+00  0.72317709432E+03  0.72317709432E+03  0.00000000000E+00 0.  1.
          2   -1    0    0  501    0  0.00000000000E+00 -0.00000000000E+00 -0.11367240357E+04  0.11367240357E+04  0.00000000000E+00 0. -1.
         24    2    1    2    0    0 -0.48854440159E+03  0.68315588637E+02 -0.63560996978E+03  0.80846538177E+03  0.79205983771E+02 0.  0.
        254    2    1    2    0    0  0.48854440159E+03 -0.68315588637E+02  0.22206302842E+03  0.10514357482E+04  0.90158887087E+03 0.  0.
         23    2    4    4    0    0 -0.18621686393E+02  0.30003435077E+03  0.23319855298E+03  0.39128056330E+03  0.91386734578E+02 0.  0.
          4    1    3    3  502    0 -0.49103549963E+03  0.65430528613E+02 -0.62722578955E+03  0.79925540789E+03  0.00000000000E+00 0. -1.
         -3    1    3    3    0  502  0.24910980358E+01  0.28850600233E+01 -0.83841802283E+01  0.92099738796E+01  0.00000000000E+00 0.  1.
         11    1    4    4    0    0  0.16616367324E+03 -0.72549086567E+02 -0.89149164137E+02  0.20204284133E+03  0.00000000000E+00 0.  1.
        -11    1    4    4    0    0  0.34100241474E+03 -0.29580085284E+03  0.78013639574E+02  0.45811234360E+03  0.00000000000E+00 0. -1.
          1    1    5    5  503    0 -0.17709800070E+02  0.27933561194E+03  0.17646092042E+03  0.33087834252E+03  0.00000000000E+00 0. -1.
         -1    1    5    5    0  503 -0.91188632357E+00  0.20698738829E+02  0.56737632561E+02  0.60402220774E+02  0.00000000000E+00 0.  1.
<mgrwt>
<rscale>  0 0.18133425E+04</rscale>
<asrwt>0</asrwt>
<pdfrwt beam="1">  1        2 0.17488062E+00 0.18133425E+04</pdfrwt>
<pdfrwt beam="2">  1       -1 0.11125801E+00 0.18133425E+04</pdfrwt>
<totfact> 0.16527514E+01</totfact>
</mgrwt>
</event>
<event>
12    6  0.1663299E-008  0.1656481E+04  0.7818608E-02  0.8786581E-01
          2   -1    0    0  501    0  0.00000000000E+00  0.00000000000E+00  0.41585904385E+04  0.41585904385E+04  0.00000000000E+00 0. -1.
         -1   -1    0    0    0  501 -0.00000000000E+00 -0.00000000000E+00 -0.16495556228E+03  0.16495556228E+03  0.00000000000E+00 0.  1.
         24    2    1    2    0    0  0.19341541543E+03  0.23977854539E+03  0.13157958863E+03  0.34445668276E+03  0.80211871942E+02 0.  0.
        254    2    1    2    0    0 -0.19341541543E+03 -0.23977854539E+03  0.38620552876E+04  0.39790893181E+04  0.90707082554E+03 0.  0.
         23    2    4    4    0    0 -0.42020200443E+03 -0.26830349675E+03  0.11903126437E+04  0.12959500927E+04  0.11868429580E+03 0.  0.
         23    2    4    4    0    0  0.22678658900E+03  0.28524951354E+02  0.26717426439E+04  0.26831392253E+04  0.93709751636E+02 0.  0.
          2    1    3    3  502    0  0.15334660253E+03  0.23071009752E+03  0.11889946604E+03  0.30146212470E+03  0.00000000000E+00 0. -1.
         -1    1    3    3    0  502  0.40068812902E+02  0.90684478728E+01  0.12680122593E+02  0.42994558065E+02  0.00000000000E+00 0.  1.
         11    1    5    5    0    0 -0.57318262579E+02  0.50891386520E+01  0.15471059246E+03  0.16506559295E+03  0.00000000000E+00 0. -1.
        -11    1    5    5    0    0 -0.36288374185E+03 -0.27339263540E+03  0.10356020513E+04  0.11308844998E+04  0.00000000000E+00 0.  1.
          4    1    6    6  503    0  0.23301212923E+03  0.20977891522E+02  0.26237231331E+04  0.26341332167E+04  0.00000000000E+00 0.  1.
         -4    1    6    6    0  503 -0.62255402270E+01  0.75470598319E+01  0.48019510801E+02  0.49006008619E+02  0.00000000000E+00 0. -1.
<mgrwt>
<rscale>  0 0.16564814E+04</rscale>
<asrwt>0</asrwt>
<pdfrwt beam="1">  1        2 0.63978307E+00 0.16564814E+04</pdfrwt>
<pdfrwt beam="2">  1       -1 0.25377782E-01 0.16564814E+04</pdfrwt>
<totfact> 0.38270827E+00</totfact>
</mgrwt>
</event>
<event>
11    6  0.1663299E-008  0.1752142E+04  0.7818608E-02  0.8732172E-01
         -1   -1    0    0    0  501 -0.00000000000E+00  0.00000000000E+00  0.44919600265E+03  0.44919600265E+03  0.00000000000E+00 0.  1.
          2   -1    0    0  501    0  0.00000000000E+00 -0.00000000000E+00 -0.17086100023E+04  0.17086100023E+04  0.00000000000E+00 0. -1.
         24    2    1    2    0    0 -0.59178526877E+03 -0.11313632567E+03 -0.72125014076E+03  0.94310853333E+03  0.79008275303E+02 0.  0.
        254    2    1    2    0    0  0.59178526877E+03  0.11313632567E+03 -0.53816385884E+03  0.12146974716E+04  0.90711629683E+03 0.  0.
         23    2    4    4    0    0  0.70843933848E+03  0.15740009321E+03 -0.16298554658E+03  0.74936681042E+03  0.91242766886E+02 0.  0.
          2    1    3    3  502    0 -0.19490972418E+03 -0.20811310513E+02 -0.28770111415E+03  0.34813049609E+03  0.00000000000E+00 0. -1.
         -1    1    3    3    0  502 -0.39687554459E+03 -0.92325015160E+02 -0.43354902661E+03  0.59497803723E+03  0.00000000000E+00 0.  1.
         11    1    4    4    0    0 -0.19349094150E+03 -0.22105246277E+02 -0.25225668418E+03  0.31868608546E+03  0.00000000000E+00 0. -1.
        -11    1    4    4    0    0  0.76836871784E+02 -0.22158521261E+02 -0.12292162808E+03  0.14664457569E+03  0.00000000000E+00 0.  1.
          2    1    5    5  503    0  0.24878520362E+03  0.41887621323E+02 -0.14492736825E+02  0.25270276963E+03  0.00000000000E+00 0.  1.
         -2    1    5    5    0  503  0.45965413487E+03  0.11551247189E+03 -0.14849280976E+03  0.49666404079E+03  0.00000000000E+00 0. -1.
<mgrwt>
<rscale>  0 0.17521424E+04</rscale>
<asrwt>0</asrwt>
<pdfrwt beam="1">  1        2 0.26286307E+00 0.17521424E+04</pdfrwt>
<pdfrwt beam="2">  1       -1 0.69107078E-01 0.17521424E+04</pdfrwt>
<totfact> 0.22179110E+01</totfact>
</mgrwt>
</event>
<event>
12    6  0.1663299E-008  0.1334893E+04  0.7818608E-02  0.9002343E-01
         -1   -1    0    0    0  501 -0.00000000000E+00  0.00000000000E+00  0.58417735021E+03  0.58417735021E+03  0.00000000000E+00 0.  1.
          2   -1    0    0  501    0  0.00000000000E+00 -0.00000000000E+00 -0.76258487926E+03  0.76258487926E+03  0.00000000000E+00 0. -1.
         24    2    1    2    0    0  0.30202242351E+02 -0.13354236450E+03 -0.38184690394E+03  0.41337355101E+03  0.79529215151E+02 0.  0.
        254    2    1    2    0    0 -0.30202242351E+02  0.13354236450E+03  0.20343937489E+03  0.93338867846E+03  0.90060041487E+03 0.  0.
         23    2    4    4    0    0  0.16136144984E+03 -0.21928294926E+03  0.38962508774E+03  0.48131976292E+03  0.75752728342E+02 0.  0.
         23    2    4    4    0    0 -0.19156369219E+03  0.35282531376E+03 -0.18618571285E+03  0.45206891554E+03  0.92297532672E+02 0.  0.
          2    1    3    3  502    0  0.21946782554E+02 -0.13846884182E+03 -0.37774284023E+03  0.40292050675E+03  0.00000000000E+00 0. -1.
         -1    1    3    3    0  502  0.82554597968E+01  0.49264773174E+01 -0.41040637158E+01  0.10453044255E+02  0.00000000000E+00 0.  1.
         11    1    5    5    0    0  0.79085748887E+02 -0.81156348188E+02  0.10531619760E+03  0.15470103428E+03  0.00000000000E+00 0.  1.
        -11    1    5    5    0    0  0.82275700949E+02 -0.13812660107E+03  0.28430889014E+03  0.32661872864E+03  0.00000000000E+00 0. -1.
          1    1    6    6  503    0 -0.19245917061E+03  0.28375421574E+03 -0.15581929622E+03  0.37661205554E+03  0.00000000000E+00 0. -1.
         -1    1    6    6    0  503  0.89547841916E+00  0.69071098019E+02 -0.30366416621E+02  0.75456860004E+02  0.00000000000E+00 0.  1.
<mgrwt>
<rscale>  0 0.13348930E+04</rscale>
<asrwt>0</asrwt>
<pdfrwt beam="1">  1        2 0.11732075E+00 0.13348930E+04</pdfrwt>
<pdfrwt beam="2">  1       -1 0.89873439E-01 0.13348930E+04</pdfrwt>
<totfact> 0.49669021E+01</totfact>
</mgrwt>
</event>
<event>
12    6  0.1896457E-008  0.1534226E+04  0.7818608E-02  0.8862007E-01
          2   -1    0    0  501    0  0.00000000000E+00  0.00000000000E+00  0.19689471589E+04  0.19689471589E+04  0.00000000000E+00 0. -1.
         -1   -1    0    0    0  501 -0.00000000000E+00 -0.00000000000E+00 -0.29887168721E+03  0.29887168721E+03  0.00000000000E+00 0.  1.
         24    2    1    2    0    0  0.77407722793E+02 -0.42133004066E+03  0.19168862409E+03  0.47825688537E+03  0.92055206742E+02 0.  0.
        254    2    1    2    0    0 -0.77407722793E+02  0.42133004066E+03  0.14783868476E+04  0.17895619608E+04  0.91290381830E+03 0.  0.
         23    2    4    4    0    0  0.10054675447E+03  0.49221249211E+03  0.14908308867E+04  0.15751457092E+04  0.78259090694E+02 0.  0.
         23    2    4    4    0    0 -0.17795447727E+03 -0.70882451452E+02 -0.12444039037E+02  0.21441625159E+03  0.95537201839E+02 0.  0.
          4    1    3    3  502    0  0.12925269442E+02 -0.10013919660E+02 -0.59352660037E+01  0.17394497970E+02  0.00000000000E+00 0. -1.
         -3    1    3    3    0  502  0.64482453351E+02 -0.41131612100E+03  0.19762389009E+03  0.46086238740E+03  0.00000000000E+00 0.  1.
         11    1    5    5    0    0  0.41305141782E+02  0.29235184070E+03  0.97703703615E+03  0.10206748177E+04  0.00000000000E+00 0.  1.
        -11    1    5    5    0    0  0.59241612691E+02  0.19986065141E+03  0.51379385053E+03  0.55447089148E+03  0.00000000000E+00 0. -1.
          4    1    6    6  503    0  0.10579805822E+02 -0.61439825538E+01  0.70591976240E+01  0.14124910051E+02  0.00000000000E+00 0. -1.
         -4    1    6    6    0  503 -0.18853428309E+03 -0.64738468898E+02 -0.19503236661E+02  0.20029134154E+03  0.00000000000E+00 0.  1.
<mgrwt>
<rscale>  0 0.15342263E+04</rscale>
<asrwt>0</asrwt>
<pdfrwt beam="1">  1        2 0.30291494E+00 0.15342263E+04</pdfrwt>
<pdfrwt beam="2">  1       -1 0.45980261E-01 0.15342263E+04</pdfrwt>
<totfact> 0.35906456E+01</totfact>
</mgrwt>
</event>
<event>
11    6  0.1663299E-008  0.4518853E+04  0.7818608E-02  0.7907345E-01
         -1   -1    0    0    0  501 -0.00000000000E+00  0.00000000000E+00  0.18071179598E+04  0.18071179598E+04  0.00000000000E+00 0.  1.
          2   -1    0    0  501    0  0.00000000000E+00 -0.00000000000E+00 -0.28249440410E+04  0.28249440410E+04  0.00000000000E+00 0. -1.
         24    2    1    2    0    0 -0.12684088072E+04  0.78012612109E+03  0.11273472138E+04  0.18694394313E+04  0.80214586593E+02 0.  0.
        254    2    1    2    0    0  0.12684088072E+04 -0.78012612109E+03 -0.21451732949E+04  0.27626225695E+04  0.90158600762E+03 0.  0.
         23    2    4    4    0    0  0.63385685773E+02 -0.44497396043E+03 -0.38687359296E+03  0.59982361634E+03  0.89986794381E+02 0.  0.
          4    1    3    3  502    0 -0.90341097597E+02  0.38781603812E+02  0.57685003138E+02  0.11398721988E+03  0.00000000000E+00 0. -1.
         -3    1    3    3    0  502 -0.11780677096E+04  0.74134451728E+03  0.10696622106E+04  0.17554522114E+04  0.00000000000E+00 0.  1.
         11    1    4    4    0    0  0.12027135175E+03 -0.14632809277E+02 -0.10949388126E+03  0.16330409422E+03  0.00000000000E+00 0.  1.
        -11    1    4    4    0    0  0.10847517696E+04 -0.32051935138E+03 -0.16488058207E+04  0.19994948589E+04  0.00000000000E+00 0. -1.
          1    1    5    5  503    0  0.71141835304E+02 -0.25772914149E+03 -0.18991300262E+03  0.32795185571E+03  0.00000000000E+00 0. -1.
         -1    1    5    5    0  503 -0.77561495304E+01 -0.18724481894E+03 -0.19696059034E+03  0.27187176062E+03  0.00000000000E+00 0.  1.
<mgrwt>
<rscale>  0 0.45188526E+04</rscale>
<asrwt>0</asrwt>
<pdfrwt beam="1">  1        2 0.43460678E+00 0.45188526E+04</pdfrwt>
<pdfrwt beam="2">  1       -1 0.27801815E+00 0.45188526E+04</pdfrwt>
<totfact> 0.87996371E-02</totfact>
</mgrwt>
</event>
<event>
12    6  0.1663299E-008  0.1091854E+04  0.7818608E-02  0.9213168E-01
          2   -1    0    0  501    0  0.00000000000E+00  0.00000000000E+00  0.68474738330E+03  0.68474738330E+03  0.00000000000E+00 0. -1.
         -1   -1    0    0    0  501 -0.00000000000E+00 -0.00000000000E+00 -0.43524963997E+03  0.43524963997E+03  0.00000000000E+00 0.  1.
         24    2    1    2    0    0 -0.37906419300E+02  0.45183199101E+02  0.19365307398E+03  0.21704418660E+03  0.78283125728E+02 0.  0.
        254    2    1    2    0    0  0.37906419300E+02 -0.45183199101E+02  0.55844669355E+02  0.90295283667E+03  0.89929237740E+03 0.  0.
         23    2    4    4    0    0 -0.14985947659E+03  0.38158918866E+03  0.44739617037E+02  0.42799805748E+03  0.11450996570E+03 0.  0.
         23    2    4    4    0    0  0.18776589589E+03 -0.42677238776E+03  0.11105052318E+02  0.47495477919E+03  0.89822143533E+02 0.  0.
          2    1    3    3  502    0 -0.52551762856E+02  0.46675329152E+02  0.18893493080E+03  0.20158542162E+03  0.00000000000E+00 0. -1.
         -1    1    3    3    0  502  0.14645343556E+02 -0.14921300508E+01  0.47181431717E+01  0.15458764988E+02  0.00000000000E+00 0.  1.
         11    1    5    5    0    0 -0.31321218077E+02  0.20813747489E+03  0.55368651833E+02  0.21764171190E+03  0.00000000000E+00 0. -1.
        -11    1    5    5    0    0 -0.11853825851E+03  0.17345171378E+03 -0.10629034796E+02  0.21035634558E+03  0.00000000000E+00 0.  1.
          3    1    6    6  503    0  0.75447381940E+02 -0.27995510051E+03  0.42576964274E+01  0.28997464324E+03  0.00000000000E+00 0. -1.
         -3    1    6    6    0  503  0.11231851395E+03 -0.14681728725E+03  0.68473558909E+01  0.18498013595E+03  0.00000000000E+00 0.  1.
<mgrwt>
<rscale>  0 0.10918536E+04</rscale>
<asrwt>0</asrwt>
<pdfrwt beam="1">  1        2 0.10534575E+00 0.10918536E+04</pdfrwt>
<pdfrwt beam="2">  1       -1 0.66961484E-01 0.10918536E+04</pdfrwt>
<totfact> 0.10802995E+02</totfact>
</mgrwt>
</event>
<event>
11    6  0.1663299E-008  0.1406927E+04  0.7818608E-02  0.8948820E-01
         -1   -1    0    0    0  501 -0.00000000000E+00  0.00000000000E+00  0.20421564976E+04  0.20421564976E+04  0.00000000000E+00 0.  1.
          2   -1    0    0  501    0  0.00000000000E+00 -0.00000000000E+00 -0.24232261496E+03  0.24232261496E+03  0.00000000000E+00 0. -1.
         24    2    1    2    0    0 -0.30762053700E+03 -0.41694456993E+02  0.11360174519E+03  0.33964860629E+03  0.78019207343E+02 0.  0.
        254    2    1    2    0    0  0.30762053700E+03  0.41694456993E+02  0.16862321374E+04  0.19448305062E+04  0.91794229351E+03 0.  0.
         23    2    4    4    0    0 -0.24270337426E+03  0.12562080903E+03  0.10509354674E+04  0.10897002371E+04  0.91080923215E+02 0.  0.
          4    1    3    3  502    0 -0.17998300451E+03 -0.27039887161E+02  0.10672995061E+03  0.21098890911E+03  0.00000000000E+00 0. -1.
         -3    1    3    3    0  502 -0.12763753249E+03 -0.14654569832E+02  0.68717945824E+01  0.12865969718E+03  0.00000000000E+00 0.  1.
         11    1    4    4    0    0  0.14886167623E+03  0.36251536164E+02  0.17813950659E+03  0.23496309568E+03  0.00000000000E+00 0.  1.
        -11    1    4    4    0    0  0.40146223502E+03 -0.12017788820E+03  0.45715716345E+03  0.62016717348E+03  0.00000000000E+00 0. -1.
          1    1    5    5  503    0 -0.88052473358E+02  0.94125993257E+02  0.42054996274E+03  0.43985817240E+03  0.00000000000E+00 0. -1.
         -1    1    5    5    0  503 -0.15465090090E+03  0.31494815768E+02  0.63038550464E+03  0.64984206468E+03  0.00000000000E+00 0.  1.
<mgrwt>
<rscale>  0 0.14069267E+04</rscale>
<asrwt>0</asrwt>
<pdfrwt beam="1">  1        2 0.37280404E-01 0.14069267E+04</pdfrwt>
<pdfrwt beam="2">  1       -1 0.31417791E+00 0.14069267E+04</pdfrwt>
<totfact> 0.41686426E+00</totfact>
</mgrwt>
</event>
<event>
12    6  0.1663299E-008  0.3298575E+04  0.7818608E-02  0.8163258E-01
         -1   -1    0    0    0  501 -0.00000000000E+00  0.00000000000E+00  0.10882343416E+04  0.10882343416E+04  0.00000000000E+00 0.  1.
          2   -1    0    0  501    0  0.00000000000E+00 -0.00000000000E+00 -0.24995982025E+04  0.24995982025E+04  0.00000000000E+00 0. -1.
         24    2    1    2    0    0  0.12211197856E+04 -0.41895406971E+03  0.23085002323E+03  0.13136969704E+04  0.76498061538E+02 0.  0.
        254    2    1    2    0    0 -0.12211197856E+04  0.41895406971E+03 -0.16422138842E+04  0.22741355738E+04  0.89898282702E+03 0.  0.
         23    2    4    4    0    0 -0.39606286502E+03  0.59096823482E+03 -0.85258731370E+03  0.11159756164E+04  0.11129780410E+03 0.  0.
         23    2    4    4    0    0 -0.82505692058E+03 -0.17201416511E+03 -0.78962657046E+03  0.11581599574E+04  0.86698160355E+02 0.  0.
          4    1    3    3  502    0  0.63239770916E+03 -0.19830436742E+03  0.15291151110E+03  0.68017160697E+03  0.00000000000E+00 0. -1.
         -3    1    3    3    0  502  0.58872207643E+03 -0.22064970229E+03  0.77938512137E+02  0.63352536340E+03  0.00000000000E+00 0.  1.
         11    1    5    5    0    0 -0.38995289690E+03  0.58868065131E+03 -0.85511674426E+03  0.11089782763E+04  0.00000000000E+00 0.  1.
        -11    1    5    5    0    0 -0.61099681186E+01  0.22875835082E+01  0.25294305528E+01  0.69973400402E+01  0.00000000000E+00 0. -1.
          4    1    6    6  503    0 -0.60044776763E+03 -0.10251868186E+03 -0.52484864929E+03  0.80406076041E+03  0.00000000000E+00 0.  1.
         -4    1    6    6    0  503 -0.22460915295E+03 -0.69495483248E+02 -0.26477792118E+03  0.35409919701E+03  0.00000000000E+00 0. -1.
<mgrwt>
<rscale>  0 0.32985746E+04</rscale>
<asrwt>0</asrwt>
<pdfrwt beam="1">  1        2 0.38455357E+00 0.32985746E+04</pdfrwt>
<pdfrwt beam="2">  1       -1 0.16742067E+00 0.32985746E+04</pdfrwt>
<totfact> 0.84988448E-01</totfact>
</mgrwt>
</event>
<event>
11    6  0.1663299E-008  0.1826331E+04  0.7818608E-02  0.8692421E-01
         -1   -1    0    0    0  501 -0.00000000000E+00  0.00000000000E+00  0.41228151520E+03  0.41228151520E+03  0.00000000000E+00 0.  1.
          2   -1    0    0  501    0  0.00000000000E+00 -0.00000000000E+00 -0.20225766228E+04  0.20225766228E+04  0.00000000000E+00 0. -1.
         24    2    1    2    0    0  0.26538127475E+03  0.13749521114E+03 -0.14574283174E+04  0.14899361194E+04  0.80499598613E+02 0.  0.
        254    2    1    2    0    0 -0.26538127475E+03 -0.13749521114E+03 -0.15286679015E+03  0.94492201859E+03  0.88327640725E+03 0.  0.
         23    2    4    4    0    0 -0.43824695609E+02  0.34364167143E+03  0.12693643229E+02  0.35824182951E+03  0.90365245206E+02 0.  0.
          4    1    3    3  502    0  0.11167399503E+03  0.55739380183E+02 -0.80772190009E+03  0.81730815948E+03  0.00000000000E+00 0. -1.
         -3    1    3    3    0  502  0.15370727972E+03  0.81755830957E+02 -0.64970641735E+03  0.67262795993E+03  0.00000000000E+00 0.  1.
         11    1    4    4    0    0 -0.15634457570E+03 -0.44760286431E+03 -0.18793858757E+03  0.51001261081E+03  0.00000000000E+00 0. -1.
        -11    1    4    4    0    0 -0.65212003435E+02 -0.33534018262E+02  0.22378154195E+02  0.76667578271E+02  0.00000000000E+00 0.  1.
          1    1    5    5  503    0 -0.71691496186E+02  0.26441358497E+03  0.66983983522E+01  0.27404211918E+03  0.00000000000E+00 0. -1.
         -1    1    5    5    0  503  0.27866800577E+02  0.79228086455E+02  0.59952448765E+01  0.84199710325E+02  0.00000000000E+00 0.  1.
<mgrwt>
<rscale>  0 0.18263307E+04</rscale>
<asrwt>0</asrwt>
<pdfrwt beam="1">  1        2 0.31116563E+00 0.18263307E+04</pdfrwt>
<pdfrwt beam="2">  1       -1 0.63427925E-01 0.18263307E+04</pdfrwt>
<totfact> 0.17554648E+01</totfact>
</mgrwt>
</event>
<event>
11    6  0.1663299E-008  0.2236243E+04  0.7818608E-02  0.8503493E-01
          2   -1    0    0  501    0  0.00000000000E+00  0.00000000000E+00  0.10408967482E+04  0.10408967482E+04  0.00000000000E+00 0. -1.
         -3   -1    0    0    0  501 -0.00000000000E+00 -0.00000000000E+00 -0.12010759171E+04  0.12010759171E+04  0.00000000000E+00 0.  1.
         24    2    1    2    0    0 -0.39460244915E+03  0.35517557026E+03  0.68867326737E+03  0.87297535952E+03  0.77164308804E+02 0.  0.
        254    2    1    2    0    0  0.39460244915E+03 -0.35517557026E+03 -0.84885243627E+03  0.13689973057E+04  0.93367145499E+03 0.  0.
         23    2    4    4    0    0  0.55207537754E+03  0.10099695383E+03 -0.49916347888E+03  0.75665922422E+03  0.91549963343E+02 0.  0.
          2    1    3    3  502    0 -0.15262952674E+03  0.93047581322E+02  0.25531890468E+03  0.31167509992E+03  0.00000000000E+00 0. -1.
         -1    1    3    3    0  502 -0.24197292241E+03  0.26212798894E+03  0.43335436269E+03  0.56130025960E+03  0.00000000000E+00 0.  1.
         11    1    4    4    0    0 -0.17920262240E+03 -0.42858766346E+03 -0.30593261302E+03  0.55623352007E+03  0.00000000000E+00 0. -1.
        -11    1    4    4    0    0  0.21729694008E+02 -0.27584860631E+02 -0.43756344369E+02  0.56104561403E+02  0.00000000000E+00 0.  1.
          4    1    5    5  503    0  0.49169874405E+03  0.94299183709E+02 -0.47835412425E+03  0.69244686376E+03  0.00000000000E+00 0. -1.
         -4    1    5    5    0  503  0.60376633483E+02  0.66977701217E+01 -0.20809354631E+02  0.64212360457E+02  0.00000000000E+00 0.  1.
<mgrwt>
<rscale>  0 0.22362433E+04</rscale>
<asrwt>0</asrwt>
<pdfrwt beam="1">  1        2 0.16013796E+00 0.22362433E+04</pdfrwt>
<pdfrwt beam="2">  1       -3 0.18478091E+00 0.22362433E+04</pdfrwt>
<totfact> 0.25024535E+00</totfact>
</mgrwt>
</event>
<event>
11    6  0.1663299E-008  0.1928062E+04  0.7818608E-02  0.8641013E-01
          2   -1    0    0  501    0  0.00000000000E+00  0.00000000000E+00  0.96083826239E+03  0.96083826239E+03  0.00000000000E+00 0. -1.
         -1   -1    0    0    0  501 -0.00000000000E+00 -0.00000000000E+00 -0.96723408843E+03  0.96723408843E+03  0.00000000000E+00 0.  1.
         24    2    1    2    0    0 -0.94954536604E+02  0.13042715609E+03 -0.74889294189E+03  0.77084127883E+03  0.85603923235E+02 0.  0.
        254    2    1    2    0    0  0.94954536604E+02 -0.13042715609E+03  0.74249711585E+03  0.11572310720E+04  0.87284258595E+03 0.  0.
         23    2    4    4    0    0  0.18822617956E+03 -0.17188611177E+03 -0.10256101960E+03  0.28918721632E+03  0.90202845020E+02 0.  0.
          4    1    3    3  502    0 -0.82874634273E+02  0.12884898394E+03 -0.53234109150E+03  0.55394702216E+03  0.00000000000E+00 0. -1.
         -3    1    3    3    0  502 -0.12079902330E+02  0.15781721542E+01 -0.21655185039E+03  0.21689425667E+03  0.00000000000E+00 0.  1.
         11    1    4    4    0    0 -0.70177014577E+02  0.12448920235E+02  0.10411450939E+03  0.12617297672E+03  0.00000000000E+00 0. -1.
        -11    1    4    4    0    0 -0.23094628375E+02  0.29010035444E+02  0.74094362607E+03  0.74187087894E+03  0.00000000000E+00 0.  1.
          4    1    5    5  503    0  0.16800312289E+03 -0.12077664335E+03 -0.10896721271E+03  0.23385016640E+03  0.00000000000E+00 0.  1.
         -4    1    5    5    0  503  0.20223056669E+02 -0.51109468429E+02  0.64061931083E+01  0.55337049924E+02  0.00000000000E+00 0. -1.
<mgrwt>
<rscale>  0 0.19280617E+04</rscale>
<asrwt>0</asrwt>
<pdfrwt beam="1">  1        2 0.14782127E+00 0.19280617E+04</pdfrwt>
<pdfrwt beam="2">  1       -1 0.14880524E+00 0.19280617E+04</pdfrwt>
<totfact> 0.10151496E+01</totfact>
</mgrwt>
</event>
<event>
11    6  0.1663299E-008  0.1355693E+04  0.7818608E-02  0.8986530E-01
         -1   -1    0    0    0  501 -0.00000000000E+00  0.00000000000E+00  0.19919657206E+03  0.19919657206E+03  0.00000000000E+00 0.  1.
          2   -1    0    0  501    0  0.00000000000E+00 -0.00000000000E+00 -0.23066456088E+04  0.23066456088E+04  0.00000000000E+00 0. -1.
         24    2    1    2    0    0  0.10217374580E+03 -0.14609503705E+03 -0.89388535306E+03  0.91500421069E+03  0.80115210726E+02 0.  0.
        254    2    1    2    0    0 -0.10217374580E+03  0.14609503705E+03 -0.12135636837E+04  0.15908379702E+04  0.10130377085E+04 0.  0.
         23    2    4    4    0    0 -0.18602488096E+03 -0.12786797041E+03  0.79678282370E+02  0.25895231474E+03  0.98753219876E+02 0.  0.
          2    1    3    3  502    0  0.58359598580E+02 -0.80014378212E+02 -0.67448691800E+03  0.68171896411E+03  0.00000000000E+00 0. -1.
         -1    1    3    3    0  502  0.43814147218E+02 -0.66080658837E+02 -0.21939843506E+03  0.23328524659E+03  0.00000000000E+00 0.  1.
         11    1    4    4    0    0  0.24816106842E+02  0.53130399019E+02 -0.92082969989E+02  0.10916937217E+03  0.00000000000E+00 0. -1.
        -11    1    4    4    0    0  0.59035028323E+02  0.22083260844E+03 -0.12011589961E+04  0.12227162833E+04  0.00000000000E+00 0.  1.
          4    1    5    5  503    0 -0.16879063165E+03 -0.94376015434E+02  0.28598127537E+02  0.19548647657E+03  0.00000000000E+00 0.  1.
         -4    1    5    5    0  503 -0.17234249310E+02 -0.33491954976E+02  0.51080154833E+02  0.63465838174E+02  0.00000000000E+00 0. -1.
<mgrwt>
<rscale>  0 0.13556930E+04</rscale>
<asrwt>0</asrwt>
<pdfrwt beam="1">  1        2 0.35486857E+00 0.13556930E+04</pdfrwt>
<pdfrwt beam="2">  1       -1 0.30645625E-01 0.13556930E+04</pdfrwt>
<totfact> 0.49247531E+01</totfact>
</mgrwt>
</event>
<event>
11    6  0.1663299E-008  0.1474330E+04  0.7818608E-02  0.8901705E-01
          2   -1    0    0  501    0  0.00000000000E+00  0.00000000000E+00  0.78845402927E+03  0.78845402927E+03  0.00000000000E+00 0. -1.
         -1   -1    0    0    0  501 -0.00000000000E+00 -0.00000000000E+00 -0.68921269946E+03  0.68921269946E+03  0.00000000000E+00 0.  1.
         24    2    1    2    0    0  0.36958383141E+03  0.22305315045E+03  0.18626959934E+03  0.47795959731E+03  0.86047060692E+02 0.  0.
        254    2    1    2    0    0 -0.36958383141E+03 -0.22305315045E+03 -0.87028269536E+02  0.99970713142E+03  0.89749401811E+03 0.  0.
         23    2    4    4    0    0 -0.41462190677E+03 -0.40495932815E+03 -0.31691243371E+03  0.66795772216E+03  0.99149608792E+02 0.  0.
          2    1    3    3  502    0  0.34873986724E+03  0.21153524760E+03  0.15003556806E+03  0.43460019289E+03  0.00000000000E+00 0. -1.
         -1    1    3    3    0  502  0.20843964172E+02  0.11517902849E+02  0.36234031278E+02  0.43359404414E+02  0.00000000000E+00 0.  1.
         11    1    4    4    0    0 -0.35273960191E+02  0.73364959109E+01  0.81037786284E+02  0.88685958559E+02  0.00000000000E+00 0.  1.
        -11    1    4    4    0    0  0.80312035545E+02  0.17456968179E+03  0.14884637789E+03  0.24306345070E+03  0.00000000000E+00 0. -1.
          3    1    5    5  503    0 -0.38984999825E+03 -0.35768739090E+03 -0.31233819864E+03  0.61439274172E+03  0.00000000000E+00 0. -1.
         -3    1    5    5    0  503 -0.24771908513E+02 -0.47271937255E+02 -0.45742350694E+01  0.53564980441E+02  0.00000000000E+00 0.  1.
<mgrwt>
<rscale>  0 0.14743304E+04</rscale>
<asrwt>0</asrwt>
<pdfrwt beam="1">  1        2 0.12130062E+00 0.14743304E+04</pdfrwt>
<pdfrwt beam="2">  1       -1 0.10603272E+00 0.14743304E+04</pdfrwt>
<totfact> 0.32310624E+01</totfact>
</mgrwt>
</event>
<event>
12    6  0.1663299E-008  0.2766502E+04  0.7818608E-02  0.8313744E-01
          2   -1    0    0  501    0  0.00000000000E+00  0.00000000000E+00  0.13250165721E+04  0.13250165721E+04  0.00000000000E+00 0. -1.
         -1   -1    0    0    0  501 -0.00000000000E+00 -0.00000000000E+00 -0.14440448835E+04  0.14440448835E+04  0.00000000000E+00 0.  1.
         24    2    1    2    0    0 -0.21529075950E+03 -0.58204824178E+03  0.10140206328E+04  0.11915347293E+04  0.79918086024E+02 0.  0.
        254    2    1    2    0    0  0.21529075950E+03  0.58204824178E+03 -0.11330489442E+04  0.15775267264E+04  0.90535097929E+03 0.  0.
         23    2    4    4    0    0 -0.21779845556E+03  0.50948269863E+03 -0.92645651487E+03  0.10853491004E+04  0.11248203575E+03 0.  0.
         23    2    4    4    0    0  0.43308921506E+03  0.72565543146E+02 -0.20659242930E+03  0.49217762598E+03  0.82014373229E+02 0.  0.
          4    1    3    3  502    0 -0.17702072277E+03 -0.45070644059E+03  0.84694014203E+03  0.97559224888E+03  0.00000000000E+00 0. -1.
         -3    1    3    3    0  502 -0.38270036736E+02 -0.13134180119E+03  0.16708049072E+03  0.21594248038E+03  0.00000000000E+00 0.  1.
         11    1    5    5    0    0 -0.14893698749E+03  0.40297052833E+03 -0.62620454667E+03  0.75940740530E+03  0.00000000000E+00 0.  1.
        -11    1    5    5    0    0 -0.68861468060E+02  0.10651217030E+03 -0.30025196820E+03  0.32594169511E+03  0.00000000000E+00 0. -1.
          3    1    6    6  503    0  0.29258725116E+03  0.48891953841E+02 -0.95933268288E+02  0.31177061224E+03  0.00000000000E+00 0. -1.
         -3    1    6    6    0  503  0.14050196390E+03  0.23673589304E+02 -0.11065916101E+03  0.18040701374E+03  0.00000000000E+00 0.  1.
<mgrwt>
<rscale>  0 0.27665021E+04</rscale>
<asrwt>0</asrwt>
<pdfrwt beam="1">  1        2 0.20384870E+00 0.27665021E+04</pdfrwt>
<pdfrwt beam="2">  1       -1 0.22216075E+00 0.27665021E+04</pdfrwt>
<totfact> 0.16913963E+00</totfact>
</mgrwt>
</event>
<event>
12    6  0.1663299E-008  0.1884352E+04  0.7818608E-02  0.8662685E-01
          2   -1    0    0  501    0  0.00000000000E+00  0.00000000000E+00  0.16905990956E+04  0.16905990956E+04  0.00000000000E+00 0. -1.
         -1   -1    0    0    0  501 -0.00000000000E+00 -0.00000000000E+00 -0.52507726225E+03  0.52507726225E+03  0.00000000000E+00 0.  1.
         24    2    1    2    0    0 -0.18851572564E+03 -0.51052374578E+03 -0.11561038469E+03  0.56179450373E+03  0.77939909896E+02 0.  0.
        254    2    1    2    0    0  0.18851572564E+03  0.51052374578E+03  0.12811322180E+04  0.16538818541E+04  0.89322603717E+03 0.  0.
         23    2    4    4    0    0  0.29957506486E+03  0.83224681369E+02  0.42708475497E+02  0.33584456635E+03  0.11956584711E+03 0.  0.
         23    2    4    4    0    0 -0.11105933922E+03  0.42729906441E+03  0.12384237425E+04  0.13180372878E+04  0.92791479102E+02 0.  0.
          2    1    3    3  502    0 -0.13215523632E+02 -0.12935388371E+03 -0.21016834145E+02  0.13171478510E+03  0.00000000000E+00 0. -1.
         -1    1    3    3    0  502 -0.17530020201E+03 -0.38116986207E+03 -0.94593550545E+02  0.43007971863E+03  0.00000000000E+00 0.  1.
         11    1    5    5    0    0  0.66636612796E+02  0.71751006994E+02 -0.39540502617E+01  0.98001426944E+02  0.00000000000E+00 0. -1.
        -11    1    5    5    0    0  0.23293845206E+03  0.11473674375E+02  0.46662525759E+02  0.23784313941E+03  0.00000000000E+00 0.  1.
          1    1    6    6  503    0 -0.10283593178E+03  0.42097983957E+03  0.11488692073E+04  0.12278842411E+04  0.00000000000E+00 0.  1.
         -1    1    6    6    0  503 -0.82234074415E+01  0.63192248450E+01  0.89554535258E+02  0.90153046637E+02  0.00000000000E+00 0. -1.
<mgrwt>
<rscale>  0 0.18843515E+04</rscale>
<asrwt>0</asrwt>
<pdfrwt beam="1">  1        2 0.26009217E+00 0.18843515E+04</pdfrwt>
<pdfrwt beam="2">  1       -1 0.80781118E-01 0.18843515E+04</pdfrwt>
<totfact> 0.16197818E+01</totfact>
</mgrwt>
</event>
<event>
11    6  0.1663299E-008  0.1427141E+04  0.7818608E-02  0.8934404E-01
         -1   -1    0    0    0  501 -0.00000000000E+00  0.00000000000E+00  0.20175001908E+03  0.20175001908E+03  0.00000000000E+00 0.  1.
          2   -1    0    0  501    0  0.00000000000E+00 -0.00000000000E+00 -0.25238291859E+04  0.25238291859E+04  0.00000000000E+00 0. -1.
         24    2    1    2    0    0 -0.39507166542E+03  0.93848780618E+02 -0.94857195868E+03  0.10350590861E+04  0.81666006199E+02 0.  0.
        254    2    1    2    0    0  0.39507166542E+03 -0.93848780618E+02 -0.13735072081E+04  0.16905201188E+04  0.89802394563E+03 0.  0.
         23    2    4    4    0    0 -0.20346489386E+03 -0.16118109117E+03 -0.63980398842E+03  0.69649155975E+03  0.91509791932E+02 0.  0.
          4    1    3    3  502    0 -0.29976915544E+03  0.10020092110E+03 -0.67615255868E+03  0.74638063597E+03  0.00000000000E+00 0. -1.
         -3    1    3    3    0  502 -0.95302509986E+02 -0.63521404775E+01 -0.27241940000E+03  0.28867845017E+03  0.00000000000E+00 0.  1.
         11    1    4    4    0    0  0.42359283717E+03  0.78033129625E+02 -0.29623997199E+03  0.52276015726E+03  0.00000000000E+00 0.  1.
        -11    1    4    4    0    0  0.17494372212E+03 -0.10700819069E+02 -0.43746324773E+03  0.47126840182E+03  0.00000000000E+00 0. -1.
          1    1    5    5  503    0 -0.16843747936E+02 -0.40790881966E+02 -0.18727387312E+03  0.19240351205E+03  0.00000000000E+00 0. -1.
         -1    1    5    5    0  503 -0.18662114593E+03 -0.12039020921E+03 -0.45253011530E+03  0.50408804770E+03  0.00000000000E+00 0.  1.
<mgrwt>
<rscale>  0 0.14271406E+04</rscale>
<asrwt>0</asrwt>
<pdfrwt beam="1">  1        2 0.38828142E+00 0.14271406E+04</pdfrwt>
<pdfrwt beam="2">  1       -1 0.31038464E-01 0.14271406E+04</pdfrwt>
<totfact> 0.35979057E+01</totfact>
</mgrwt>
</event>
<event>
11    6  0.1663299E-008  0.1813860E+04  0.7818608E-02  0.8698964E-01
         -1   -1    0    0    0  501 -0.00000000000E+00  0.00000000000E+00  0.55363033779E+03  0.55363033779E+03  0.00000000000E+00 0.  1.
          2   -1    0    0  501    0  0.00000000000E+00 -0.00000000000E+00 -0.14856874455E+04  0.14856874455E+04  0.00000000000E+00 0. -1.
         24    2    1    2    0    0  0.46538670371E+03  0.44831838787E+03 -0.57316661233E+03  0.86732055936E+03  0.78427203877E+02 0.  0.
        254    2    1    2    0    0 -0.46538670371E+03 -0.44831838787E+03 -0.35889049536E+03  0.11719972239E+04  0.90950587920E+03 0.  0.
         23    2    4    4    0    0  0.72570047480E+02 -0.35220553592E+03 -0.15458485088E+03  0.40142899527E+03  0.89070819002E+02 0.  0.
          4    1    3    3  502    0  0.16391755381E+03  0.15697097225E+03 -0.25245101585E+03  0.33947071447E+03  0.00000000000E+00 0. -1.
         -3    1    3    3    0  502  0.30146914989E+03  0.29134741562E+03 -0.32071559648E+03  0.52784984489E+03  0.00000000000E+00 0.  1.
         11    1    4    4    0    0 -0.34754348322E+03  0.79248553046E+02  0.10080305008E+03  0.37044306012E+03  0.00000000000E+00 0. -1.
        -11    1    4    4    0    0 -0.19041326797E+03 -0.17536140500E+03 -0.30510869456E+03  0.40012516851E+03  0.00000000000E+00 0.  1.
          4    1    5    5  503    0  0.52213971946E+02 -0.33551167947E+03 -0.12500209305E+03  0.36182856327E+03  0.00000000000E+00 0. -1.
         -4    1    5    5    0  503  0.20356075534E+02 -0.16693856450E+02 -0.29582757825E+02  0.39600432003E+02  0.00000000000E+00 0.  1.
<mgrwt>
<rscale>  0 0.18138596E+04</rscale>
<asrwt>0</asrwt>
<pdfrwt beam="1">  1        2 0.22856730E+00 0.18138596E+04</pdfrwt>
<pdfrwt beam="2">  1       -1 0.85173899E-01 0.18138596E+04</pdfrwt>
<totfact> 0.18942201E+01</totfact>
</mgrwt>
</event>
<event>
12    6  0.1663299E-008  0.1007940E+04  0.7818608E-02  0.9299879E-01
         -1   -1    0    0    0  501 -0.00000000000E+00  0.00000000000E+00  0.11247046952E+03  0.11247046952E+03  0.00000000000E+00 0.  1.
          2   -1    0    0  501    0  0.00000000000E+00 -0.00000000000E+00 -0.22582424571E+04  0.22582424571E+04  0.00000000000E+00 0. -1.
         24    2    1    2    0    0  0.92888221744E+02 -0.71071713163E+02 -0.28893571855E+03  0.32177833948E+03  0.79862633044E+02 0.  0.
        254    2    1    2    0    0 -0.92888221744E+02  0.71071713163E+02 -0.18568362690E+04  0.20489345872E+04  0.85826138341E+03 0.  0.
         23    2    4    4    0    0 -0.74569821318E+01  0.43626150166E+03 -0.12442969245E+04  0.13247756348E+04  0.12796851953E+03 0.  0.
         23    2    4    4    0    0 -0.85431239612E+02 -0.36518978850E+03 -0.61253934457E+03  0.72415895232E+03  0.92410287593E+02 0.  0.
          2    1    3    3  502    0 -0.45157036925E+01  0.10903455776E+02 -0.46197692113E+02  0.47681271840E+02  0.00000000000E+00 0. -1.
         -1    1    3    3    0  502  0.97403925436E+02 -0.81975168939E+02 -0.24273802643E+03  0.27409706764E+03  0.00000000000E+00 0.  1.
         11    1    5    5    0    0 -0.93389496394E+01  0.29196667760E+03 -0.64042406272E+03  0.70389966395E+03  0.00000000000E+00 0.  1.
        -11    1    5    5    0    0  0.18819675077E+01  0.14429482406E+03 -0.60387286177E+03  0.62087597089E+03  0.00000000000E+00 0. -1.
          4    1    6    6  503    0  0.88644027010E+01 -0.89537639833E+01 -0.49170130404E+01  0.13524959961E+02  0.00000000000E+00 0. -1.
         -4    1    6    6    0  503 -0.94295642313E+02 -0.35623602451E+03 -0.60762233153E+03  0.71063399235E+03  0.00000000000E+00 0.  1.
<mgrwt>
<rscale>  0 0.10079397E+04</rscale>
<asrwt>0</asrwt>
<pdfrwt beam="1">  1        2 0.34742189E+00 0.10079397E+04</pdfrwt>
<pdfrwt beam="2">  1       -1 0.17303150E-01 0.10079397E+04</pdfrwt>
<totfact> 0.14272377E+02</totfact>
</mgrwt>
</event>
<event>
12    6  0.1663299E-008  0.1440471E+04  0.7818608E-02  0.8925034E-01
          2   -1    0    0  501    0  0.00000000000E+00  0.00000000000E+00  0.10471731219E+04  0.10471731219E+04  0.00000000000E+00 0. -1.
         -1   -1    0    0    0  501 -0.00000000000E+00 -0.00000000000E+00 -0.49537068635E+03  0.49537068635E+03  0.00000000000E+00 0.  1.
         24    2    1    2    0    0 -0.19223436547E+03  0.37839799316E+03  0.62840491847E+02  0.43727903464E+03  0.84409325487E+02 0.  0.
        254    2    1    2    0    0  0.19223436547E+03 -0.37839799316E+03  0.48896194367E+03  0.11052647736E+04  0.89576076317E+03 0.  0.
         23    2    4    4    0    0  0.17733318766E+03  0.25987503642E+03  0.24814124850E+03  0.41687702090E+03  0.11502294269E+03 0.  0.
         23    2    4    4    0    0  0.14901177811E+02 -0.63827302958E+03  0.24082069517E+03  0.68838775267E+03  0.90931762401E+02 0.  0.
          2    1    3    3  502    0  0.45691900717E+00  0.60621509665E+01  0.13923463753E+02  0.15192803961E+02  0.00000000000E+00 0. -1.
         -1    1    3    3    0  502 -0.19269128448E+03  0.37233584219E+03  0.48917028095E+02  0.42208623068E+03  0.00000000000E+00 0.  1.
         11    1    5    5    0    0  0.61235977958E+02  0.11942622480E+03  0.17496690431E+03  0.22051277915E+03  0.00000000000E+00 0. -1.
        -11    1    5    5    0    0  0.11609720970E+03  0.14044881163E+03  0.73174344184E+02  0.19636424174E+03  0.00000000000E+00 0.  1.
          3    1    6    6  503    0  0.11887172905E+02 -0.56372152716E+02 -0.24763017086E+01  0.57665037515E+02  0.00000000000E+00 0. -1.
         -3    1    6    6    0  503  0.30140049066E+01 -0.58190087687E+03  0.24329699688E+03  0.63072271516E+03  0.00000000000E+00 0.  1.
<mgrwt>
<rscale>  0 0.14404706E+04</rscale>
<asrwt>0</asrwt>
<pdfrwt beam="1">  1        2 0.16110356E+00 0.14404706E+04</pdfrwt>
<pdfrwt beam="2">  1       -1 0.76210875E-01 0.14404706E+04</pdfrwt>
<totfact> 0.44991994E+01</totfact>
</mgrwt>
</event>
<event>
11    6  0.1663299E-008  0.2796944E+04  0.7818608E-02  0.8304218E-01
          2   -1    0    0  501    0  0.00000000000E+00  0.00000000000E+00  0.20027359945E+04  0.20027359945E+04  0.00000000000E+00 0. -1.
         -1   -1    0    0    0  501 -0.00000000000E+00 -0.00000000000E+00 -0.97652584024E+03  0.97652584024E+03  0.00000000000E+00 0.  1.
         24    2    1    2    0    0  0.33858914621E+03  0.11461604834E+04  0.86942267878E+02  0.12007449445E+04  0.76830983852E+02 0.  0.
        254    2    1    2    0    0 -0.33858914621E+03 -0.11461604834E+04  0.93926788638E+03  0.17785168903E+04  0.92334809413E+03 0.  0.
         23    2    4    4    0    0 -0.23281926745E+03 -0.35086346392E+03  0.17124559920E+03  0.46183030556E+03  0.81560984988E+02 0.  0.
          4    1    3    3  502    0  0.67151268540E+01  0.90621637964E+02  0.23060403573E+00  0.90870387774E+02  0.00000000000E+00 0. -1.
         -3    1    3    3    0  502  0.33187401936E+03  0.10555388454E+04  0.86711663843E+02  0.11098745567E+04  0.00000000000E+00 0.  1.
         11    1    4    4    0    0 -0.40226618480E+03 -0.56682138487E+03  0.50844779865E+03  0.86117578330E+03  0.00000000000E+00 0.  1.
        -11    1    4    4    0    0  0.29649630605E+03 -0.22847563461E+03  0.25957448853E+03  0.45551080141E+03  0.00000000000E+00 0. -1.
          1    1    5    5  503    0 -0.21968652909E+03 -0.35076269981E+03  0.17299749894E+03  0.44858084810E+03  0.00000000000E+00 0. -1.
         -1    1    5    5    0  503 -0.13132738365E+02 -0.10076411779E+00 -0.17518997397E+01  0.13249457463E+02  0.00000000000E+00 0.  1.
<mgrwt>
<rscale>  0 0.27969437E+04</rscale>
<asrwt>0</asrwt>
<pdfrwt beam="1">  1        2 0.30811323E+00 0.27969437E+04</pdfrwt>
<pdfrwt beam="2">  1       -1 0.15023474E+00 0.27969437E+04</pdfrwt>
<totfact> 0.22903377E+00</totfact>
</mgrwt>
</event>
<event>
12    6  0.1663299E-008  0.2858296E+04  0.7818608E-02  0.8285395E-01
         -1   -1    0    0    0  501 -0.00000000000E+00  0.00000000000E+00  0.78590462863E+03  0.78590462863E+03  0.00000000000E+00 0.  1.
          2   -1    0    0  501    0  0.00000000000E+00 -0.00000000000E+00 -0.25988696208E+04  0.25988696208E+04  0.00000000000E+00 0. -1.
         24    2    1    2    0    0  0.51802629751E+03  0.15226863810E+02 -0.22040934084E+04  0.22655609523E+04  0.78457460532E+02 0.  0.
        254    2    1    2    0    0 -0.51802629751E+03 -0.15226863810E+02  0.39112841625E+03  0.11192132972E+04  0.91163252699E+03 0.  0.
         23    2    4    4    0    0 -0.67629503655E+03 -0.10911727975E+03  0.52894961281E+03  0.87192746058E+03  0.10577450737E+03 0.  0.
         23    2    4    4    0    0  0.15826873904E+03  0.93890415938E+02 -0.13782119657E+03  0.24728583659E+03  0.91056020068E+02 0.  0.
          4    1    3    3  502    0  0.20012787836E+03  0.14415127492E+02 -0.10192506320E+04  0.10388122132E+04  0.00000000000E+00 0. -1.
         -3    1    3    3    0  502  0.31789841915E+03  0.81173631863E+00 -0.11848427765E+04  0.12267487391E+04  0.00000000000E+00 0.  1.
         11    1    5    5    0    0 -0.48740749387E+03 -0.42051019739E+02  0.33431981167E+03  0.59254036978E+03  0.00000000000E+00 0. -1.
        -11    1    5    5    0    0 -0.18888754268E+03 -0.67066260008E+02  0.19462980114E+03  0.27938709080E+03  0.00000000000E+00 0.  1.
          4    1    6    6  503    0  0.15804612349E+03  0.96988256803E+02 -0.14761352748E+03  0.23701276886E+03  0.00000000000E+00 0. -1.
         -4    1    6    6    0  503  0.22261555032E+00 -0.30978408652E+01  0.97923309153E+01  0.10273067724E+02  0.00000000000E+00 0.  1.
<mgrwt>
<rscale>  0 0.28582958E+04</rscale>
<asrwt>0</asrwt>
<pdfrwt beam="1">  1        2 0.39982610E+00 0.28582958E+04</pdfrwt>
<pdfrwt beam="2">  1       -1 0.12090840E+00 0.28582958E+04</pdfrwt>
<totfact> 0.18227861E+00</totfact>
</mgrwt>
</event>
<event>
12    6  0.1663299E-008  0.2109967E+04  0.7818608E-02  0.8556866E-01
         -1   -1    0    0    0  501 -0.00000000000E+00  0.00000000000E+00  0.67440392321E+03  0.67440392321E+03  0.00000000000E+00 0.  1.
          2   -1    0    0  501    0  0.00000000000E+00 -0.00000000000E+00 -0.16503310922E+04  0.16503310922E+04  0.00000000000E+00 0. -1.
         24    2    1    2    0    0  0.20997516042E+03 -0.55685033447E+03  0.28566246403E+03  0.66501440730E+03  0.80431682612E+02 0.  0.
        254    2    1    2    0    0 -0.20997516042E+03  0.55685033447E+03 -0.12615896331E+04  0.16597206082E+04  0.89938436272E+03 0.  0.
         23    2    4    4    0    0 -0.53868000646E+03  0.29048244627E+03 -0.54539135850E+03  0.82298388328E+03  0.72763570989E+02 0.  0.
         23    2    4    4    0    0  0.32870484604E+03  0.26636788820E+03 -0.71619827456E+03  0.83673672487E+03  0.90496688333E+02 0.  0.
          2    1    3    3  502    0  0.14841082384E+03 -0.30949860597E+03  0.13442289270E+03  0.36862538411E+03  0.00000000000E+00 0. -1.
         -1    1    3    3    0  502  0.61564336585E+02 -0.24735172850E+03  0.15123957133E+03  0.29638902319E+03  0.00000000000E+00 0.  1.
         11    1    5    5    0    0 -0.48951217710E+03  0.28120177790E+03 -0.48262051043E+03  0.74271068965E+03  0.00000000000E+00 0.  1.
        -11    1    5    5    0    0 -0.49167829354E+02  0.92806683703E+01 -0.62770848065E+02  0.80273193630E+02  0.00000000000E+00 0. -1.
          3    1    6    6  503    0  0.55549307500E+02  0.88958305145E+02 -0.21128520833E+03  0.23588290501E+03  0.00000000000E+00 0. -1.
         -3    1    6    6    0  503  0.27315553854E+03  0.17740958305E+03 -0.50491306623E+03  0.60085381986E+03  0.00000000000E+00 0.  1.
<mgrwt>
<rscale>  0 0.21099666E+04</rscale>
<asrwt>0</asrwt>
<pdfrwt beam="1">  1        2 0.25389709E+00 0.21099666E+04</pdfrwt>
<pdfrwt beam="2">  1       -1 0.10375445E+00 0.21099666E+04</pdfrwt>
<totfact> 0.95953505E+00</totfact>
</mgrwt>
</event>
<event>
12    6  0.1663299E-008  0.1600527E+04  0.7818608E-02  0.8820225E-01
          2   -1    0    0  501    0  0.00000000000E+00  0.00000000000E+00  0.17688292439E+04  0.17688292439E+04  0.00000000000E+00 0. -1.
         -1   -1    0    0    0  501 -0.00000000000E+00 -0.00000000000E+00 -0.36205945624E+03  0.36205945624E+03  0.00000000000E+00 0.  1.
         24    2    1    2    0    0  0.45391013570E+03  0.28146385827E+03  0.39172933489E+03  0.66714628343E+03  0.79849714331E+02 0.  0.
        254    2    1    2    0    0 -0.45391013570E+03 -0.28146385827E+03  0.10150404528E+04  0.14637424167E+04  0.90938354226E+03 0.  0.
         23    2    4    4    0    0 -0.55994476824E+03 -0.21349027150E+03  0.20093041063E+03  0.63490157412E+03  0.60089428335E+02 0.  0.
         23    2    4    4    0    0  0.10603463254E+03 -0.67973586763E+02  0.81411004214E+03  0.82884084260E+03  0.91313908254E+02 0.  0.
          4    1    3    3  502    0  0.38659107869E+03  0.26553769760E+03  0.35892790428E+03  0.59058629466E+03  0.00000000000E+00 0. -1.
         -3    1    3    3    0  502  0.67319057011E+02  0.15926160665E+02  0.32801430613E+02  0.76559988771E+02  0.00000000000E+00 0.  1.
         11    1    5    5    0    0 -0.51999011177E+01  0.37997015697E+01  0.13600235235E+01  0.65822767822E+01  0.00000000000E+00 0. -1.
        -11    1    5    5    0    0 -0.55474486712E+03 -0.21728997307E+03  0.19957038710E+03  0.62831929734E+03  0.00000000000E+00 0.  1.
          3    1    6    6  503    0  0.35662654961E+02  0.13476960310E+02  0.10708664924E+03  0.11367059366E+03  0.00000000000E+00 0. -1.
         -3    1    6    6    0  503  0.70371977581E+02 -0.81450547074E+02  0.70702339290E+03  0.71517024893E+03  0.00000000000E+00 0.  1.
<mgrwt>
<rscale>  0 0.16005266E+04</rscale>
<asrwt>0</asrwt>
<pdfrwt beam="1">  1        2 0.27212757E+00 0.16005266E+04</pdfrwt>
<pdfrwt beam="2">  1       -1 0.55701456E-01 0.16005266E+04</pdfrwt>
<totfact> 0.31972909E+01</totfact>
</mgrwt>
</event>
<event>
11    6  0.1663299E-008  0.1588380E+04  0.7818608E-02  0.8827718E-01
         -1   -1    0    0    0  501 -0.00000000000E+00  0.00000000000E+00  0.27696330549E+03  0.27696330549E+03  0.00000000000E+00 0.  1.
          2   -1    0    0  501    0  0.00000000000E+00 -0.00000000000E+00 -0.22773339191E+04  0.22773339191E+04  0.00000000000E+00 0. -1.
         24    2    1    2    0    0  0.12257002389E+03 -0.46604608986E+03 -0.29969385639E+03  0.57328824275E+03  0.81367272830E+02 0.  0.
        254    2    1    2    0    0 -0.12257002389E+03  0.46604608986E+03 -0.17006767572E+04  0.19810089818E+04  0.89435607280E+03 0.  0.
         23    2    4    4    0    0 -0.33186151260E+03  0.31919207827E+03 -0.33922272596E+03  0.57924977428E+03  0.91883604696E+02 0.  0.
          2    1    3    3  502    0  0.39713682058E+02 -0.14495488465E+03 -0.50747451086E+02  0.15863290617E+03  0.00000000000E+00 0. -1.
         -1    1    3    3    0  502  0.82856341836E+02 -0.32109120520E+03 -0.24894640530E+03  0.41465533658E+03  0.00000000000E+00 0.  1.
         11    1    4    4    0    0 -0.17478499171E+02  0.85631561627E+02 -0.22699496101E+03  0.24323851382E+03  0.00000000000E+00 0. -1.
        -11    1    4    4    0    0  0.22676998788E+03  0.61222449957E+02 -0.11344590702E+04  0.11585206937E+04  0.00000000000E+00 0.  1.
          2    1    5    5  503    0 -0.44169001263E+01  0.32405486671E+02 -0.12575994190E+02  0.35039694675E+02  0.00000000000E+00 0. -1.
         -2    1    5    5    0  503 -0.32744461248E+03  0.28678659160E+03 -0.32664673177E+03  0.54421007960E+03  0.00000000000E+00 0.  1.
<mgrwt>
<rscale>  0 0.15883802E+04</rscale>
<asrwt>0</asrwt>
<pdfrwt beam="1">  1        2 0.35035906E+00 0.15883802E+04</pdfrwt>
<pdfrwt beam="2">  1       -1 0.42609740E-01 0.15883802E+04</pdfrwt>
<totfact> 0.27702725E+01</totfact>
</mgrwt>
</event>
<event>
12    6  0.1663299E-008  0.1497482E+04  0.7818608E-02  0.8886129E-01
         -1   -1    0    0    0  501 -0.00000000000E+00  0.00000000000E+00  0.96581234618E+03  0.96581234618E+03  0.00000000000E+00 0.  1.
          2   -1    0    0  501    0  0.00000000000E+00 -0.00000000000E+00 -0.58045794566E+03  0.58045794566E+03  0.00000000000E+00 0. -1.
         24    2    1    2    0    0 -0.25173980574E+03 -0.95973389728E+01 -0.29196477595E+03  0.39400602389E+03  0.80822507726E+02 0.  0.
        254    2    1    2    0    0  0.25173980574E+03  0.95973389728E+01  0.67731917648E+03  0.11522642680E+04  0.89748907384E+03 0.  0.
         23    2    4    4    0    0  0.56936693769E+03 -0.42075662814E+02  0.53038476110E+03  0.78736015587E+03  0.11260083970E+03 0.  0.
         23    2    4    4    0    0 -0.31762713195E+03  0.51673001786E+02  0.14693441538E+03  0.36490411208E+03  0.89488516181E+02 0.  0.
          4    1    3    3  502    0 -0.19126919831E+03  0.25267603507E+02 -0.19293482868E+03  0.27284832073E+03  0.00000000000E+00 0. -1.
         -3    1    3    3    0  502 -0.60470607424E+02 -0.34864942480E+02 -0.99029947276E+02  0.12115770315E+03  0.00000000000E+00 0.  1.
         11    1    5    5    0    0  0.21741064774E+03  0.38612355768E+02  0.20425347220E+03  0.30079525375E+03  0.00000000000E+00 0.  1.
        -11    1    5    5    0    0  0.35195628995E+03 -0.80688018582E+02  0.32613128890E+03  0.48656490212E+03  0.00000000000E+00 0. -1.
          1    1    6    6  503    0 -0.27611100131E+03  0.60567658706E+02  0.95862538162E+02  0.29848844625E+03  0.00000000000E+00 0. -1.
         -1    1    6    6    0  503 -0.41516130644E+02 -0.88946569192E+01  0.51071877216E+02  0.66415665830E+02  0.00000000000E+00 0.  1.
<mgrwt>
<rscale>  0 0.14974825E+04</rscale>
<asrwt>0</asrwt>
<pdfrwt beam="1">  1        2 0.89301222E-01 0.14974825E+04</pdfrwt>
<pdfrwt beam="2">  1       -1 0.14858651E+00 0.14974825E+04</pdfrwt>
<totfact> 0.20404976E+01</totfact>
</mgrwt>
</event>
<event>
12    6  0.1663299E-008  0.1654196E+04  0.7818608E-02  0.8787928E-01
          2   -1    0    0  501    0  0.00000000000E+00  0.00000000000E+00  0.81569972697E+03  0.81569972697E+03  0.00000000000E+00 0. -1.
         -1   -1    0    0    0  501 -0.00000000000E+00 -0.00000000000E+00 -0.83865554944E+03  0.83865554944E+03  0.00000000000E+00 0.  1.
         24    2    1    2    0    0 -0.22069721696E+03  0.37288369229E+03  0.35506455394E+03  0.56560752027E+03  0.78048190098E+02 0.  0.
        254    2    1    2    0    0  0.22069721696E+03 -0.37288369229E+03 -0.37802037641E+03  0.10887477561E+04  0.92451217512E+03 0.  0.
         23    2    4    4    0    0  0.24875538066E+03 -0.65170807599E+03 -0.15289347864E+03  0.71821214756E+03  0.76482791367E+02 0.  0.
         23    2    4    4    0    0 -0.28058163705E+02  0.27882438370E+03 -0.22512689776E+03  0.37053560857E+03  0.89912288510E+02 0.  0.
          2    1    3    3  502    0 -0.19683210576E+03  0.32555679297E+03  0.34069922577E+03  0.51069175218E+03  0.00000000000E+00 0. -1.
         -1    1    3    3    0  502 -0.23865111200E+02  0.47326899319E+02  0.14365328170E+02  0.54915768092E+02  0.00000000000E+00 0.  1.
         11    1    5    5    0    0  0.36504253470E+02 -0.14515088756E+03 -0.65118300912E+01  0.14981236468E+03  0.00000000000E+00 0. -1.
        -11    1    5    5    0    0  0.21225112719E+03 -0.50655718843E+03 -0.14638164855E+03  0.56839978288E+03  0.00000000000E+00 0.  1.
          3    1    6    6  503    0 -0.44715423090E+00 -0.70597794283E+01 -0.59976137969E+01  0.92742548886E+01  0.00000000000E+00 0. -1.
         -3    1    6    6    0  503 -0.27611009474E+02  0.28588416313E+03 -0.21912928397E+03  0.36126135368E+03  0.00000000000E+00 0.  1.
<mgrwt>
<rscale>  0 0.16541960E+04</rscale>
<asrwt>0</asrwt>
<pdfrwt beam="1">  1        2 0.12549227E+00 0.16541960E+04</pdfrwt>
<pdfrwt beam="2">  1       -1 0.12902393E+00 0.16541960E+04</pdfrwt>
<totfact> 0.18914978E+01</totfact>
</mgrwt>
</event>
<event>
12    6  0.1663299E-008  0.2583701E+04  0.7818608E-02  0.8373759E-01
          2   -1    0    0  501    0  0.00000000000E+00  0.00000000000E+00  0.20083485647E+04  0.20083485647E+04  0.00000000000E+00 0. -1.
         -1   -1    0    0    0  501 -0.00000000000E+00 -0.00000000000E+00 -0.83096997112E+03  0.83096997112E+03  0.00000000000E+00 0.  1.
         24    2    1    2    0    0 -0.22185312357E+03  0.96414669376E+03  0.11104779284E+04  0.14893979541E+04  0.79670450322E+02 0.  0.
        254    2    1    2    0    0  0.22185312357E+03 -0.96414669376E+03  0.66900665199E+02  0.13499205817E+04  0.91597610365E+03 0.  0.
         23    2    4    4    0    0  0.14575918765E+03 -0.11048128883E+04 -0.71759215506E+02  0.11188467793E+04  0.69364772152E+02 0.  0.
         23    2    4    4    0    0  0.76093935913E+02  0.14066619454E+03  0.13865988071E+03  0.23107380243E+03  0.92689127093E+02 0.  0.
          2    1    3    3  502    0 -0.16171168469E+03  0.79976092090E+03  0.94503867193E+03  0.12485456704E+04  0.00000000000E+00 0. -1.
         -1    1    3    3    0  502 -0.60141438871E+02  0.16438577286E+03  0.16543925644E+03  0.24085228369E+03  0.00000000000E+00 0.  1.
         11    1    5    5    0    0  0.99175015965E+02 -0.63598488511E+03 -0.10611430184E+02  0.64375854194E+03  0.00000000000E+00 0.  1.
        -11    1    5    5    0    0  0.46584171688E+02 -0.46882800319E+03 -0.61147785323E+02  0.47508823736E+03  0.00000000000E+00 0. -1.
          2    1    6    6  503    0  0.58194620294E+02  0.61124303461E+02  0.12120755938E+03  0.14769585896E+03  0.00000000000E+00 0. -1.
         -2    1    6    6    0  503  0.17899315619E+02  0.79541891081E+02  0.17452321326E+02  0.83377943462E+02  0.00000000000E+00 0.  1.
<mgrwt>
<rscale>  0 0.25837007E+04</rscale>
<asrwt>0</asrwt>
<pdfrwt beam="1">  1        2 0.30897670E+00 0.25837007E+04</pdfrwt>
<pdfrwt beam="2">  1       -1 0.12784153E+00 0.25837007E+04</pdfrwt>
<totfact> 0.35239142E+00</totfact>
</mgrwt>
</event>
<event>
11    6  0.1663299E-008  0.2287859E+04  0.7818608E-02  0.8482724E-01
          2   -1    0    0  501    0  0.00000000000E+00  0.00000000000E+00  0.11458420568E+04  0.11458420568E+04  0.00000000000E+00 0. -1.
         -1   -1    0    0    0  501 -0.00000000000E+00 -0.00000000000E+00 -0.11420196942E+04  0.11420196942E+04  0.00000000000E+00 0.  1.
         24    2    1    2    0    0  0.40234827391E+03 -0.33938069878E+03 -0.80518829959E+03  0.96543712667E+03  0.81714475641E+02 0.  0.
        254    2    1    2    0    0 -0.40234827391E+03  0.33938069878E+03  0.80901066226E+03  0.13224246243E+04  0.90401617419E+03 0.  0.
         23    2    4    4    0    0 -0.12229832769E+03  0.53780317824E+03  0.17427196394E+03  0.58564970587E+03  0.91791726698E+02 0.  0.
          4    1    3    3  502    0  0.20620033000E+02 -0.29409220395E+02 -0.27112066084E+02  0.45001690330E+02  0.00000000000E+00 0. -1.
         -3    1    3    3    0  502  0.38172824091E+03 -0.30997147838E+03 -0.77807623351E+03  0.92043543634E+03  0.00000000000E+00 0.  1.
         11    1    4    4    0    0 -0.20032121806E+03 -0.10410925734E+03  0.27140865424E+03  0.35302972320E+03  0.00000000000E+00 0. -1.
        -11    1    4    4    0    0 -0.79728728150E+02 -0.94313222119E+02  0.36333004408E+03  0.38374519527E+03  0.00000000000E+00 0.  1.
          2    1    5    5  503    0 -0.69442444582E+02  0.45099149151E+03  0.15697116122E+03  0.48255105841E+03  0.00000000000E+00 0. -1.
         -2    1    5    5    0  503 -0.52855883112E+02  0.86811686730E+02  0.17300802721E+02  0.10309864746E+03  0.00000000000E+00 0.  1.
<mgrwt>
<rscale>  0 0.22878586E+04</rscale>
<asrwt>0</asrwt>
<pdfrwt beam="1">  1        2 0.17628339E+00 0.22878586E+04</pdfrwt>
<pdfrwt beam="2">  1       -1 0.17569534E+00 0.22878586E+04</pdfrwt>
<totfact> 0.47235214E+00</totfact>
</mgrwt>
</event>
<event>
12    6  0.1663299E-008  0.1520089E+04  0.7818608E-02  0.8871203E-01
          2   -1    0    0  501    0  0.00000000000E+00  0.00000000000E+00  0.31960066929E+04  0.31960066929E+04  0.00000000000E+00 0. -1.
         -1   -1    0    0    0  501 -0.00000000000E+00 -0.00000000000E+00 -0.18074670572E+03  0.18074670572E+03  0.00000000000E+00 0.  1.
         24    2    1    2    0    0 -0.67549006411E+02 -0.24090394632E+03  0.52601716105E+02  0.26833684029E+03  0.81487052371E+02 0.  0.
        254    2    1    2    0    0  0.67549006411E+02  0.24090394632E+03  0.29626582711E+04  0.31084165583E+04  0.90681414266E+03 0.  0.
         23    2    4    4    0    0  0.29983821732E+03  0.49201722858E+03  0.18670183791E+04  0.19566874477E+04  0.10432751362E+03 0.  0.
         23    2    4    4    0    0 -0.23228921091E+03 -0.25111328226E+03  0.10956398919E+04  0.11517291106E+04  0.95063207797E+02 0.  0.
          4    1    3    3  502    0 -0.60997957945E+01 -0.29511724522E+02 -0.20417030225E+02  0.36400611481E+02  0.00000000000E+00 0. -1.
         -3    1    3    3    0  502 -0.61449210617E+02 -0.21139222179E+03  0.73018746330E+02  0.23193622881E+03  0.00000000000E+00 0.  1.
         11    1    5    5    0    0  0.29872026441E+03  0.44300719306E+03  0.17518235041E+04  0.18314952249E+04  0.00000000000E+00 0.  1.
        -11    1    5    5    0    0  0.11179529156E+01  0.49010035512E+02  0.11519487507E+03  0.12519222277E+03  0.00000000000E+00 0. -1.
          2    1    6    6  503    0 -0.11849512537E+02 -0.56819842351E+02  0.12995431939E+03  0.14232719543E+03  0.00000000000E+00 0. -1.
         -2    1    6    6    0  503 -0.22043969837E+03 -0.19429343991E+03  0.96568557253E+03  0.10094019152E+04  0.00000000000E+00 0.  1.
<mgrwt>
<rscale>  0 0.15200891E+04</rscale>
<asrwt>0</asrwt>
<pdfrwt beam="1">  1        2 0.49169330E+00 0.15200891E+04</pdfrwt>
<pdfrwt beam="2">  1       -1 0.27807188E-01 0.15200891E+04</pdfrwt>
<totfact> 0.16857244E+01</totfact>
</mgrwt>
</event>
<event>
11    6  0.1663299E-008  0.1540837E+04  0.7818608E-02  0.8857742E-01
         -1   -1    0    0    0  501 -0.00000000000E+00  0.00000000000E+00  0.25511005205E+03  0.25511005205E+03  0.00000000000E+00 0.  1.
          2   -1    0    0  501    0  0.00000000000E+00 -0.00000000000E+00 -0.23266211485E+04  0.23266211485E+04  0.00000000000E+00 0. -1.
         24    2    1    2    0    0  0.18504671405E+03 -0.43854168143E+03 -0.50342195908E+03  0.69730535991E+03  0.78993691728E+02 0.  0.
        254    2    1    2    0    0 -0.18504671405E+03  0.43854168143E+03 -0.15680891373E+04  0.18844258406E+04  0.93037417925E+03 0.  0.
         23    2    4    4    0    0  0.61983880190E+02 -0.15023196579E+03 -0.47182222426E+00  0.18657623919E+03  0.91645106059E+02 0.  0.
          2    1    3    3  502    0  0.18786861630E+03 -0.43697207593E+03 -0.48764940413E+03  0.68120566166E+03  0.00000000000E+00 0. -1.
         -1    1    3    3    0  502 -0.28219022507E+01 -0.15696055023E+01 -0.15772554957E+02  0.16099698246E+02  0.00000000000E+00 0.  1.
         11    1    4    4    0    0 -0.18509176667E+03  0.47747312205E+03 -0.11028323719E+04  0.12159271298E+04  0.00000000000E+00 0. -1.
        -11    1    4    4    0    0 -0.61938827571E+02  0.11130052517E+03 -0.46478494318E+03  0.48192247164E+03  0.00000000000E+00 0.  1.
          3    1    5    5  503    0  0.47656740055E+02 -0.13888773625E+03  0.31102846555E+02  0.15009448763E+03  0.00000000000E+00 0. -1.
         -3    1    5    5    0  503  0.14327140135E+02 -0.11344229544E+02 -0.31574668779E+02  0.36481751560E+02  0.00000000000E+00 0.  1.
<mgrwt>
<rscale>  0 0.15408367E+04</rscale>
<asrwt>0</asrwt>
<pdfrwt beam="1">  1        2 0.35794172E+00 0.15408367E+04</pdfrwt>
<pdfrwt beam="2">  1       -1 0.39247700E-01 0.15408367E+04</pdfrwt>
<totfact> 0.30336028E+01</totfact>
</mgrwt>
</event>
<event>
11    6  0.1663299E-008  0.1594004E+04  0.7818608E-02  0.8824240E-01
          4   -1    0    0  501    0  0.00000000000E+00  0.00000000000E+00  0.27556390931E+03  0.27556390931E+03  0.00000000000E+00 0. -1.
         -3   -1    0    0    0  501 -0.00000000000E+00 -0.00000000000E+00 -0.23051350556E+04  0.23051350556E+04  0.00000000000E+00 0.  1.
         24    2    1    2    0    0 -0.35148988655E+03 -0.23525705885E+03 -0.12441051758E+04  0.13165194311E+04  0.80837491321E+02 0.  0.
        254    2    1    2    0    0  0.35148988655E+03  0.23525705885E+03 -0.78546597050E+03  0.12641795338E+04  0.89571316768E+03 0.  0.
         23    2    4    4    0    0 -0.10280311648E+03 -0.22608499399E+03 -0.29800620723E+03  0.39923981182E+03  0.94349470214E+02 0.  0.
          2    1    3    3  502    0 -0.35623702666E+02 -0.45746037100E+02 -0.24227362878E+03  0.24911495198E+03  0.00000000000E+00 0. -1.
         -1    1    3    3    0  502 -0.31586618388E+03 -0.18951102175E+03 -0.10018315470E+04  0.10674044792E+04  0.00000000000E+00 0.  1.
         11    1    4    4    0    0  0.34281232076E+03  0.35247177676E+03 -0.18619310109E+03  0.52576088821E+03  0.00000000000E+00 0. -1.
        -11    1    4    4    0    0  0.11148068227E+03  0.10887027608E+03 -0.30126666218E+03  0.33917883376E+03  0.00000000000E+00 0.  1.
          1    1    5    5  503    0 -0.70827426442E+02 -0.21966367694E+03 -0.27652474786E+03  0.36018688411E+03  0.00000000000E+00 0. -1.
         -1    1    5    5    0  503 -0.31975690043E+02 -0.64213170487E+01 -0.21481459365E+02  0.39052927712E+02  0.00000000000E+00 0.  1.
<mgrwt>
<rscale>  0 0.15940038E+04</rscale>
<asrwt>0</asrwt>
<pdfrwt beam="1">  1        4 0.42394447E-01 0.15940038E+04</pdfrwt>
<pdfrwt beam="2">  1       -3 0.35463617E+00 0.15940038E+04</pdfrwt>
<totfact> 0.22642103E-01</totfact>
</mgrwt>
</event>
<event>
11    6  0.1663299E-008  0.1393235E+04  0.7818608E-02  0.8958730E-01
          2   -1    0    0  501    0  0.00000000000E+00  0.00000000000E+00  0.73952187607E+03  0.73952187607E+03  0.00000000000E+00 0. -1.
         -1   -1    0    0    0  501 -0.00000000000E+00 -0.00000000000E+00 -0.65620257788E+03  0.65620257788E+03  0.00000000000E+00 0.  1.
         24    2    1    2    0    0 -0.26681132195E+03 -0.20969374260E+03  0.24389570870E+03  0.42526764386E+03  0.78788990239E+02 0.  0.
        254    2    1    2    0    0  0.26681132195E+03  0.20969374260E+03 -0.16057641051E+03  0.97045681010E+03  0.89489769776E+03 0.  0.
         23    2    4    4    0    0  0.19082976226E+03 -0.30765772514E+03 -0.20834632152E+03  0.42750706141E+03  0.91021007824E+02 0.  0.
          2    1    3    3  502    0 -0.11429231950E+03 -0.97655360623E+02  0.61476208037E+02  0.16241498672E+03  0.00000000000E+00 0. -1.
         -3    1    3    3    0  502 -0.15251900245E+03 -0.11203838198E+03  0.18241950066E+03  0.26285265714E+03  0.00000000000E+00 0.  1.
         11    1    4    4    0    0  0.62317866408E+02  0.23600458220E+03 -0.41217542753E+02  0.24754911659E+03  0.00000000000E+00 0. -1.
        -11    1    4    4    0    0  0.13663693285E+02  0.28134688553E+03  0.88987453770E+02  0.29540063210E+03  0.00000000000E+00 0.  1.
          3    1    5    5  503    0  0.10663650252E+03 -0.18032193040E+03 -0.68300373042E+02  0.22034582640E+03  0.00000000000E+00 0. -1.
         -3    1    5    5    0  503  0.84193259737E+02 -0.12733579473E+03 -0.14004594848E+03  0.20716123501E+03  0.00000000000E+00 0.  1.
<mgrwt>
<rscale>  0 0.13932353E+04</rscale>
<asrwt>0</asrwt>
<pdfrwt beam="1">  1        2 0.11377260E+00 0.13932353E+04</pdfrwt>
<pdfrwt beam="2">  1       -1 0.10095424E+00 0.13932353E+04</pdfrwt>
<totfact> 0.39622500E+01</totfact>
</mgrwt>
</event>
<event>
11    6  0.1663299E-008  0.1241154E+04  0.7818608E-02  0.9077578E-01
         -1   -1    0    0    0  501 -0.00000000000E+00  0.00000000000E+00  0.18627439982E+03  0.18627439982E+03  0.00000000000E+00 0.  1.
          2   -1    0    0  501    0  0.00000000000E+00 -0.00000000000E+00 -0.20674655296E+04  0.20674655296E+04  0.00000000000E+00 0. -1.
         24    2    1    2    0    0  0.30900913544E+02 -0.23854594510E+03 -0.13628048796E+03  0.28767556824E+03  0.79535066379E+02 0.  0.
        254    2    1    2    0    0 -0.30900913544E+02  0.23854594510E+03 -0.17449106418E+04  0.19660643612E+04  0.87340534118E+03 0.  0.
         23    2    4    4    0    0 -0.15374069938E+03 -0.26317947767E+03 -0.74396515243E+03  0.80923586409E+03  0.92080918706E+02 0.  0.
          2    1    3    3  502    0 -0.10128160251E+02 -0.15747406101E+02 -0.34636500923E+02  0.39373184087E+02  0.00000000000E+00 0. -1.
         -1    1    3    3    0  502  0.41029073794E+02 -0.22279853900E+03 -0.10164398703E+03  0.24830238415E+03  0.00000000000E+00 0.  1.
         11    1    4    4    0    0 -0.43764976798E+02  0.29860920227E+03 -0.40093991551E+03  0.50183228745E+03  0.00000000000E+00 0.  1.
        -11    1    4    4    0    0  0.16660476263E+03  0.20311622050E+03 -0.60000557389E+03  0.65499620966E+03  0.00000000000E+00 0. -1.
          1    1    5    5  503    0 -0.87723515184E+02 -0.65181979893E+02 -0.27517225576E+03  0.29608086051E+03  0.00000000000E+00 0. -1.
         -1    1    5    5    0  503 -0.66017184196E+02 -0.19799749778E+03 -0.46879289667E+03  0.51315500358E+03  0.00000000000E+00 0.  1.
<mgrwt>
<rscale>  0 0.12411541E+04</rscale>
<asrwt>0</asrwt>
<pdfrwt beam="1">  1        2 0.31807162E+00 0.12411541E+04</pdfrwt>
<pdfrwt beam="2">  1       -1 0.28657600E-01 0.12411541E+04</pdfrwt>
<totfact> 0.76056787E+01</totfact>
</mgrwt>
</event>
<event>
12    6  0.1663299E-008  0.1808794E+04  0.7818608E-02  0.8701637E-01
          2   -1    0    0  501    0  0.00000000000E+00  0.00000000000E+00  0.18112607165E+04  0.18112607165E+04  0.00000000000E+00 0. -1.
         -1   -1    0    0    0  501 -0.00000000000E+00 -0.00000000000E+00 -0.45158269141E+03  0.45158269141E+03  0.00000000000E+00 0.  1.
         24    2    1    2    0    0  0.51365504401E+03  0.45534657944E+03  0.48154590372E+03  0.84221762567E+03  0.79133178595E+02 0.  0.
        254    2    1    2    0    0 -0.51365504401E+03 -0.45534657944E+03  0.87813212139E+03  0.14206257823E+04  0.88084026869E+03 0.  0.
         23    2    4    4    0    0  0.95012424774E+02  0.75498438830E+02 -0.82672953164E+02  0.16210117697E+03  0.68662939525E+02 0.  0.
         23    2    4    4    0    0 -0.60866746878E+03 -0.53084501827E+03  0.96080507455E+03  0.12585246053E+04  0.92006901028E+02 0.  0.
          2    1    3    3  502    0  0.12063890576E+03  0.10267590957E+03  0.72252857250E+02  0.17411652240E+03  0.00000000000E+00 0. -1.
         -1    1    3    3    0  502  0.39301613824E+03  0.35267066987E+03  0.40929304647E+03  0.66810110327E+03  0.00000000000E+00 0.  1.
         11    1    5    5    0    0  0.32617136160E+02  0.16600589605E+02 -0.64853245834E+02  0.74467446859E+02  0.00000000000E+00 0.  1.
        -11    1    5    5    0    0  0.62395288614E+02  0.58897849225E+02 -0.17819707331E+02  0.87633730115E+02  0.00000000000E+00 0. -1.
          3    1    6    6  503    0 -0.51862820120E+03 -0.47830291856E+03  0.79747471758E+03  0.10647604511E+04  0.00000000000E+00 0. -1.
         -3    1    6    6    0  503 -0.90039267578E+02 -0.52542099712E+02  0.16333035697E+03  0.19376415421E+03  0.00000000000E+00 0.  1.
<mgrwt>
<rscale>  0 0.18087941E+04</rscale>
<asrwt>0</asrwt>
<pdfrwt beam="1">  1        2 0.27865549E+00 0.18087941E+04</pdfrwt>
<pdfrwt beam="2">  1       -1 0.69474261E-01 0.18087941E+04</pdfrwt>
<totfact> 0.19149633E+01</totfact>
</mgrwt>
</event>
<event>
11    6  0.1663299E-008  0.2022710E+04  0.7818608E-02  0.8596076E-01
          2   -1    0    0  501    0  0.00000000000E+00  0.00000000000E+00  0.13891210179E+04  0.13891210179E+04  0.00000000000E+00 0. -1.
         -1   -1    0    0    0  501 -0.00000000000E+00 -0.00000000000E+00 -0.73632124469E+03  0.73632124469E+03  0.00000000000E+00 0.  1.
         24    2    1    2    0    0 -0.60445370771E+03 -0.49666834288E+03  0.45762328494E+03  0.90852889468E+03  0.62944054359E+02 0.  0.
        254    2    1    2    0    0  0.60445370771E+03  0.49666834288E+03  0.19517648827E+03  0.12169133679E+04  0.91144970013E+03 0.  0.
         23    2    4    4    0    0 -0.17611166976E+03  0.69847141220E+02  0.22442370889E+03  0.30785147339E+03  0.92263672115E+02 0.  0.
          4    1    3    3  502    0 -0.40272142223E+02 -0.48153704670E+02  0.51819649702E+02  0.81399636412E+02  0.00000000000E+00 0. -1.
         -3    1    3    3    0  502 -0.56418156548E+03 -0.44851463821E+03  0.40580363524E+03  0.82712925827E+03  0.00000000000E+00 0.  1.
         11    1    4    4    0    0  0.79006350740E+03  0.42438867977E+03 -0.35324430371E+02  0.89752655260E+03  0.00000000000E+00 0.  1.
        -11    1    4    4    0    0 -0.94981299362E+01  0.24325218891E+01  0.60772097445E+01  0.11535341924E+02  0.00000000000E+00 0. -1.
          3    1    5    5  503    0 -0.40674027370E+02  0.44515384892E+02  0.24590837185E+02  0.65120697693E+02  0.00000000000E+00 0. -1.
         -3    1    5    5    0  503 -0.13543764239E+03  0.25331756329E+02  0.19983287171E+03  0.24273077570E+03  0.00000000000E+00 0.  1.
<mgrwt>
<rscale>  0 0.20227104E+04</rscale>
<asrwt>0</asrwt>
<pdfrwt beam="1">  1        2 0.21371092E+00 0.20227104E+04</pdfrwt>
<pdfrwt beam="2">  1       -1 0.11328019E+00 0.20227104E+04</pdfrwt>
<totfact> 0.11041429E+01</totfact>
</mgrwt>
</event>
<event>
12    6  0.1663299E-008  0.2359478E+04  0.7818608E-02  0.8454832E-01
          2   -1    0    0  501    0  0.00000000000E+00  0.00000000000E+00  0.15676068159E+04  0.15676068159E+04  0.00000000000E+00 0. -1.
         -1   -1    0    0    0  501 -0.00000000000E+00 -0.00000000000E+00 -0.88783991997E+03  0.88783991997E+03  0.00000000000E+00 0.  1.
         24    2    1    2    0    0  0.21003840549E+03  0.31623224391E+03 -0.67887581708E+03  0.78166221797E+03  0.77488606410E+02 0.  0.
        254    2    1    2    0    0 -0.21003840549E+03 -0.31623224391E+03  0.13586427130E+04  0.16737845179E+04  0.90084717175E+03 0.  0.
         23    2    4    4    0    0  0.33013861147E+03 -0.24163274973E+03  0.54904422263E+03  0.69324228142E+03  0.10843160898E+03 0.  0.
         23    2    4    4    0    0 -0.54017701696E+03 -0.74599494185E+02  0.80959849035E+03  0.98054223644E+03  0.93043364552E+02 0.  0.
          2    1    3    3  502    0  0.95691536188E+02  0.80611755772E+02 -0.20240033369E+03  0.23795171851E+03  0.00000000000E+00 0. -1.
         -1    1    3    3    0  502  0.11434686930E+03  0.23562048814E+03 -0.47647548339E+03  0.54371049946E+03  0.00000000000E+00 0.  1.
         11    1    5    5    0    0  0.30234018303E+03 -0.24039127469E+03  0.46384358860E+03  0.60361281126E+03  0.00000000000E+00 0.  1.
        -11    1    5    5    0    0  0.27798428437E+02 -0.12414750337E+01  0.85200634026E+02  0.89629470166E+02  0.00000000000E+00 0. -1.
          4    1    6    6  503    0 -0.98449538389E+02 -0.48798330705E+02  0.18315903409E+03  0.21359030984E+03  0.00000000000E+00 0. -1.
         -4    1    6    6    0  503 -0.44172747857E+03 -0.25801163480E+02  0.62643945626E+03  0.76695192660E+03  0.00000000000E+00 0.  1.
<mgrwt>
<rscale>  0 0.23594778E+04</rscale>
<asrwt>0</asrwt>
<pdfrwt beam="1">  1        2 0.24117028E+00 0.23594778E+04</pdfrwt>
<pdfrwt beam="2">  1       -1 0.13659076E+00 0.23594778E+04</pdfrwt>
<totfact> 0.53408106E+00</totfact>
</mgrwt>
</event>
<event>
11    6  0.1663299E-008  0.3182655E+04  0.7818608E-02  0.8193413E-01
          2   -1    0    0  501    0  0.00000000000E+00  0.00000000000E+00  0.17444138119E+04  0.17444138119E+04  0.00000000000E+00 0. -1.
         -1   -1    0    0    0  501 -0.00000000000E+00 -0.00000000000E+00 -0.14516759390E+04  0.14516759390E+04  0.00000000000E+00 0.  1.
         24    2    1    2    0    0 -0.13624734338E+04 -0.23959990866E+03 -0.33940674971E+03  0.14265041644E+04  0.77299515839E+02 0.  0.
        254    2    1    2    0    0  0.13624734338E+04  0.23959990866E+03  0.63214462253E+03  0.17695855865E+04  0.90448015453E+03 0.  0.
         23    2    4    4    0    0  0.32565689245E+03  0.41488765567E+03  0.41499666410E+03  0.67725272194E+03  0.90911163987E+02 0.  0.
          4    1    3    3  502    0 -0.15054065600E+03 -0.11982959417E+02 -0.17282830377E+02  0.15200255475E+03  0.00000000000E+00 0. -1.
         -3    1    3    3    0  502 -0.12119327778E+04 -0.22761694924E+03 -0.32212391933E+03  0.12745016096E+04  0.00000000000E+00 0.  1.
         11    1    4    4    0    0  0.13831268292E+03 -0.22021854187E+02 -0.39295105198E+02  0.14546293552E+03  0.00000000000E+00 0. -1.
        -11    1    4    4    0    0  0.89850385847E+03 -0.15326589283E+03  0.25644306364E+03  0.94686992902E+03  0.00000000000E+00 0.  1.
          2    1    5    5  503    0  0.13162686225E+01 -0.89473813399E+00 -0.36290999639E+01  0.39627624157E+01  0.00000000000E+00 0. -1.
         -2    1    5    5    0  503  0.32434062383E+03  0.41578239381E+03  0.41862576406E+03  0.67328995953E+03  0.00000000000E+00 0.  1.
<mgrwt>
<rscale>  0 0.31826552E+04</rscale>
<asrwt>0</asrwt>
<pdfrwt beam="1">  1        2 0.26837135E+00 0.31826552E+04</pdfrwt>
<pdfrwt beam="2">  1       -1 0.22333476E+00 0.31826552E+04</pdfrwt>
<totfact> 0.92947626E-01</totfact>
</mgrwt>
</event>
<event>
11    6  0.1663299E-008  0.2309324E+04  0.7818608E-02  0.8474254E-01
          2   -1    0    0  501    0  0.00000000000E+00  0.00000000000E+00  0.90301863430E+03  0.90301863430E+03  0.00000000000E+00 0. -1.
         -1   -1    0    0    0  501 -0.00000000000E+00 -0.00000000000E+00 -0.14764301396E+04  0.14764301396E+04  0.00000000000E+00 0.  1.
         24    2    1    2    0    0 -0.13328673949E+03 -0.40710028263E+03 -0.11186918231E+04  0.12005009807E+04  0.78963374321E+02 0.  0.
        254    2    1    2    0    0  0.13328673949E+03  0.40710028263E+03  0.54528031783E+03  0.11789477932E+04  0.95346278324E+03 0.  0.
         23    2    4    4    0    0 -0.20795925099E+03 -0.10559929919E+03  0.31024776399E+03  0.40109919029E+03  0.10113665671E+03 0.  0.
          4    1    3    3  502    0 -0.31626825723E+02 -0.88450559186E+02 -0.34599368102E+03  0.35851831869E+03  0.00000000000E+00 0. -1.
         -3    1    3    3    0  502 -0.10165991377E+03 -0.31864972345E+03 -0.77269814213E+03  0.84198266203E+03  0.00000000000E+00 0.  1.
         11    1    4    4    0    0  0.30053832466E+03  0.49178759223E+03  0.40239957831E+02  0.57775217409E+03  0.00000000000E+00 0.  1.
        -11    1    4    4    0    0  0.40707665822E+02  0.20911989597E+02  0.19479259601E+03  0.20009642882E+03  0.00000000000E+00 0. -1.
          4    1    5    5  503    0 -0.62297010617E+02 -0.86726273572E+02  0.14380647451E+03  0.17911634814E+03  0.00000000000E+00 0. -1.
         -4    1    5    5    0  503 -0.14566224038E+03 -0.18873025617E+02  0.16644128948E+03  0.22198284216E+03  0.00000000000E+00 0.  1.
<mgrwt>
<rscale>  0 0.23093236E+04</rscale>
<asrwt>0</asrwt>
<pdfrwt beam="1">  1        2 0.13892595E+00 0.23093236E+04</pdfrwt>
<pdfrwt beam="2">  1       -1 0.22714310E+00 0.23093236E+04</pdfrwt>
<totfact> 0.29732670E+00</totfact>
</mgrwt>
</event>
<event>
12    6  0.1663299E-008  0.1301656E+04  0.7818608E-02  0.9028253E-01
         -1   -1    0    0    0  501 -0.00000000000E+00  0.00000000000E+00  0.22037796391E+03  0.22037796391E+03  0.00000000000E+00 0.  1.
          2   -1    0    0  501    0  0.00000000000E+00 -0.00000000000E+00 -0.19220490265E+04  0.19220490265E+04  0.00000000000E+00 0. -1.
         24    2    1    2    0    0  0.11034253683E+03  0.24129592509E+03 -0.73628758799E+03  0.78669227097E+03  0.79787956905E+02 0.  0.
        254    2    1    2    0    0 -0.11034253683E+03 -0.24129592509E+03 -0.96538347464E+03  0.13557347195E+04  0.91414013017E+03 0.  0.
         23    2    4    4    0    0  0.15771631365E+03  0.11228419252E+03  0.65389597083E+02  0.22979075806E+03  0.10509908468E+03 0.  0.
         23    2    4    4    0    0 -0.26805885048E+03 -0.35358011761E+03 -0.10307730717E+04  0.11259439614E+04  0.91554530094E+02 0.  0.
          2    1    3    3  502    0  0.87152739707E+02  0.17868733678E+03 -0.43775605364E+03  0.48078594703E+03  0.00000000000E+00 0. -1.
         -1    1    3    3    0  502  0.23189797123E+02  0.62608588312E+02 -0.29853153436E+03  0.30590632394E+03  0.00000000000E+00 0.  1.
         11    1    5    5    0    0  0.12479532989E+03  0.13016484558E+03  0.66803984672E+02  0.19230063379E+03  0.00000000000E+00 0. -1.
        -11    1    5    5    0    0  0.32920983758E+02 -0.17880653057E+02 -0.14143875887E+01  0.37490124267E+02  0.00000000000E+00 0.  1.
          1    1    6    6  503    0 -0.26386809133E+03 -0.35414114615E+03 -0.97905734014E+03  0.10740556765E+04  0.00000000000E+00 0. -1.
         -1    1    6    6    0  503 -0.41907591524E+01  0.56102853562E+00 -0.51715731578E+02  0.51888284881E+02  0.00000000000E+00 0.  1.
<mgrwt>
<rscale>  0 0.13016563E+04</rscale>
<asrwt>0</asrwt>
<pdfrwt beam="1">  1        2 0.29569985E+00 0.13016563E+04</pdfrwt>
<pdfrwt beam="2">  1       -1 0.33904302E-01 0.13016563E+04</pdfrwt>
<totfact> 0.67742725E+01</totfact>
</mgrwt>
</event>
<event>
11    6  0.1663299E-008  0.2066193E+04  0.7818608E-02  0.8576284E-01
         -1   -1    0    0    0  501 -0.00000000000E+00  0.00000000000E+00  0.12925810046E+04  0.12925810046E+04  0.00000000000E+00 0.  1.
          2   -1    0    0  501    0  0.00000000000E+00 -0.00000000000E+00 -0.82570313363E+03  0.82570313363E+03  0.00000000000E+00 0. -1.
         24    2    1    2    0    0 -0.44270322288E+02 -0.23304323744E+03 -0.59534999708E+03  0.64917584843E+03  0.10353091912E+03 0.  0.
        254    2    1    2    0    0  0.44270322288E+02  0.23304323744E+03  0.10622278680E+04  0.14691082898E+04  0.98675331845E+03 0.  0.
         23    2    4    4    0    0  0.38715696773E+03  0.96315573444E+01  0.10269499114E+03  0.41071808399E+03  0.90331604391E+02 0.  0.
          4    1    3    3  502    0 -0.64790281609E+02 -0.22818387501E+03 -0.55713522681E+03  0.60552896080E+03  0.00000000000E+00 0. -1.
         -3    1    3    3    0  502  0.20519959321E+02 -0.48593624231E+01 -0.38214770269E+02  0.43646887637E+02  0.00000000000E+00 0.  1.
         11    1    4    4    0    0 -0.32739340208E+03  0.13804295434E+03  0.82561102516E+03  0.89881914857E+03  0.00000000000E+00 0.  1.
        -11    1    4    4    0    0 -0.15493243362E+02  0.85368725754E+02  0.13392185171E+03  0.15957105719E+03  0.00000000000E+00 0. -1.
          1    1    5    5  503    0  0.11229057414E+03 -0.30842623414E+02  0.55151254949E+02  0.12884914196E+03  0.00000000000E+00 0. -1.
         -1    1    5    5    0  503  0.27486639359E+03  0.40474180759E+02  0.47543736189E+02  0.28186894203E+03  0.00000000000E+00 0.  1.
<mgrwt>
<rscale>  0 0.20661928E+04</rscale>
<asrwt>0</asrwt>
<pdfrwt beam="1">  1        2 0.12703125E+00 0.20661928E+04</pdfrwt>
<pdfrwt beam="2">  1       -1 0.19885862E+00 0.20661928E+04</pdfrwt>
<totfact> 0.53351236E+00</totfact>
</mgrwt>
</event>
<event>
11    6  0.1663299E-008  0.1820819E+04  0.7818608E-02  0.8695306E-01
         -3   -1    0    0    0  501 -0.00000000000E+00  0.00000000000E+00  0.82667159628E+03  0.82667159628E+03  0.00000000000E+00 0.  1.
          4   -1    0    0  501    0  0.00000000000E+00 -0.00000000000E+00 -0.10026301841E+04  0.10026301841E+04  0.00000000000E+00 0. -1.
         24    2    1    2    0    0  0.19850317893E+03 -0.63677817479E+03 -0.25160580005E+03  0.71605921302E+03  0.67419299844E+02 0.  0.
        254    2    1    2    0    0 -0.19850317893E+03  0.63677817479E+03  0.75647212183E+02  0.11132425674E+04  0.88808589519E+03 0.  0.
         23    2    4    4    0    0 -0.41226714290E+03  0.23629233357E+03 -0.23565865238E+03  0.53927082193E+03  0.97364033028E+02 0.  0.
          2    1    3    3  502    0  0.15838824304E+03 -0.42689570322E+03 -0.14959058794E+03  0.47927457784E+03  0.00000000000E+00 0. -1.
         -1    1    3    3    0  502  0.40114935883E+02 -0.20988247157E+03 -0.10201521212E+03  0.23678463518E+03  0.00000000000E+00 0.  1.
         11    1    4    4    0    0  0.47627377770E+02  0.24100390291E+03  0.11449591288E+03  0.27103609059E+03  0.00000000000E+00 0.  1.
        -11    1    4    4    0    0  0.16613658621E+03  0.15948193831E+03  0.19680995168E+03  0.30293565489E+03  0.00000000000E+00 0. -1.
          3    1    5    5  503    0 -0.34071844928E+03  0.18373763269E+03 -0.23008566603E+03  0.45031987860E+03  0.00000000000E+00 0. -1.
         -3    1    5    5    0  503 -0.71548693622E+02  0.52554700877E+02 -0.55729863445E+01  0.88950943334E+02  0.00000000000E+00 0.  1.
<mgrwt>
<rscale>  0 0.18208195E+04</rscale>
<asrwt>0</asrwt>
<pdfrwt beam="1">  1        4 0.15425080E+00 0.18208195E+04</pdfrwt>
<pdfrwt beam="2">  1       -3 0.12718025E+00 0.18208195E+04</pdfrwt>
<totfact> 0.29181273E-01</totfact>
</mgrwt>
</event>
<event>
12    6  0.1663299E-008  0.3006631E+04  0.7818608E-02  0.8241840E-01
          2   -1    0    0  501    0  0.00000000000E+00  0.00000000000E+00  0.17115138071E+04  0.17115138071E+04  0.00000000000E+00 0. -1.
         -1   -1    0    0    0  501 -0.00000000000E+00 -0.00000000000E+00 -0.13204437521E+04  0.13204437521E+04  0.00000000000E+00 0.  1.
         24    2    1    2    0    0 -0.97524244090E+03 -0.87430745122E+03 -0.21537409403E+03  0.13298308093E+04  0.80948397643E+02 0.  0.
        254    2    1    2    0    0  0.97524244090E+03  0.87430745122E+03  0.60644414898E+03  0.17021267500E+04  0.90219157019E+03 0.  0.
         23    2    4    4    0    0  0.96737861853E+03  0.38047162793E+03  0.59698323316E+03  0.12011654551E+04  0.76350628490E+02 0.  0.
         23    2    4    4    0    0  0.78638223672E+01  0.49383582329E+03  0.94609158144E+01  0.50096129491E+03  0.83288954898E+02 0.  0.
          2    1    3    3  502    0 -0.19841232037E+03 -0.14250526821E+03 -0.57701783390E+02  0.25100736274E+03  0.00000000000E+00 0. -1.
         -1    1    3    3    0  502 -0.77683012054E+03 -0.73180218300E+03 -0.15767231064E+03  0.10788234465E+04  0.00000000000E+00 0.  1.
         11    1    5    5    0    0  0.47678293621E+02  0.25116986729E+02  0.50639611460E+02  0.73948988863E+02  0.00000000000E+00 0. -1.
        -11    1    5    5    0    0  0.91970032491E+03  0.35535464120E+03  0.54634362170E+03  0.11272164662E+04  0.00000000000E+00 0.  1.
          2    1    6    6  503    0  0.87454530100E+01  0.46837904944E+02  0.24768320523E+02  0.53700484071E+02  0.00000000000E+00 0. -1.
         -2    1    6    6    0  503 -0.88163064278E+00  0.44699791834E+03 -0.15307404709E+02  0.44726081084E+03  0.00000000000E+00 0.  1.
<mgrwt>
<rscale>  0 0.30066311E+04</rscale>
<asrwt>0</asrwt>
<pdfrwt beam="1">  1        2 0.26330982E+00 0.30066311E+04</pdfrwt>
<pdfrwt beam="2">  1       -1 0.20314519E+00 0.30066311E+04</pdfrwt>
<totfact> 0.13473759E+00</totfact>
</mgrwt>
</event>
<event>
12    6  0.1663299E-008  0.3195333E+04  0.7818608E-02  0.8190051E-01
          2   -1    0    0  501    0  0.00000000000E+00  0.00000000000E+00  0.14583186824E+04  0.14583186824E+04  0.00000000000E+00 0. -1.
         -1   -1    0    0    0  501 -0.00000000000E+00 -0.00000000000E+00 -0.17503298340E+04  0.17503298340E+04  0.00000000000E+00 0.  1.
         24    2    1    2    0    0  0.40890865140E+03 -0.99657318069E+02  0.12786922165E+04  0.13485865590E+04  0.80585709342E+02 0.  0.
        254    2    1    2    0    0 -0.40890865140E+03  0.99657318069E+02 -0.15707033680E+04  0.18600619573E+04  0.90309664397E+03 0.  0.
         23    2    4    4    0    0 -0.45522229760E+03  0.21835070585E+03 -0.32639099054E+03  0.60558349898E+03  0.72773103277E+02 0.  0.
         23    2    4    4    0    0  0.46313646195E+02 -0.11869338778E+03 -0.12443123775E+04  0.12544784583E+04  0.95759257618E+02 0.  0.
          4    1    3    3  502    0  0.28741037013E+03 -0.54131666225E+02  0.98520833494E+03  0.10277015235E+04  0.00000000000E+00 0. -1.
         -3    1    3    3    0  502  0.12149828127E+03 -0.45525651844E+02  0.29348388151E+03  0.32088503554E+03  0.00000000000E+00 0.  1.
         11    1    5    5    0    0 -0.44092727342E+03  0.20927257222E+03 -0.32878327013E+03  0.58848135794E+03  0.00000000000E+00 0. -1.
        -11    1    5    5    0    0 -0.14295024178E+02  0.90781336386E+01  0.23922795920E+01  0.17102141043E+02  0.00000000000E+00 0.  1.
          3    1    6    6  503    0  0.13224176274E+00 -0.92761866882E+02 -0.10101883029E+04  0.10144383613E+04  0.00000000000E+00 0. -1.
         -3    1    6    6    0  503  0.46181404432E+02 -0.25931520903E+02 -0.23412407459E+03  0.24004009706E+03  0.00000000000E+00 0.  1.
<mgrwt>
<rscale>  0 0.31953333E+04</rscale>
<asrwt>0</asrwt>
<pdfrwt beam="1">  1        2 0.22435672E+00 0.31953333E+04</pdfrwt>
<pdfrwt beam="2">  1       -1 0.26928151E+00 0.31953333E+04</pdfrwt>
<totfact> 0.67139586E-01</totfact>
</mgrwt>
</event>
<event>
11    6  0.1663299E-008  0.1494928E+04  0.7818608E-02  0.8887833E-01
          2   -1    0    0  501    0  0.00000000000E+00  0.00000000000E+00  0.17719133559E+04  0.17719133559E+04  0.00000000000E+00 0. -1.
         -1   -1    0    0    0  501 -0.00000000000E+00 -0.00000000000E+00 -0.31531012459E+03  0.31531012459E+03  0.00000000000E+00 0.  1.
         24    2    1    2    0    0 -0.41866683299E+03  0.13555764396E+02  0.16277899461E+03  0.45616589584E+03  0.78260128063E+02 0.  0.
        254    2    1    2    0    0  0.41866683299E+03 -0.13555764396E+02  0.12938242367E+04  0.16310575846E+04  0.90050097901E+03 0.  0.
         23    2    4    4    0    0 -0.15553415138E+03  0.21899325789E+03  0.18222680459E+03  0.33706732061E+03  0.90878221067E+02 0.  0.
          2    1    3    3  502    0 -0.15536977522E+02  0.12386188063E+02 -0.33408573860E+01  0.20148862333E+02  0.00000000000E+00 0. -1.
         -1    1    3    3    0  502 -0.40312985547E+03  0.11695763329E+01  0.16611985200E+03  0.43601703351E+03  0.00000000000E+00 0.  1.
         11    1    4    4    0    0  0.18788948255E+03 -0.46095276396E+01  0.18098134103E+03  0.26091751801E+03  0.00000000000E+00 0. -1.
        -11    1    4    4    0    0  0.38631150182E+03 -0.22793949464E+03  0.93061609105E+03  0.10330727460E+04  0.00000000000E+00 0.  1.
          1    1    5    5  503    0 -0.40489985395E+02  0.58327240099E+01  0.19987799296E+02  0.45529899048E+02  0.00000000000E+00 0. -1.
         -1    1    5    5    0  503 -0.11504416599E+03  0.21316053388E+03  0.16223900529E+03  0.29153742156E+03  0.00000000000E+00 0.  1.
<mgrwt>
<rscale>  0 0.14949277E+04</rscale>
<asrwt>0</asrwt>
<pdfrwt beam="1">  1        2 0.27260205E+00 0.14949277E+04</pdfrwt>
<pdfrwt beam="2">  1       -1 0.48509251E-01 0.14949277E+04</pdfrwt>
<totfact> 0.41873234E+01</totfact>
</mgrwt>
</event>
<event>
12    6  0.1663299E-008  0.1580160E+04  0.7818608E-02  0.8832830E-01
         -1   -1    0    0    0  501 -0.00000000000E+00  0.00000000000E+00  0.43140860079E+03  0.43140860079E+03  0.00000000000E+00 0.  1.
          2   -1    0    0  501    0  0.00000000000E+00 -0.00000000000E+00 -0.14469496081E+04  0.14469496081E+04  0.00000000000E+00 0. -1.
         24    2    1    2    0    0 -0.38379981903E+03  0.27419412452E+03 -0.26756567574E+03  0.54791864587E+03  0.78350064757E+02 0.  0.
        254    2    1    2    0    0  0.38379981903E+03 -0.27419412452E+03 -0.74797533162E+03  0.13304395631E+04  0.99404105311E+03 0.  0.
         23    2    4    4    0    0  0.28995627791E+03  0.25399639199E+03  0.15238747912E+02  0.39320948886E+03  0.76109608141E+02 0.  0.
         23    2    4    4    0    0  0.93843541122E+02 -0.52819051651E+03 -0.76321407953E+03  0.93723007421E+03  0.90070244122E+02 0.  0.
          2    1    3    3  502    0 -0.27928274079E+03  0.17429700964E+03 -0.21901082988E+03  0.39540364247E+03  0.00000000000E+00 0. -1.
         -1    1    3    3    0  502 -0.10451707823E+03  0.99897114883E+02 -0.48554845857E+02  0.15251500340E+03  0.00000000000E+00 0.  1.
         11    1    5    5    0    0  0.10036347377E+03  0.13797189914E+03  0.45010165368E+01  0.17067317004E+03  0.00000000000E+00 0.  1.
        -11    1    5    5    0    0  0.18959280414E+03  0.11602449284E+03  0.10737731376E+02  0.22253631882E+03  0.00000000000E+00 0. -1.
          1    1    6    6  503    0  0.57925138932E+02 -0.30277155594E+03 -0.51338887624E+03  0.59882724976E+03  0.00000000000E+00 0. -1.
         -1    1    6    6    0  503  0.35918402190E+02 -0.22541896057E+03 -0.24982520329E+03  0.33840282446E+03  0.00000000000E+00 0.  1.
<mgrwt>
<rscale>  0 0.15801601E+04</rscale>
<asrwt>0</asrwt>
<pdfrwt beam="1">  1        2 0.22260763E+00 0.15801601E+04</pdfrwt>
<pdfrwt beam="2">  1       -1 0.66370555E-01 0.15801601E+04</pdfrwt>
<totfact> 0.34251364E+01</totfact>
</mgrwt>
</event>
<event>
11    6  0.1663299E-008  0.1837153E+04  0.7818608E-02  0.8686788E-01
          2   -1    0    0  501    0  0.00000000000E+00  0.00000000000E+00  0.19841012982E+04  0.19841012982E+04  0.00000000000E+00 0. -1.
         -1   -1    0    0    0  501 -0.00000000000E+00 -0.00000000000E+00 -0.42527208042E+03  0.42527208042E+03  0.00000000000E+00 0.  1.
         24    2    1    2    0    0 -0.24462599595E+02  0.43566998233E+03  0.13083905490E+04  0.13816594393E+04  0.81793798419E+02 0.  0.
        254    2    1    2    0    0  0.24462599595E+02 -0.43566998233E+03  0.25043866885E+03  0.10277139393E+04  0.89614154121E+03 0.  0.
         23    2    4    4    0    0  0.25155633758E+03  0.18083915159E+03  0.93925185555E+02  0.33643850033E+03  0.91572563033E+02 0.  0.
          4    1    3    3  502    0 -0.43313852801E+02  0.28631796983E+03  0.77116153197E+03  0.82373793046E+03  0.00000000000E+00 0. -1.
         -3    1    3    3    0  502  0.18851253206E+02  0.14935201250E+03  0.53722901698E+03  0.55792150888E+03  0.00000000000E+00 0.  1.
         11    1    4    4    0    0  0.56876839325E+01  0.14667826927E+00 -0.99399923539E+01  0.11453152886E+02  0.00000000000E+00 0.  1.
        -11    1    4    4    0    0 -0.23278142191E+03 -0.61665581219E+03  0.16645347565E+03  0.67982228608E+03  0.00000000000E+00 0. -1.
          3    1    5    5  503    0  0.21997691337E+03  0.13233809688E+03  0.10526922113E+03  0.27746139050E+03  0.00000000000E+00 0. -1.
         -3    1    5    5    0  503  0.31579424208E+02  0.48501054705E+02 -0.11344035571E+02  0.58977109829E+02  0.00000000000E+00 0.  1.
<mgrwt>
<rscale>  0 0.18371531E+04</rscale>
<asrwt>0</asrwt>
<pdfrwt beam="1">  1        2 0.30524635E+00 0.18371531E+04</pdfrwt>
<pdfrwt beam="2">  1       -1 0.65426475E-01 0.18371531E+04</pdfrwt>
<totfact> 0.17308781E+01</totfact>
</mgrwt>
</event>
<event>
12    6  0.1663299E-008  0.3479439E+04  0.7818608E-02  0.8118680E-01
          2   -1    0    0  501    0  0.00000000000E+00  0.00000000000E+00  0.30493521395E+04  0.30493521395E+04  0.00000000000E+00 0. -1.
         -1   -1    0    0    0  501 -0.00000000000E+00 -0.00000000000E+00 -0.99254659895E+03  0.99254659895E+03  0.00000000000E+00 0.  1.
         24    2    1    2    0    0 -0.11149154892E+03  0.39793456960E+03 -0.86199564894E+03  0.96030754503E+03  0.91497514003E+02 0.  0.
        254    2    1    2    0    0  0.11149154892E+03 -0.39793456960E+03  0.29188011895E+04  0.30815911935E+04  0.89778706410E+03 0.  0.
         23    2    4    4    0    0 -0.95307083448E+02  0.12602459574E+03  0.19480728632E+04  0.19558153945E+04  0.72528188167E+02 0.  0.
         23    2    4    4    0    0  0.20679863237E+03 -0.52395916535E+03  0.97072832631E+03  0.11257757990E+04  0.88083964036E+02 0.  0.
          4    1    3    3  502    0 -0.41703458519E+02  0.37396830109E+02 -0.11088518896E+03  0.12423053765E+03  0.00000000000E+00 0. -1.
         -3    1    3    3    0  502 -0.69788090405E+02  0.36053773950E+03 -0.75111045998E+03  0.83607700737E+03  0.00000000000E+00 0.  1.
         11    1    5    5    0    0 -0.73169910550E+02  0.49262896871E+02  0.12684018062E+04  0.12714652220E+04  0.00000000000E+00 0. -1.
        -11    1    5    5    0    0 -0.22137172898E+02  0.76761698873E+02  0.67967105699E+03  0.68435017246E+03  0.00000000000E+00 0.  1.
          2    1    6    6  503    0  0.17387043335E+02 -0.56287634772E+01  0.32215919055E+02  0.37038597365E+02  0.00000000000E+00 0. -1.
         -2    1    6    6    0  503  0.18941158904E+03 -0.51833040187E+03  0.93851240726E+03  0.10887372016E+04  0.00000000000E+00 0.  1.
<mgrwt>
<rscale>  0 0.34794391E+04</rscale>
<asrwt>0</asrwt>
<pdfrwt beam="1">  1        2 0.46913109E+00 0.34794391E+04</pdfrwt>
<pdfrwt beam="2">  1       -1 0.15269948E+00 0.34794391E+04</pdfrwt>
<totfact> 0.50321680E-01</totfact>
</mgrwt>
</event>
<event>
12    6  0.1663299E-008  0.1379367E+04  0.7818608E-02  0.8968891E-01
          2   -1    0    0  501    0  0.00000000000E+00  0.00000000000E+00  0.26586222550E+04  0.26586222550E+04  0.00000000000E+00 0. -1.
         -1   -1    0    0    0  501 -0.00000000000E+00 -0.00000000000E+00 -0.17891345785E+03  0.17891345785E+03  0.00000000000E+00 0.  1.
         24    2    1    2    0    0 -0.37658213262E+02  0.37514776875E+03  0.98507509714E+03  0.10578600765E+04  0.80876480130E+02 0.  0.
        254    2    1    2    0    0  0.37658213262E+02 -0.37514776875E+03  0.14946337000E+04  0.17796756363E+04  0.88947258754E+03 0.  0.
         23    2    4    4    0    0 -0.38258757012E+03 -0.17653658857E+03  0.42587032391E+03  0.61064839394E+03  0.11826881385E+03 0.  0.
         23    2    4    4    0    0  0.42024578338E+03 -0.19861118019E+03  0.10687633761E+04  0.11690272424E+04  0.91195504511E+02 0.  0.
          2    1    3    3  502    0 -0.44742161540E+02  0.34958671061E+03  0.84938637949E+03  0.91960314861E+03  0.00000000000E+00 0. -1.
         -1    1    3    3    0  502  0.70839482779E+01  0.25561058139E+02  0.13568871765E+03  0.13825692790E+03  0.00000000000E+00 0.  1.
         11    1    5    5    0    0 -0.30664336730E+03 -0.12237876391E+03  0.25959063121E+03  0.41999287182E+03  0.00000000000E+00 0. -1.
        -11    1    5    5    0    0 -0.75944202813E+02 -0.54157824659E+02  0.16627969270E+03  0.19065552212E+03  0.00000000000E+00 0.  1.
          4    1    6    6  503    0  0.39588693085E+03 -0.16603225454E+03  0.10110863877E+04  0.10984483852E+04  0.00000000000E+00 0. -1.
         -4    1    6    6    0  503  0.24358852533E+02 -0.32578925642E+02  0.57676988408E+02  0.70578857206E+02  0.00000000000E+00 0.  1.
<mgrwt>
<rscale>  0 0.13793670E+04</rscale>
<asrwt>0</asrwt>
<pdfrwt beam="1">  1        2 0.40901878E+00 0.13793670E+04</pdfrwt>
<pdfrwt beam="2">  1       -1 0.27525149E-01 0.13793670E+04</pdfrwt>
<totfact> 0.37205385E+01</totfact>
</mgrwt>
</event>
<event>
12    6  0.1663299E-008  0.2311493E+04  0.7818608E-02  0.8473403E-01
          2   -1    0    0  501    0  0.00000000000E+00  0.00000000000E+00  0.11058924563E+04  0.11058924563E+04  0.00000000000E+00 0. -1.
         -1   -1    0    0    0  501 -0.00000000000E+00 -0.00000000000E+00 -0.12078476391E+04  0.12078476391E+04  0.00000000000E+00 0.  1.
         24    2    1    2    0    0 -0.84746378639E+03 -0.49827004097E+02 -0.52090083718E+03  0.99919139704E+03  0.79800790576E+02 0.  0.
        254    2    1    2    0    0  0.84746378639E+03  0.49827004097E+02  0.41894565431E+03  0.13145486984E+04  0.91205549146E+03 0.  0.
         23    2    4    4    0    0  0.34079066379E+03 -0.36625818895E+03  0.41374894300E+03  0.65293799292E+03  0.69688573424E+02 0.  0.
         23    2    4    4    0    0  0.50667312260E+03  0.41608519305E+03  0.51967113146E+01  0.66161070544E+03  0.88640728226E+02 0.  0.
          4    1    3    3  502    0 -0.14050403644E+03  0.21203498939E+02 -0.91092298689E+02  0.16878619465E+03  0.00000000000E+00 0. -1.
         -3    1    3    3    0  502 -0.70695974995E+03 -0.71030503036E+02 -0.42980853849E+03  0.83040520240E+03  0.00000000000E+00 0.  1.
         11    1    5    5    0    0  0.23036947497E+03 -0.21406875204E+03  0.29048067594E+03  0.42810576812E+03  0.00000000000E+00 0.  1.
        -11    1    5    5    0    0  0.11042118882E+03 -0.15218943691E+03  0.12326826705E+03  0.22483222480E+03  0.00000000000E+00 0. -1.
          4    1    6    6  503    0  0.32890888800E+03  0.23349519071E+03  0.35800622862E+02  0.40494783033E+03  0.00000000000E+00 0. -1.
         -4    1    6    6    0  503  0.17776423460E+03  0.18259000234E+03 -0.30603911547E+02  0.25666287511E+03  0.00000000000E+00 0.  1.
<mgrwt>
<rscale>  0 0.23114927E+04</rscale>
<asrwt>0</asrwt>
<pdfrwt beam="1">  1        2 0.17013730E+00 0.23114927E+04</pdfrwt>
<pdfrwt beam="2">  1       -1 0.18582271E+00 0.23114927E+04</pdfrwt>
<totfact> 0.42191006E+00</totfact>
</mgrwt>
</event>
<event>
12    6  0.1663299E-008  0.2299780E+04  0.7818608E-02  0.8478008E-01
         -1   -1    0    0    0  501 -0.00000000000E+00  0.00000000000E+00  0.22475956946E+04  0.22475956946E+04  0.00000000000E+00 0.  1.
          2   -1    0    0  501    0  0.00000000000E+00 -0.00000000000E+00 -0.58829410692E+03  0.58829410692E+03  0.00000000000E+00 0. -1.
         24    2    1    2    0    0  0.46655795770E+03  0.64607703252E+03  0.13814963787E+04  0.15967240079E+04  0.76833933007E+02 0.  0.
        254    2    1    2    0    0 -0.46655795770E+03 -0.64607703252E+03  0.27780520892E+03  0.12391657936E+04  0.90733911520E+03 0.  0.
         23    2    4    4    0    0 -0.11759170725E+02 -0.55092804397E+03  0.46836024697E+03  0.72736319061E+03  0.77691070162E+02 0.  0.
         23    2    4    4    0    0 -0.45479878698E+03 -0.95148988547E+02 -0.19055503805E+03  0.51180260294E+03  0.98668207633E+02 0.  0.
          2    1    3    3  502    0  0.20655809528E+03  0.31427651600E+03  0.58265688031E+03  0.69348757408E+03  0.00000000000E+00 0. -1.
         -1    1    3    3    0  502  0.25999986243E+03  0.33180051652E+03  0.79883949841E+03  0.90323643385E+03  0.00000000000E+00 0.  1.
         11    1    5    5    0    0 -0.11038290213E+02 -0.49964929911E+03  0.45111420858E+03  0.67325722806E+03  0.00000000000E+00 0. -1.
        -11    1    5    5    0    0 -0.72088051195E+00 -0.51278744861E+02  0.17246038387E+02  0.54105962549E+02  0.00000000000E+00 0.  1.
          3    1    6    6  503    0 -0.44901595917E+03 -0.77732253928E+02 -0.17647860685E+03  0.48867405657E+03  0.00000000000E+00 0. -1.
         -3    1    6    6    0  503 -0.57828278120E+01 -0.17416734619E+02 -0.14076431195E+02  0.23128546376E+02  0.00000000000E+00 0.  1.
<mgrwt>
<rscale>  0 0.22997803E+04</rscale>
<asrwt>0</asrwt>
<pdfrwt beam="1">  1        2 0.90506787E-01 0.22997803E+04</pdfrwt>
<pdfrwt beam="2">  1       -1 0.34578395E+00 0.22997803E+04</pdfrwt>
<totfact> 0.87150401E-01</totfact>
</mgrwt>
</event>
<event>
12    6  0.1663299E-008  0.1924041E+04  0.7818608E-02  0.8642981E-01
         -1   -1    0    0    0  501 -0.00000000000E+00  0.00000000000E+00  0.32436771845E+03  0.32436771845E+03  0.00000000000E+00 0.  1.
          2   -1    0    0  501    0  0.00000000000E+00 -0.00000000000E+00 -0.28531921084E+04  0.28531921084E+04  0.00000000000E+00 0. -1.
         24    2    1    2    0    0  0.47305410670E+03  0.52618201435E+03 -0.13861317387E+04  0.15581366833E+04  0.76033061701E+02 0.  0.
        254    2    1    2    0    0 -0.47305410670E+03 -0.52618201435E+03 -0.11426926512E+04  0.16194231436E+04  0.90340307879E+03 0.  0.
         23    2    4    4    0    0 -0.16727575947E+02 -0.62276414675E+03 -0.44216301486E+03  0.77297134128E+03  0.11773516233E+03 0.  0.
         23    2    4    4    0    0 -0.45632653075E+03  0.96582132400E+02 -0.70052963631E+03  0.84645180228E+03  0.90426054193E+02 0.  0.
          4    1    3    3  502    0  0.43343955127E+03  0.48497993513E+03 -0.12218187571E+04  0.13841663401E+04  0.00000000000E+00 0. -1.
         -3    1    3    3    0  502  0.39614555430E+02  0.41202079224E+02 -0.16431298167E+03  0.17397034311E+03  0.00000000000E+00 0.  1.
         11    1    5    5    0    0  0.17687027220E+02 -0.29359944628E+02 -0.39608875506E+01  0.34503998473E+02  0.00000000000E+00 0.  1.
        -11    1    5    5    0    0 -0.34414603168E+02 -0.59340420212E+03 -0.43820212731E+03  0.73846734280E+03  0.00000000000E+00 0. -1.
          3    1    6    6  503    0 -0.29824841399E+03  0.87835412664E+02 -0.52426132878E+03  0.60952203981E+03  0.00000000000E+00 0. -1.
         -3    1    6    6    0  503 -0.15807811676E+03  0.87467197357E+01 -0.17626830753E+03  0.23692976247E+03  0.00000000000E+00 0.  1.
<mgrwt>
<rscale>  0 0.19240410E+04</rscale>
<asrwt>0</asrwt>
<pdfrwt beam="1">  1        2 0.43895265E+00 0.19240410E+04</pdfrwt>
<pdfrwt beam="2">  1       -1 0.49902724E-01 0.19240410E+04</pdfrwt>
<totfact> 0.92211908E+00</totfact>
</mgrwt>
</event>
<event>
12    6  0.1663299E-008  0.1413763E+04  0.7818608E-02  0.8943916E-01
          2   -1    0    0  501    0  0.00000000000E+00  0.00000000000E+00  0.18125102023E+04  0.18125102023E+04  0.00000000000E+00 0. -1.
         -1   -1    0    0    0  501 -0.00000000000E+00 -0.00000000000E+00 -0.27568458441E+03  0.27568458441E+03  0.00000000000E+00 0.  1.
         24    2    1    2    0    0  0.30939728019E+02  0.36353881368E+03  0.15548941985E+03  0.40376686649E+03  0.75716490715E+02 0.  0.
        254    2    1    2    0    0 -0.30939728019E+02 -0.36353881368E+03  0.13813361981E+04  0.16844279203E+04  0.89223875202E+03 0.  0.
         23    2    4    4    0    0 -0.98472276129E+02 -0.30200722355E+03  0.14831878961E+04  0.15203974102E+04  0.10419595747E+03 0.  0.
         23    2    4    4    0    0  0.67532548109E+02 -0.61531590134E+02 -0.10185169803E+03  0.16403051006E+03  0.90473522086E+02 0.  0.
          2    1    3    3  502    0  0.30704979115E+02  0.34877456921E+03  0.16410161478E+03  0.38667277618E+03  0.00000000000E+00 0. -1.
         -1    1    3    3    0  502  0.23474890485E+00  0.14764244477E+02 -0.86121949272E+01  0.17094090309E+02  0.00000000000E+00 0.  1.
         11    1    5    5    0    0 -0.18614970735E+02 -0.12882494541E+03  0.40284906644E+03  0.42335535195E+03  0.00000000000E+00 0. -1.
        -11    1    5    5    0    0 -0.79857305394E+02 -0.17318227814E+03  0.10803388297E+04  0.10970420583E+04  0.00000000000E+00 0.  1.
          1    1    6    6  503    0 -0.13791033418E+02 -0.41257234035E+02 -0.24223824616E+02  0.49791019692E+02  0.00000000000E+00 0. -1.
         -1    1    6    6    0  503  0.81323581527E+02 -0.20274356100E+02 -0.77627873414E+02  0.11423949036E+03  0.00000000000E+00 0.  1.
<mgrwt>
<rscale>  0 0.14137625E+04</rscale>
<asrwt>0</asrwt>
<pdfrwt beam="1">  1        2 0.27884772E+00 0.14137625E+04</pdfrwt>
<pdfrwt beam="2">  1       -1 0.42413014E-01 0.14137625E+04</pdfrwt>
<totfact> 0.51437590E+01</totfact>
</mgrwt>
</event>
<event>
12    6  0.1663299E-008  0.2144083E+04  0.7818608E-02  0.8542069E-01
          2   -1    0    0  501    0  0.00000000000E+00  0.00000000000E+00  0.59403195941E+03  0.59403195941E+03  0.00000000000E+00 0. -1.
         -1   -1    0    0    0  501 -0.00000000000E+00 -0.00000000000E+00 -0.19346984821E+04  0.19346984821E+04  0.00000000000E+00 0.  1.
         24    2    1    2    0    0  0.21639322238E+03  0.79266097566E+03 -0.18460821326E+03  0.84594295042E+03  0.80011461229E+02 0.  0.
        254    2    1    2    0    0 -0.21639322238E+03 -0.79266097566E+03 -0.11560583094E+04  0.16827874911E+04  0.90562987823E+03 0.  0.
         23    2    4    4    0    0 -0.45873990377E+03 -0.56300358783E+03 -0.11177089425E+04  0.13344371105E+04  0.63512065751E+02 0.  0.
         23    2    4    4    0    0  0.24234668139E+03 -0.22965738783E+03 -0.38349366966E+02  0.34835038063E+03  0.91667245884E+02 0.  0.
          4    1    3    3  502    0  0.12832275907E+03  0.59427412261E+03 -0.14928223814E+03  0.62603007110E+03  0.00000000000E+00 0. -1.
         -3    1    3    3    0  502  0.88070463304E+02  0.19838685305E+03 -0.35325975128E+02  0.21991287932E+03  0.00000000000E+00 0.  1.
         11    1    5    5    0    0 -0.23598488939E+03 -0.25005736165E+03 -0.49228289981E+03  0.60046648998E+03  0.00000000000E+00 0. -1.
        -11    1    5    5    0    0 -0.22275501438E+03 -0.31294622618E+03 -0.62542604267E+03  0.73397062050E+03  0.00000000000E+00 0.  1.
          3    1    6    6  503    0  0.15295279251E+03 -0.14689420733E+03 -0.68491367450E+02  0.22285316309E+03  0.00000000000E+00 0. -1.
         -3    1    6    6    0  503  0.89393888880E+02 -0.82763180497E+02  0.30142000484E+02  0.12549721753E+03  0.00000000000E+00 0.  1.
<mgrwt>
<rscale>  0 0.21440828E+04</rscale>
<asrwt>0</asrwt>
<pdfrwt beam="1">  1        2 0.91389532E-01 0.21440828E+04</pdfrwt>
<pdfrwt beam="2">  1       -1 0.29764592E+00 0.21440828E+04</pdfrwt>
<totfact> 0.18009463E+00</totfact>
</mgrwt>
</event>
<event>
11    6  0.1663299E-008  0.1086099E+04  0.7818608E-02  0.9218848E-01
         -1   -1    0    0    0  501 -0.00000000000E+00  0.00000000000E+00  0.48290041680E+03  0.48290041680E+03  0.00000000000E+00 0.  1.
          2   -1    0    0  501    0  0.00000000000E+00 -0.00000000000E+00 -0.61069015647E+03  0.61069015647E+03  0.00000000000E+00 0. -1.
         24    2    1    2    0    0  0.13534391439E+03  0.11895037252E+03  0.37481854424E+02  0.20064011126E+03  0.79902431437E+02 0.  0.
        254    2    1    2    0    0 -0.13534391439E+03 -0.11895037252E+03 -0.16527159409E+03  0.89295046201E+03  0.85882399914E+03 0.  0.
         23    2    4    4    0    0  0.19301655275E+03 -0.37324631099E+03 -0.14937534342E+03  0.45472559556E+03  0.88849174089E+02 0.  0.
          2    1    3    3  502    0  0.15779439611E+02 -0.55269184249E+01 -0.12585065926E+02  0.20926572248E+02  0.00000000000E+00 0. -1.
         -1    1    3    3    0  502  0.11956447478E+03  0.12447729094E+03  0.50066920350E+02  0.17971353901E+03  0.00000000000E+00 0.  1.
         11    1    4    4    0    0 -0.91049045843E+02  0.51155315520E+01  0.16225356007E+02  0.92624832467E+02  0.00000000000E+00 0.  1.
        -11    1    4    4    0    0 -0.23731142130E+03  0.24918040692E+03 -0.32121606682E+02  0.34560003398E+03  0.00000000000E+00 0. -1.
          3    1    5    5  503    0  0.74083595914E+02 -0.23533446525E+03 -0.73457538329E+02  0.25742319176E+03  0.00000000000E+00 0. -1.
         -3    1    5    5    0  503  0.11893295684E+03 -0.13791184574E+03 -0.75917805089E+02  0.19730240380E+03  0.00000000000E+00 0.  1.
<mgrwt>
<rscale>  0 0.10860986E+04</rscale>
<asrwt>0</asrwt>
<pdfrwt beam="1">  1        2 0.93952332E-01 0.10860986E+04</pdfrwt>
<pdfrwt beam="2">  1       -1 0.74292372E-01 0.10860986E+04</pdfrwt>
<totfact> 0.10057156E+02</totfact>
</mgrwt>
</event>
<event>
11    6  0.1663299E-008  0.1501338E+04  0.7818608E-02  0.8883563E-01
         -1   -1    0    0    0  501 -0.00000000000E+00  0.00000000000E+00  0.31739006973E+03  0.31739006973E+03  0.00000000000E+00 0.  1.
          2   -1    0    0  501    0  0.00000000000E+00 -0.00000000000E+00 -0.17754308692E+04  0.17754308692E+04  0.00000000000E+00 0. -1.
         24    2    1    2    0    0  0.11257082710E+03 -0.90987798395E+02 -0.11800177287E+04  0.11915643577E+04  0.80204786838E+02 0.  0.
        254    2    1    2    0    0 -0.11257082710E+03  0.90987798395E+02 -0.27802307073E+03  0.90125658123E+03  0.84499445370E+03 0.  0.
         23    2    4    4    0    0  0.22604609036E+03 -0.73303251210E+01  0.17031633421E+03  0.29585403955E+03  0.85856801634E+02 0.  0.
          4    1    3    3  502    0  0.12291300879E+03 -0.81677406155E+02 -0.11317351304E+04  0.11413164380E+04  0.00000000000E+00 0. -1.
         -3    1    3    3    0  502 -0.10342181688E+02 -0.93103922400E+01 -0.48282598341E+02  0.50247919642E+02  0.00000000000E+00 0.  1.
         11    1    4    4    0    0 -0.18227779930E+03  0.47152417492E+02 -0.85031563375E+02  0.20658875420E+03  0.00000000000E+00 0.  1.
        -11    1    4    4    0    0 -0.15633911816E+03  0.51165706024E+02 -0.36330784157E+03  0.39881378748E+03  0.00000000000E+00 0. -1.
          1    1    5    5  503    0  0.22353484792E+03  0.68502057229E+01  0.17086564164E+03  0.28144239383E+03  0.00000000000E+00 0. -1.
         -1    1    5    5    0  503  0.25112424371E+01 -0.14180530844E+02 -0.54930743094E+00  0.14411645716E+02  0.00000000000E+00 0.  1.
<mgrwt>
<rscale>  0 0.15013382E+04</rscale>
<asrwt>0</asrwt>
<pdfrwt beam="1">  1        2 0.27314321E+00 0.15013382E+04</pdfrwt>
<pdfrwt beam="2">  1       -1 0.48829242E-01 0.15013382E+04</pdfrwt>
<totfact> 0.41148677E+01</totfact>
</mgrwt>
</event>
<event>
11    6  0.1663299E-008  0.1681975E+04  0.7818608E-02  0.8771712E-01
          2   -1    0    0  501    0  0.00000000000E+00  0.00000000000E+00  0.49884595782E+04  0.49884595782E+04  0.00000000000E+00 0. -1.
         -1   -1    0    0    0  501 -0.00000000000E+00 -0.00000000000E+00 -0.14177920795E+03  0.14177920795E+03  0.00000000000E+00 0.  1.
         24    2    1    2    0    0 -0.45881981305E+03  0.15248866916E+03  0.65849515444E+03  0.82118708985E+03  0.83450302823E+02 0.  0.
        254    2    1    2    0    0  0.45881981305E+03 -0.15248866916E+03  0.41881852158E+04  0.43090516963E+04  0.89065296521E+03 0.  0.
         23    2    4    4    0    0 -0.40752655005E+02 -0.13162539728E+03  0.14736870525E+03  0.22098652870E+03  0.90174755242E+02 0.  0.
          2    1    3    3  502    0 -0.16589395222E+02  0.49061183903E+00  0.56623003516E+02  0.59005196898E+02  0.00000000000E+00 0. -1.
         -1    1    3    3    0  502 -0.44223041783E+03  0.15199805733E+03  0.60187215093E+03  0.76218189295E+03  0.00000000000E+00 0.  1.
         11    1    4    4    0    0  0.16380857215E+03 -0.17423293289E+03  0.19870711480E+04  0.20014100306E+04  0.00000000000E+00 0. -1.
        -11    1    4    4    0    0  0.33576389590E+03  0.15336966100E+03  0.20537453625E+04  0.20866551370E+04  0.00000000000E+00 0.  1.
          3    1    5    5  503    0  0.22520675737E+02 -0.12489229634E+02  0.78578244219E+01  0.26924098818E+02  0.00000000000E+00 0. -1.
         -3    1    5    5    0  503 -0.63273330742E+02 -0.11913616764E+03  0.13951088083E+03  0.19406242989E+03  0.00000000000E+00 0.  1.
<mgrwt>
<rscale>  0 0.16819748E+04</rscale>
<asrwt>0</asrwt>
<pdfrwt beam="1">  1        2 0.76745518E+00 0.16819748E+04</pdfrwt>
<pdfrwt beam="2">  1       -1 0.21812190E-01 0.16819748E+04</pdfrwt>
<totfact> 0.70835924E-01</totfact>
</mgrwt>
</event>
<event>
12    6  0.1663299E-008  0.1884963E+04  0.7818608E-02  0.8662378E-01
         -1   -1    0    0    0  501 -0.00000000000E+00  0.00000000000E+00  0.15132718553E+04  0.15132718553E+04  0.00000000000E+00 0.  1.
          2   -1    0    0  501    0  0.00000000000E+00 -0.00000000000E+00 -0.58698713818E+03  0.58698713818E+03  0.00000000000E+00 0. -1.
         24    2    1    2    0    0  0.54327046725E+03  0.98870347478E+02  0.89621189055E+03  0.10561721589E+04  0.85940272099E+02 0.  0.
        254    2    1    2    0    0 -0.54327046725E+03 -0.98870347478E+02  0.30072826568E+02  0.10440868345E+04  0.88560419881E+03 0.  0.
         23    2    4    4    0    0 -0.16952522941E+02  0.59971215693E+02 -0.34722150714E+03  0.37095672856E+03  0.11472656491E+03 0.  0.
         23    2    4    4    0    0 -0.52631794431E+03 -0.15884156317E+03  0.37729433371E+03  0.67313010597E+03  0.92259983887E+02 0.  0.
          2    1    3    3  502    0  0.10933394037E+03  0.40777814599E+02  0.13884215670E+03  0.18136671457E+03  0.00000000000E+00 0. -1.
         -1    1    3    3    0  502  0.43393652688E+03  0.58092532879E+02  0.75736973385E+03  0.87480544437E+03  0.00000000000E+00 0.  1.
         11    1    5    5    0    0 -0.40699017162E+02  0.16863221849E+02 -0.29839606108E+03  0.30163054805E+03  0.00000000000E+00 0. -1.
        -11    1    5    5    0    0  0.23746494221E+02  0.43107993844E+02 -0.48825446065E+02  0.69326180513E+02  0.00000000000E+00 0.  1.
          2    1    6    6  503    0 -0.10564938846E+03 -0.71392756917E+02  0.77471417483E+02  0.14919966337E+03  0.00000000000E+00 0.  1.
         -2    1    6    6    0  503 -0.42066855585E+03 -0.87448806254E+02  0.29982291623E+03  0.52393044260E+03  0.00000000000E+00 0. -1.
<mgrwt>
<rscale>  0 0.18849627E+04</rscale>
<asrwt>0</asrwt>
<pdfrwt beam="1">  1        2 0.90305714E-01 0.18849627E+04</pdfrwt>
<pdfrwt beam="2">  1       -1 0.23281105E+00 0.18849627E+04</pdfrwt>
<totfact> 0.49319749E+00</totfact>
</mgrwt>
</event>
<event>
11    6  0.1663299E-008  0.1235123E+04  0.7818608E-02  0.9082657E-01
          2   -1    0    0  501    0  0.00000000000E+00  0.00000000000E+00  0.15780987494E+04  0.15780987494E+04  0.00000000000E+00 0. -1.
         -1   -1    0    0    0  501 -0.00000000000E+00 -0.00000000000E+00 -0.24167202618E+03  0.24167202618E+03  0.00000000000E+00 0.  1.
         24    2    1    2    0    0 -0.51119116111E+02 -0.23688927140E+03  0.10805069368E+03  0.27641609697E+03  0.77467511406E+02 0.  0.
        254    2    1    2    0    0  0.51119116111E+02  0.23688927140E+03  0.12283760296E+04  0.15433546786E+04  0.90238921932E+03 0.  0.
         23    2    4    4    0    0  0.26746450213E+03  0.47965973606E+02  0.14350167967E+02  0.28698946070E+03  0.91208709609E+02 0.  0.
          2    1    3    3  502    0 -0.47909294817E+02 -0.24230553613E+03  0.10912566733E+03  0.27002904407E+03  0.00000000000E+00 0. -1.
         -1    1    3    3    0  502 -0.32098212938E+01  0.54162647351E+01 -0.10749736477E+01  0.63870529011E+01  0.00000000000E+00 0.  1.
         11    1    4    4    0    0 -0.39529779904E+02  0.12243941348E+03  0.37916425755E+03  0.40039923536E+03  0.00000000000E+00 0. -1.
        -11    1    4    4    0    0 -0.17681560611E+03  0.66483884307E+02  0.83486160404E+03  0.85596598258E+03  0.00000000000E+00 0.  1.
          1    1    5    5  503    0  0.49444045324E+02 -0.22515970273E+02  0.19716747170E+02  0.57796476141E+02  0.00000000000E+00 0. -1.
         -1    1    5    5    0  503  0.21802045680E+03  0.70481943879E+02 -0.53665792025E+01  0.22919298455E+03  0.00000000000E+00 0.  1.
<mgrwt>
<rscale>  0 0.12351232E+04</rscale>
<asrwt>0</asrwt>
<pdfrwt beam="1">  1        2 0.24278442E+00 0.12351232E+04</pdfrwt>
<pdfrwt beam="2">  1       -1 0.37180313E-01 0.12351232E+04</pdfrwt>
<totfact> 0.89508268E+01</totfact>
</mgrwt>
</event>
<event>
11    6  0.1663299E-008  0.2306123E+04  0.7818608E-02  0.8475511E-01
          2   -1    0    0  501    0  0.00000000000E+00  0.00000000000E+00  0.74636937270E+03  0.74636937270E+03  0.00000000000E+00 0. -1.
         -1   -1    0    0    0  501 -0.00000000000E+00 -0.00000000000E+00 -0.17813571543E+04  0.17813571543E+04  0.00000000000E+00 0.  1.
         24    2    1    2    0    0  0.42605480774E+03  0.87651150999E+03 -0.45407499533E+03  0.10781804480E+04  0.80584431755E+02 0.  0.
        254    2    1    2    0    0 -0.42605480774E+03 -0.87651150999E+03 -0.58091278626E+03  0.14495460790E+04  0.90218016141E+03 0.  0.
         23    2    4    4    0    0 -0.19504906294E+03 -0.14134342596E+03 -0.57297751338E+03  0.62863416873E+03  0.94104124515E+02 0.  0.
          2    1    3    3  502    0  0.39125982635E+03  0.74364180865E+03 -0.39883822642E+03  0.93013941005E+03  0.00000000000E+00 0. -1.
         -1    1    3    3    0  502  0.34794981386E+02  0.13286970135E+03 -0.55236768910E+02  0.14804103791E+03  0.00000000000E+00 0.  1.
         11    1    4    4    0    0 -0.10343462737E+03 -0.54916992511E+03  0.10510913565E+03  0.56862488442E+03  0.00000000000E+00 0. -1.
        -11    1    4    4    0    0 -0.12757111742E+03 -0.18599815893E+03 -0.11304440854E+03  0.25228702588E+03  0.00000000000E+00 0.  1.
          1    1    5    5  503    0 -0.85718995192E+02 -0.63611375701E+02 -0.37190501710E+03  0.38692052802E+03  0.00000000000E+00 0. -1.
         -1    1    5    5    0  503 -0.10933006775E+03 -0.77732050256E+02 -0.20107249627E+03  0.24171364072E+03  0.00000000000E+00 0.  1.
<mgrwt>
<rscale>  0 0.23061227E+04</rscale>
<asrwt>0</asrwt>
<pdfrwt beam="1">  1        2 0.11482606E+00 0.23061227E+04</pdfrwt>
<pdfrwt beam="2">  1       -1 0.27405494E+00 0.23061227E+04</pdfrwt>
<totfact> 0.18976009E+00</totfact>
</mgrwt>
</event>
<event>
12    6  0.1663299E-008  0.1725453E+04  0.7818608E-02  0.8746979E-01
          2   -1    0    0  501    0  0.00000000000E+00  0.00000000000E+00  0.19120179629E+04  0.19120179629E+04  0.00000000000E+00 0. -1.
         -1   -1    0    0    0  501 -0.00000000000E+00 -0.00000000000E+00 -0.38927320514E+03  0.38927320514E+03  0.00000000000E+00 0.  1.
         24    2    1    2    0    0 -0.94904580575E+02  0.62505249421E+03  0.60697215198E+03  0.87985554127E+03  0.77672905808E+02 0.  0.
        254    2    1    2    0    0  0.94904580575E+02 -0.62505249421E+03  0.91577260579E+03  0.14214356268E+04  0.88438807977E+03 0.  0.
         23    2    4    4    0    0  0.37103784304E+03 -0.23445678257E+03  0.80873741896E+03  0.92257302270E+03  0.66676124020E+02 0.  0.
         23    2    4    4    0    0 -0.27613326247E+03 -0.39059571164E+03  0.10703518683E+03  0.49886260409E+03  0.92697238086E+02 0.  0.
          4    1    3    3  502    0  0.72828403178E+01  0.54378084491E+02  0.32914731605E+02  0.63979648269E+02  0.00000000000E+00 0. -1.
         -3    1    3    3    0  502 -0.10218742089E+03  0.57067440972E+03  0.57405742037E+03  0.81587589300E+03  0.00000000000E+00 0.  1.
         11    1    5    5    0    0  0.20943758302E+03 -0.12593365860E+03  0.51707938569E+03  0.57192174172E+03  0.00000000000E+00 0. -1.
        -11    1    5    5    0    0  0.16160026002E+03 -0.10852312398E+03  0.29165803327E+03  0.35065128098E+03  0.00000000000E+00 0.  1.
          1    1    6    6  503    0 -0.75755982306E+02 -0.10233624894E+03 -0.12667916169E+02  0.12795371351E+03  0.00000000000E+00 0. -1.
         -1    1    6    6    0  503 -0.20037728016E+03 -0.28825946270E+03  0.11970310300E+03  0.37090889057E+03  0.00000000000E+00 0.  1.
<mgrwt>
<rscale>  0 0.17254534E+04</rscale>
<asrwt>0</asrwt>
<pdfrwt beam="1">  1        2 0.29415661E+00 0.17254534E+04</pdfrwt>
<pdfrwt beam="2">  1       -1 0.59888186E-01 0.17254534E+04</pdfrwt>
<totfact> 0.22864783E+01</totfact>
</mgrwt>
</event>
<event>
12    6  0.1663299E-008  0.1353453E+04  0.7818608E-02  0.8988218E-01
         -1   -1    0    0    0  501 -0.00000000000E+00  0.00000000000E+00  0.47146798342E+03  0.47146798342E+03  0.00000000000E+00 0.  1.
          2   -1    0    0  501    0  0.00000000000E+00 -0.00000000000E+00 -0.97134636458E+03  0.97134636458E+03  0.00000000000E+00 0. -1.
         24    2    1    2    0    0 -0.12098165204E+03  0.86985070490E+02  0.22743426676E+03  0.28391045381E+03  0.81705798245E+02 0.  0.
        254    2    1    2    0    0  0.12098165204E+03 -0.86985070490E+02 -0.72731264791E+03  0.11589038942E+04  0.88987166801E+03 0.  0.
         23    2    4    4    0    0 -0.31012678908E+03 -0.15989745654E+03 -0.81788478595E+02  0.37391011704E+03  0.10664707440E+03 0.  0.
         23    2    4    4    0    0  0.43110844112E+03  0.72912386055E+02 -0.64552416932E+03  0.78499377715E+03  0.91340423356E+02 0.  0.
          4    1    3    3  502    0 -0.89533412446E+02  0.19860748064E+02  0.94365087142E+02  0.13158818689E+03  0.00000000000E+00 0. -1.
         -3    1    3    3    0  502 -0.31448239592E+02  0.67124322425E+02  0.13306917962E+03  0.15232226692E+03  0.00000000000E+00 0.  1.
         11    1    5    5    0    0 -0.29180206557E+03 -0.11432885814E+03 -0.55750897362E+02  0.31832011535E+03  0.00000000000E+00 0. -1.
        -11    1    5    5    0    0 -0.18324723508E+02 -0.45568598401E+02 -0.26037581234E+02  0.55590001694E+02  0.00000000000E+00 0.  1.
          4    1    6    6  503    0  0.38018522821E+03  0.45426468038E+02 -0.59817408717E+03  0.71022293000E+03  0.00000000000E+00 0. -1.
         -4    1    6    6    0  503  0.50923212913E+02  0.27485918018E+02 -0.47350082152E+02  0.74770847142E+02  0.00000000000E+00 0.  1.
<mgrwt>
<rscale>  0 0.13534529E+04</rscale>
<asrwt>0</asrwt>
<pdfrwt beam="1">  1        2 0.14943790E+00 0.13534529E+04</pdfrwt>
<pdfrwt beam="2">  1       -1 0.72533535E-01 0.13534529E+04</pdfrwt>
<totfact> 0.56164429E+01</totfact>
</mgrwt>
</event>
<event>
11    6  0.1663299E-008  0.1488760E+04  0.7818608E-02  0.8891962E-01
         -1   -1    0    0    0  501 -0.00000000000E+00  0.00000000000E+00  0.52741700051E+03  0.52741700051E+03  0.00000000000E+00 0.  1.
          2   -1    0    0  501    0  0.00000000000E+00 -0.00000000000E+00 -0.10505949353E+04  0.10505949353E+04  0.00000000000E+00 0. -1.
         24    2    1    2    0    0  0.94901363810E+02 -0.41317870115E+02 -0.65027056574E+03  0.66311873496E+03  0.78493392990E+02 0.  0.
        254    2    1    2    0    0 -0.94901363810E+02  0.41317870115E+02  0.12709263097E+03  0.91489320084E+03  0.90009088255E+03 0.  0.
         23    2    4    4    0    0  0.26443097984E+03 -0.37436494668E+02 -0.24369015462E+03  0.37260929924E+03  0.90153004302E+02 0.  0.
          4    1    3    3  502    0  0.32343001935E+02 -0.55367848748E+02 -0.37803990341E+03  0.38343948286E+03  0.00000000000E+00 0. -1.
         -3    1    3    3    0  502  0.62558361875E+02  0.14049978633E+02 -0.27223066234E+03  0.27967925210E+03  0.00000000000E+00 0.  1.
         11    1    4    4    0    0 -0.32264258293E+03  0.16145100432E+02  0.29791699012E+03  0.43944673578E+03  0.00000000000E+00 0. -1.
        -11    1    4    4    0    0 -0.36689760726E+02  0.62609264350E+02  0.72865795468E+02  0.10283716582E+03  0.00000000000E+00 0.  1.
          1    1    5    5  503    0  0.41576853127E+02 -0.31273356665E+02 -0.17175708390E+02  0.54787430235E+02  0.00000000000E+00 0.  1.
         -1    1    5    5    0  503  0.22285412672E+03 -0.61631380026E+01 -0.22651444623E+03  0.31782186900E+03  0.00000000000E+00 0. -1.
<mgrwt>
<rscale>  0 0.14887601E+04</rscale>
<asrwt>0</asrwt>
<pdfrwt beam="1">  1        2 0.16162999E+00 0.14887601E+04</pdfrwt>
<pdfrwt beam="2">  1       -1 0.81141078E-01 0.14887601E+04</pdfrwt>
<totfact> 0.39052441E+01</totfact>
</mgrwt>
</event>
<event>
12    6  0.1663299E-008  0.1649008E+04  0.7818608E-02  0.8790994E-01
         -1   -1    0    0    0  501 -0.00000000000E+00  0.00000000000E+00  0.18949940454E+03  0.18949940454E+03  0.00000000000E+00 0.  1.
          2   -1    0    0  501    0  0.00000000000E+00 -0.00000000000E+00 -0.35873819899E+04  0.35873819899E+04  0.00000000000E+00 0. -1.
         24    2    1    2    0    0 -0.14076363306E+03  0.20686611081E+03 -0.41084383515E+02  0.26588145384E+03  0.79981452425E+02 0.  0.
        254    2    1    2    0    0  0.14076363306E+03 -0.20686611081E+03 -0.33567982018E+04  0.35109999406E+04  0.99820760707E+03 0.  0.
         23    2    4    4    0    0  0.13126225451E+03  0.36508975604E+03 -0.88661186023E+03  0.97393947976E+03  0.10934902888E+03 0.  0.
         23    2    4    4    0    0  0.95013785502E+01 -0.57195586685E+03 -0.24701863416E+04  0.25370604608E+04  0.87358055278E+02 0.  0.
          2    1    3    3  502    0 -0.55107949170E+02  0.24221105200E+02 -0.99628061626E+00  0.60204157447E+02  0.00000000000E+00 0. -1.
         -1    1    3    3    0  502 -0.85655683894E+02  0.18264500561E+03 -0.40088102899E+02  0.20567729639E+03  0.00000000000E+00 0.  1.
         11    1    5    5    0    0  0.69654964690E+02  0.71330639675E+02 -0.17119385597E+03  0.19810908759E+03  0.00000000000E+00 0. -1.
        -11    1    5    5    0    0  0.61607289825E+02  0.29375911637E+03 -0.71541800426E+03  0.77583039218E+03  0.00000000000E+00 0.  1.
          1    1    6    6  503    0  0.25317030198E+02 -0.48131470315E+02 -0.21257390151E+03  0.21942026811E+03  0.00000000000E+00 0. -1.
         -1    1    6    6    0  503 -0.15815651648E+02 -0.52382439653E+03 -0.22576124401E+04  0.23176401927E+04  0.00000000000E+00 0.  1.
<mgrwt>
<rscale>  0 0.16490079E+04</rscale>
<asrwt>0</asrwt>
<pdfrwt beam="1">  1        2 0.55190496E+00 0.16490079E+04</pdfrwt>
<pdfrwt beam="2">  1       -1 0.29153753E-01 0.16490079E+04</pdfrwt>
<totfact> 0.83272106E+00</totfact>
</mgrwt>
</event>
<event>
12    6  0.1663299E-008  0.1484868E+04  0.7818608E-02  0.8894578E-01
          2   -1    0    0  501    0  0.00000000000E+00  0.00000000000E+00  0.17450504790E+04  0.17450504790E+04  0.00000000000E+00 0. -1.
         -1   -1    0    0    0  501 -0.00000000000E+00 -0.00000000000E+00 -0.31586956328E+03  0.31586956328E+03  0.00000000000E+00 0.  1.
         24    2    1    2    0    0  0.14894791673E+03 -0.19135226145E+01 -0.15646970659E+03  0.23021998863E+03  0.79557090291E+02 0.  0.
        254    2    1    2    0    0 -0.14894791673E+03  0.19135226145E+01  0.15856506223E+04  0.18307000537E+04  0.90276555482E+03 0.  0.
         23    2    4    4    0    0 -0.63374384382E+02  0.71057235645E+02 -0.75874974606E+02  0.16304171795E+03  0.10844421003E+03 0.  0.
         23    2    4    4    0    0 -0.85573532351E+02 -0.69143713031E+02  0.16615255969E+04  0.16676583357E+04  0.91177480492E+02 0.  0.
          2    1    3    3  502    0  0.62765110500E+02 -0.30015178814E+02 -0.32881961464E+02  0.76951890458E+02  0.00000000000E+00 0. -1.
         -1    1    3    3    0  502  0.86182806233E+02  0.28101656200E+02 -0.12358774512E+03  0.15326809817E+03  0.00000000000E+00 0.  1.
         11    1    5    5    0    0 -0.16734125854E+02  0.43986334312E+02  0.21492792097E+02  0.51737497875E+02  0.00000000000E+00 0. -1.
        -11    1    5    5    0    0 -0.46640258528E+02  0.27070901333E+02 -0.97367766703E+02  0.11130422008E+03  0.00000000000E+00 0.  1.
          4    1    6    6  503    0  0.86638811923E+00  0.98983998527E+01  0.24366432970E+02  0.26314482775E+02  0.00000000000E+00 0. -1.
         -4    1    6    6    0  503 -0.86439920470E+02 -0.79042112883E+02  0.16371591640E+04  0.16413438530E+04  0.00000000000E+00 0.  1.
<mgrwt>
<rscale>  0 0.14848681E+04</rscale>
<asrwt>0</asrwt>
<pdfrwt beam="1">  1        2 0.26846930E+00 0.14848681E+04</pdfrwt>
<pdfrwt beam="2">  1       -1 0.48595318E-01 0.14848681E+04</pdfrwt>
<totfact> 0.43224269E+01</totfact>
</mgrwt>
</event>
<event>
12    6  0.1663299E-008  0.2335470E+04  0.7818608E-02  0.8464066E-01
          2   -1    0    0  501    0  0.00000000000E+00  0.00000000000E+00  0.11692193446E+04  0.11692193446E+04  0.00000000000E+00 0. -1.
         -1   -1    0    0    0  501 -0.00000000000E+00 -0.00000000000E+00 -0.11662521145E+04  0.11662521145E+04  0.00000000000E+00 0.  1.
         24    2    1    2    0    0 -0.33913327534E+03 -0.82388325755E+03  0.43096293185E+03  0.99312524134E+03  0.82302465632E+02 0.  0.
        254    2    1    2    0    0  0.33913327534E+03  0.82388325755E+03 -0.42799570170E+03  0.13423462177E+04  0.90824999149E+03 0.  0.
         23    2    4    4    0    0  0.49251477041E+02  0.83761007726E+03 -0.55881763493E+03  0.10110092192E+04  0.76460072275E+02 0.  0.
         23    2    4    4    0    0  0.28988179830E+03 -0.13726819703E+02  0.13082193323E+03  0.33133699854E+03  0.91923586885E+02 0.  0.
          2    1    3    3  502    0 -0.24100555749E+03 -0.48448883507E+03  0.27383557696E+03  0.60646437097E+03  0.00000000000E+00 0. -1.
         -1    1    3    3    0  502 -0.98127717844E+02 -0.33939442248E+03  0.15712735489E+03  0.38666087037E+03  0.00000000000E+00 0.  1.
         11    1    5    5    0    0 -0.18687126281E+02  0.97072415321E+02 -0.68378806988E+02  0.12019951643E+03  0.00000000000E+00 0.  1.
        -11    1    5    5    0    0  0.67938603322E+02  0.74053766193E+03 -0.49043882794E+03  0.89080970275E+03  0.00000000000E+00 0. -1.
          1    1    6    6  503    0  0.22733876911E+03  0.14106641341E+02  0.13123805096E+03  0.26287894417E+03  0.00000000000E+00 0. -1.
         -1    1    6    6    0  503  0.62543029188E+02 -0.27833461044E+02 -0.41611773541E+00  0.68458054367E+02  0.00000000000E+00 0.  1.
<mgrwt>
<rscale>  0 0.23354696E+04</rscale>
<asrwt>0</asrwt>
<pdfrwt beam="1">  1        2 0.17987990E+00 0.23354696E+04</pdfrwt>
<pdfrwt beam="2">  1       -1 0.17942340E+00 0.23354696E+04</pdfrwt>
<totfact> 0.42795615E+00</totfact>
</mgrwt>
</event>
<event>
12    6  0.1663299E-008  0.1224866E+04  0.7818608E-02  0.9091366E-01
          2   -1    0    0  501    0  0.00000000000E+00  0.00000000000E+00  0.65878781891E+03  0.65878781891E+03  0.00000000000E+00 0. -1.
         -1   -1    0    0    0  501 -0.00000000000E+00 -0.00000000000E+00 -0.56933974595E+03  0.56933974595E+03  0.00000000000E+00 0.  1.
         24    2    1    2    0    0 -0.12625890052E+03  0.24972931090E+03  0.35094075413E+02  0.29394303529E+03  0.82854542333E+02 0.  0.
        254    2    1    2    0    0  0.12625890052E+03 -0.24972931090E+03  0.54353997548E+02  0.93418452958E+03  0.88962932706E+03 0.  0.
         23    2    4    4    0    0 -0.25516269458E+03  0.77718508646E+02 -0.21057680196E+03  0.35859051593E+03  0.11443950936E+03 0.  0.
         23    2    4    4    0    0  0.38142159510E+03 -0.32744781954E+03  0.26493079951E+03  0.57559401365E+03  0.91736755374E+02 0.  0.
          2    1    3    3  502    0 -0.29082520332E+01  0.32313224776E+02 -0.19810662452E+02  0.38014007577E+02  0.00000000000E+00 0. -1.
         -1    1    3    3    0  502 -0.12335064849E+03  0.21741608612E+03  0.54904737864E+02  0.25592902771E+03  0.00000000000E+00 0.  1.
         11    1    5    5    0    0 -0.16116339841E+03  0.44615438305E+02 -0.19637010069E+03  0.25792517280E+03  0.00000000000E+00 0. -1.
        -11    1    5    5    0    0 -0.93999296167E+02  0.33103070340E+02 -0.14206701272E+02  0.10066534313E+03  0.00000000000E+00 0.  1.
          4    1    6    6  503    0  0.36669114113E+03 -0.33005550060E+03  0.26618299525E+03  0.56058220933E+03  0.00000000000E+00 0. -1.
         -4    1    6    6    0  503  0.14730453969E+02  0.26076810538E+01 -0.12521957446E+01  0.15011804315E+02  0.00000000000E+00 0.  1.
<mgrwt>
<rscale>  0 0.12248659E+04</rscale>
<asrwt>0</asrwt>
<pdfrwt beam="1">  1        2 0.10135197E+00 0.12248659E+04</pdfrwt>
<pdfrwt beam="2">  1       -1 0.87590730E-01 0.12248659E+04</pdfrwt>
<totfact> 0.63850049E+01</totfact>
</mgrwt>
</event>
<event>
11    6  0.1663299E-008  0.2636431E+04  0.7818608E-02  0.8355931E-01
          2   -1    0    0  501    0  0.00000000000E+00  0.00000000000E+00  0.21037742647E+04  0.21037742647E+04  0.00000000000E+00 0. -1.
         -1   -1    0    0    0  501 -0.00000000000E+00 -0.00000000000E+00 -0.82598762234E+03  0.82598762234E+03  0.00000000000E+00 0.  1.
         24    2    1    2    0    0 -0.56993759381E+03 -0.99615490266E+03  0.79090722458E+03  0.13960788268E+04  0.79676857933E+02 0.  0.
        254    2    1    2    0    0  0.56993759381E+03  0.99615490266E+03  0.48687941775E+03  0.15336830603E+04  0.89329654147E+03 0.  0.
         23    2    4    4    0    0 -0.68139670671E+02  0.29194891811E+03 -0.16356394004E+03  0.35354490535E+03  0.91453004942E+02 0.  0.
          2    1    3    3  502    0 -0.49702589078E+02 -0.49328031363E+02  0.51973970509E+02  0.87206052827E+02  0.00000000000E+00 0. -1.
         -1    1    3    3    0  502 -0.52023500473E+03 -0.94682687129E+03  0.73893325407E+03  0.13088727739E+04  0.00000000000E+00 0.  1.
         11    1    4    4    0    0  0.21628295613E+03  0.78498914393E+02  0.15525071375E+03  0.27756653399E+03  0.00000000000E+00 0.  1.
        -11    1    4    4    0    0  0.42179430836E+03  0.62570707015E+03  0.49519264403E+03  0.90257162093E+03  0.00000000000E+00 0. -1.
          1    1    5    5  503    0 -0.52258736678E+02  0.15801983903E+03 -0.13815380062E+03  0.21630468722E+03  0.00000000000E+00 0. -1.
         -1    1    5    5    0  503 -0.15880933993E+02  0.13392907908E+03 -0.25410139416E+02  0.13724021813E+03  0.00000000000E+00 0.  1.
<mgrwt>
<rscale>  0 0.26364305E+04</rscale>
<asrwt>0</asrwt>
<pdfrwt beam="1">  1        2 0.32365758E+00 0.26364305E+04</pdfrwt>
<pdfrwt beam="2">  1       -1 0.12707502E+00 0.26364305E+04</pdfrwt>
<totfact> 0.31502650E+00</totfact>
</mgrwt>
</event>
<event>
12    6  0.1663299E-008  0.1704989E+04  0.7818608E-02  0.8758524E-01
          2   -1    0    0  501    0  0.00000000000E+00  0.00000000000E+00  0.17659490059E+04  0.17659490059E+04  0.00000000000E+00 0. -1.
         -1   -1    0    0    0  501 -0.00000000000E+00 -0.00000000000E+00 -0.41153345090E+03  0.41153345090E+03  0.00000000000E+00 0.  1.
         24    2    1    2    0    0  0.59809220029E+02  0.43552426365E+03  0.10977982300E+04  0.11852037237E+04  0.79299342869E+02 0.  0.
        254    2    1    2    0    0 -0.59809220029E+02 -0.43552426365E+03  0.25661732492E+03  0.99227873305E+03  0.85176646188E+03 0.  0.
         23    2    4    4    0    0 -0.35905590967E+03 -0.10550728293E+03  0.36239217249E+03  0.52482595134E+03  0.63728011908E+02 0.  0.
         23    2    4    4    0    0  0.29924668964E+03 -0.33001698072E+03 -0.10577484757E+03  0.46745278171E+03  0.94148796755E+02 0.  0.
          2    1    3    3  502    0  0.57543486712E+02  0.39739104296E+03  0.92772183689E+03  0.10108900536E+04  0.00000000000E+00 0. -1.
         -1    1    3    3    0  502  0.22657333172E+01  0.38133220683E+02  0.17007639315E+03  0.17431367008E+03  0.00000000000E+00 0.  1.
         11    1    5    5    0    0 -0.14107115541E+03 -0.15658116674E+02  0.16210955131E+03  0.21546636427E+03  0.00000000000E+00 0. -1.
        -11    1    5    5    0    0 -0.21798475426E+03 -0.89849166256E+02  0.20028262118E+03  0.30935958707E+03  0.00000000000E+00 0.  1.
          3    1    6    6  503    0  0.18892691900E+02 -0.50056917061E+02  0.10536349733E+02  0.54531123394E+02  0.00000000000E+00 0. -1.
         -3    1    6    6    0  503  0.28035399774E+03 -0.27996006366E+03 -0.11631119730E+03  0.41292165832E+03  0.00000000000E+00 0.  1.
<mgrwt>
<rscale>  0 0.17049893E+04</rscale>
<asrwt>0</asrwt>
<pdfrwt beam="1">  1        2 0.27168446E+00 0.17049893E+04</pdfrwt>
<pdfrwt beam="2">  1       -1 0.63312840E-01 0.17049893E+04</pdfrwt>
<totfact> 0.24706990E+01</totfact>
</mgrwt>
</event>
<event>
12    6  0.1663299E-008  0.1332423E+04  0.7818608E-02  0.9004241E-01
         -1   -1    0    0    0  501 -0.00000000000E+00  0.00000000000E+00  0.59399785182E+03  0.59399785182E+03  0.00000000000E+00 0.  1.
          2   -1    0    0  501    0  0.00000000000E+00 -0.00000000000E+00 -0.74720472343E+03  0.74720472343E+03  0.00000000000E+00 0. -1.
         24    2    1    2    0    0  0.20012183057E+03  0.71571613159E+02  0.26072212933E+03  0.34490932196E+03  0.76257253903E+02 0.  0.
        254    2    1    2    0    0 -0.20012183057E+03 -0.71571613159E+02 -0.41392900095E+03  0.99629325328E+03  0.88096071753E+03 0.  0.
         23    2    4    4    0    0 -0.35484633980E+02  0.19571569273E+03  0.19935968467E+03  0.30246421726E+03  0.11034730275E+03 0.  0.
         23    2    4    4    0    0 -0.16463719659E+03 -0.26728730589E+03 -0.61328868561E+03  0.69382903602E+03  0.82023221910E+02 0.  0.
          2    1    3    3  502    0  0.13839632810E+02  0.98659020148E+01 -0.18640872917E+01  0.17098136750E+02  0.00000000000E+00 0. -1.
         -1    1    3    3    0  502  0.18628219776E+03  0.61705711144E+02  0.26258621663E+03  0.32781118521E+03  0.00000000000E+00 0.  1.
         11    1    5    5    0    0 -0.26046195401E+02  0.19936065273E+03  0.14681237072E+03  0.24895169481E+03  0.00000000000E+00 0.  1.
        -11    1    5    5    0    0 -0.94384385788E+01 -0.36449600013E+01  0.52547313942E+02  0.53512522448E+02  0.00000000000E+00 0. -1.
          1    1    6    6  503    0 -0.11580447575E+02 -0.52986991684E+02 -0.16753970252E+03  0.17610019868E+03  0.00000000000E+00 0. -1.
         -1    1    6    6    0  503 -0.15305674901E+03 -0.21430031420E+03 -0.44574898309E+03  0.51772883734E+03  0.00000000000E+00 0.  1.
<mgrwt>
<rscale>  0 0.13324234E+04</rscale>
<asrwt>0</asrwt>
<pdfrwt beam="1">  1        2 0.11495457E+00 0.13324234E+04</pdfrwt>
<pdfrwt beam="2">  1       -1 0.91384284E-01 0.13324234E+04</pdfrwt>
<totfact> 0.49168164E+01</totfact>
</mgrwt>
</event>
<event>
12    6  0.1663299E-008  0.2098320E+04  0.7818608E-02  0.8561984E-01
          2   -1    0    0  501    0  0.00000000000E+00  0.00000000000E+00  0.18250471787E+04  0.18250471787E+04  0.00000000000E+00 0. -1.
         -1   -1    0    0    0  501 -0.00000000000E+00 -0.00000000000E+00 -0.60312766535E+03  0.60312766535E+03  0.00000000000E+00 0.  1.
         24    2    1    2    0    0  0.48894169211E+03  0.59493766512E+03  0.92060726996E+03  0.12029575649E+04  0.81082389546E+02 0.  0.
        254    2    1    2    0    0 -0.48894169211E+03 -0.59493766512E+03  0.30131224338E+03  0.12252172791E+04  0.90407605283E+03 0.  0.
         23    2    4    4    0    0 -0.58307405348E+03 -0.64266959558E+03  0.47925989463E+03  0.99938316499E+03  0.12679551625E+03 0.  0.
         23    2    4    4    0    0  0.94132361363E+02  0.47731930457E+02 -0.17794765125E+03  0.22583411410E+03  0.90534202745E+02 0.  0.
          4    1    3    3  502    0  0.34854808919E+03  0.42162146144E+03  0.70899701121E+03  0.89550387444E+03  0.00000000000E+00 0. -1.
         -3    1    3    3    0  502  0.14039360293E+03  0.17331620368E+03  0.21161025874E+03  0.30745369051E+03  0.00000000000E+00 0.  1.
         11    1    5    5    0    0 -0.78669773147E+02 -0.97429877647E+02  0.12323521864E+03  0.17569414725E+03  0.00000000000E+00 0.  1.
        -11    1    5    5    0    0 -0.50440428033E+03 -0.54523971793E+03  0.35602467599E+03  0.82368901774E+03  0.00000000000E+00 0. -1.
          3    1    6    6  503    0 -0.44488864827E+01 -0.19322372459E+02 -0.25476649827E+02  0.32283220948E+02  0.00000000000E+00 0.  1.
         -3    1    6    6    0  503  0.98581247845E+02  0.67054302916E+02 -0.15247100142E+03  0.19355089315E+03  0.00000000000E+00 0. -1.
<mgrwt>
<rscale>  0 0.20983198E+04</rscale>
<asrwt>0</asrwt>
<pdfrwt beam="1">  1        2 0.28077649E+00 0.20983198E+04</pdfrwt>
<pdfrwt beam="2">  1       -1 0.92788873E-01 0.20983198E+04</pdfrwt>
<totfact> 0.98991026E+00</totfact>
</mgrwt>
</event>
<event>
12    6  0.1663299E-008  0.1357395E+04  0.7818608E-02  0.8985249E-01
         -1   -1    0    0    0  501 -0.00000000000E+00  0.00000000000E+00  0.42466790979E+03  0.42466790979E+03  0.00000000000E+00 0.  1.
          2   -1    0    0  501    0  0.00000000000E+00 -0.00000000000E+00 -0.10846833680E+04  0.10846833680E+04  0.00000000000E+00 0. -1.
         24    2    1    2    0    0 -0.17960501202E+03 -0.52500698195E+02 -0.54599255554E+03  0.58255288398E+03  0.79029793594E+02 0.  0.
        254    2    1    2    0    0  0.17960501202E+03  0.52500698195E+02 -0.11402290269E+03  0.92679839382E+03  0.90052193577E+03 0.  0.
         23    2    4    4    0    0 -0.31003125206E+03 -0.17298431598E+03 -0.23746686163E+02  0.37255429798E+03  0.11040764924E+03 0.  0.
         23    2    4    4    0    0  0.48963626408E+03  0.22548501417E+03 -0.90276216524E+02  0.55424409585E+03  0.91921487100E+02 0.  0.
          2    1    3    3  502    0 -0.10801999010E+03 -0.21096429882E+01 -0.37775814844E+03  0.39290455274E+03  0.00000000000E+00 0. -1.
         -1    1    3    3    0  502 -0.71585021923E+02 -0.50391055207E+02 -0.16823440710E+03  0.18964833124E+03  0.00000000000E+00 0.  1.
         11    1    5    5    0    0 -0.24762534748E+02  0.15255796307E+02 -0.90487649724E+01  0.30459852193E+02  0.00000000000E+00 0.  1.
        -11    1    5    5    0    0 -0.28526871731E+03 -0.18824011228E+03 -0.14697921190E+02  0.34209444579E+03  0.00000000000E+00 0. -1.
          2    1    6    6  503    0  0.43830118541E+03  0.23013087064E+03 -0.76787684810E+02  0.50096356683E+03  0.00000000000E+00 0. -1.
         -2    1    6    6    0  503  0.51335078670E+02 -0.46458564654E+01 -0.13488531714E+02  0.53280529016E+02  0.00000000000E+00 0.  1.
<mgrwt>
<rscale>  0 0.13573949E+04</rscale>
<asrwt>0</asrwt>
<pdfrwt beam="1">  1        2 0.16687436E+00 0.13573949E+04</pdfrwt>
<pdfrwt beam="2">  1       -1 0.65333525E-01 0.13573949E+04</pdfrwt>
<totfact> 0.58891438E+01</totfact>
</mgrwt>
</event>
<event>
12    6  0.1663299E-008  0.1823727E+04  0.7818608E-02  0.8693783E-01
         -3   -1    0    0    0  501 -0.00000000000E+00  0.00000000000E+00  0.42624368271E+03  0.42624368271E+03  0.00000000000E+00 0.  1.
          2   -1    0    0  501    0  0.00000000000E+00 -0.00000000000E+00 -0.19507496517E+04  0.19507496517E+04  0.00000000000E+00 0. -1.
         24    2    1    2    0    0 -0.20963266805E+03  0.39607995669E+02 -0.14319956025E+04  0.14499730644E+04  0.79346285279E+02 0.  0.
        254    2    1    2    0    0  0.20963266805E+03 -0.39607995669E+02 -0.92510366466E+02  0.92702027001E+03  0.89738161574E+03 0.  0.
         23    2    4    4    0    0 -0.18594242859E+03 -0.25419971383E+03  0.19489421231E+03  0.38484251895E+03  0.10453673583E+03 0.  0.
         23    2    4    4    0    0  0.39557509664E+03  0.21459171816E+03 -0.28740457877E+03  0.54217775106E+03  0.93947108855E+02 0.  0.
          2    1    3    3  502    0 -0.18956501319E+03  0.86104626033E+01 -0.12433592169E+04  0.12577564058E+04  0.00000000000E+00 0. -1.
         -1    1    3    3    0  502 -0.20067654857E+02  0.30997533065E+02 -0.18863638562E+03  0.19221665851E+03  0.00000000000E+00 0.  1.
         11    1    5    5    0    0 -0.14689843846E+03 -0.23775840748E+03  0.13217907426E+03  0.30915937512E+03  0.00000000000E+00 0. -1.
        -11    1    5    5    0    0 -0.39043990132E+02 -0.16441306345E+02  0.62715138047E+02  0.75683143830E+02  0.00000000000E+00 0.  1.
          2    1    6    6  503    0  0.18760704109E+03  0.77763483003E+02 -0.17878760303E+03  0.27057081911E+03  0.00000000000E+00 0. -1.
         -2    1    6    6    0  503  0.20796805555E+03  0.13682823516E+03 -0.10861697574E+03  0.27160693195E+03  0.00000000000E+00 0.  1.
<mgrwt>
<rscale>  0 0.18237266E+04</rscale>
<asrwt>0</asrwt>
<pdfrwt beam="1">  1        2 0.30011533E+00 0.18237266E+04</pdfrwt>
<pdfrwt beam="2">  1       -3 0.65575951E-01 0.18237266E+04</pdfrwt>
<totfact> 0.96499380E+00</totfact>
</mgrwt>
</event>
<event>
12    6  0.1663299E-008  0.2745158E+04  0.7818608E-02  0.8320500E-01
          2   -1    0    0  501    0  0.00000000000E+00  0.00000000000E+00  0.25561375560E+04  0.25561375560E+04  0.00000000000E+00 0. -1.
         -1   -1    0    0    0  501 -0.00000000000E+00 -0.00000000000E+00 -0.73703902550E+03  0.73703902550E+03  0.00000000000E+00 0.  1.
         24    2    1    2    0    0  0.77464648455E+03  0.86063621170E+03  0.12311308594E+04  0.16920231105E+04  0.80542835546E+02 0.  0.
        254    2    1    2    0    0 -0.77464648455E+03 -0.86063621170E+03  0.58796767103E+03  0.16011534710E+04  0.93659734712E+03 0.  0.
         23    2    4    4    0    0 -0.77890678437E+03 -0.98860388626E+03  0.34141031745E+03  0.13087181001E+04  0.11022085959E+03 0.  0.
         23    2    4    4    0    0  0.42602998215E+01  0.12796767456E+03  0.24655735358E+03  0.29243537095E+03  0.91290972677E+02 0.  0.
          4    1    3    3  502    0  0.41649072526E+03  0.48380696285E+03  0.62361985989E+03  0.89243231181E+03  0.00000000000E+00 0. -1.
         -3    1    3    3    0  502  0.35815575929E+03  0.37682924886E+03  0.60751099954E+03  0.79959079864E+03  0.00000000000E+00 0.  1.
         11    1    5    5    0    0 -0.18632737441E+03 -0.19171794396E+03  0.36048067981E+02  0.26976494156E+03  0.00000000000E+00 0. -1.
        -11    1    5    5    0    0 -0.59257940996E+03 -0.79688594230E+03  0.30536224947E+03  0.10389531585E+04  0.00000000000E+00 0.  1.
          2    1    6    6  503    0  0.27695155816E+02  0.43054765102E+02  0.16364276684E+03  0.17146337682E+03  0.00000000000E+00 0. -1.
         -2    1    6    6    0  503 -0.23434855995E+02  0.84912909460E+02  0.82914586738E+02  0.12097199412E+03  0.00000000000E+00 0.  1.
<mgrwt>
<rscale>  0 0.27451580E+04</rscale>
<asrwt>0</asrwt>
<pdfrwt beam="1">  1        2 0.39325193E+00 0.27451580E+04</pdfrwt>
<pdfrwt beam="2">  1       -1 0.11339062E+00 0.27451580E+04</pdfrwt>
<totfact> 0.22773590E+00</totfact>
</mgrwt>
</event>
<event>
12    6  0.1663299E-008  0.1475007E+04  0.7818608E-02  0.8901245E-01
          2   -1    0    0  501    0  0.00000000000E+00  0.00000000000E+00  0.59170178534E+03  0.59170178534E+03  0.00000000000E+00 0. -1.
         -1   -1    0    0    0  501 -0.00000000000E+00 -0.00000000000E+00 -0.91923266242E+03  0.91923266242E+03  0.00000000000E+00 0.  1.
         24    2    1    2    0    0 -0.15754962750E+02 -0.41023069033E+03  0.99524992362E+02  0.42981087649E+03  0.79339317548E+02 0.  0.
        254    2    1    2    0    0  0.15754962750E+02  0.41023069033E+03 -0.42705586944E+03  0.10811235713E+04  0.90438599204E+03 0.  0.
         23    2    4    4    0    0 -0.13173607848E+03 -0.12747767301E+03  0.16072945717E+03  0.26568854266E+03  0.10560062408E+03 0.  0.
         23    2    4    4    0    0  0.14749104123E+03  0.53770836334E+03 -0.58778532661E+03  0.81543502861E+03  0.92513806855E+02 0.  0.
          2    1    3    3  502    0  0.15060050976E+02 -0.33103000566E+03  0.94933094077E+02  0.34470271559E+03  0.00000000000E+00 0. -1.
         -1    1    3    3    0  502 -0.30815013726E+02 -0.79200684668E+02  0.45918982841E+01  0.85108160905E+02  0.00000000000E+00 0.  1.
         11    1    5    5    0    0 -0.11839309733E+03 -0.74398485083E+02  0.62328615940E+02  0.15309120303E+03  0.00000000000E+00 0. -1.
        -11    1    5    5    0    0 -0.13342981146E+02 -0.53079187928E+02  0.98400841231E+02  0.11259733963E+03  0.00000000000E+00 0.  1.
          4    1    6    6  503    0  0.11782652551E+03  0.50597453933E+03 -0.52091686731E+03  0.73569539023E+03  0.00000000000E+00 0. -1.
         -4    1    6    6    0  503  0.29664515721E+02  0.31733824011E+02 -0.66868459303E+02  0.79739638380E+02  0.00000000000E+00 0.  1.
<mgrwt>
<rscale>  0 0.14750073E+04</rscale>
<asrwt>0</asrwt>
<pdfrwt beam="1">  1        2 0.91031044E-01 0.14750073E+04</pdfrwt>
<pdfrwt beam="2">  1       -1 0.14142041E+00 0.14750073E+04</pdfrwt>
<totfact> 0.22778605E+01</totfact>
</mgrwt>
</event>
<event>
11    6  0.1663299E-008  0.2497260E+04  0.7818608E-02  0.8403962E-01
          2   -1    0    0  501    0  0.00000000000E+00  0.00000000000E+00  0.11136762076E+04  0.11136762076E+04  0.00000000000E+00 0. -1.
         -1   -1    0    0    0  501 -0.00000000000E+00 -0.00000000000E+00 -0.13999367535E+04  0.13999367535E+04  0.00000000000E+00 0.  1.
         24    2    1    2    0    0  0.93021386404E+02 -0.89666098794E+03  0.48842605032E+03  0.10281605564E+04  0.76812873004E+02 0.  0.
        254    2    1    2    0    0 -0.93021386404E+02  0.89666098794E+03 -0.77468659629E+03  0.14854524047E+04  0.89094086142E+03 0.  0.
         23    2    4    4    0    0 -0.13594608926E+03  0.11421263266E+03 -0.62391929290E+03  0.65582037063E+03  0.96432410713E+02 0.  0.
          2    1    3    3  502    0  0.79647197613E+02 -0.82577868408E+03  0.42513996363E+03  0.93220067573E+03  0.00000000000E+00 0. -1.
         -1    1    3    3    0  502  0.13374188791E+02 -0.70882303866E+02  0.63286086688E+02  0.95959880656E+02  0.00000000000E+00 0.  1.
         11    1    4    4    0    0 -0.12822142971E+02  0.54407740842E+03 -0.20020886665E+03  0.57988638886E+03  0.00000000000E+00 0. -1.
        -11    1    4    4    0    0  0.55746845823E+02  0.23837094686E+03  0.49441563258E+02  0.24974564522E+03  0.00000000000E+00 0.  1.
          2    1    5    5  503    0 -0.11238395757E+02  0.53512992355E+02 -0.10136280925E+03  0.11517100759E+03  0.00000000000E+00 0.  1.
         -2    1    5    5    0  503 -0.12470769350E+03  0.60699640306E+02 -0.52255648365E+03  0.54064936304E+03  0.00000000000E+00 0. -1.
<mgrwt>
<rscale>  0 0.24972595E+04</rscale>
<asrwt>0</asrwt>
<pdfrwt beam="1">  1        2 0.17133480E+00 0.24972595E+04</pdfrwt>
<pdfrwt beam="2">  1       -1 0.21537488E+00 0.24972595E+04</pdfrwt>
<totfact> 0.25686292E+00</totfact>
</mgrwt>
</event>
<event>
12    6  0.1663299E-008  0.2430663E+04  0.7818608E-02  0.8428112E-01
          2   -1    0    0  501    0  0.00000000000E+00  0.00000000000E+00  0.15050132220E+04  0.15050132220E+04  0.00000000000E+00 0. -1.
         -1   -1    0    0    0  501 -0.00000000000E+00 -0.00000000000E+00 -0.98140719157E+03  0.98140719157E+03  0.00000000000E+00 0.  1.
         24    2    1    2    0    0  0.75424378862E+03  0.63033062386E+03  0.59276195084E+03  0.11504960715E+04  0.77936461923E+02 0.  0.
        254    2    1    2    0    0 -0.75424378862E+03 -0.63033062386E+03 -0.69155920391E+02  0.13359243421E+04  0.90205926546E+03 0.  0.
         23    2    4    4    0    0 -0.33121136487E+03 -0.62722816784E+03 -0.37163713849E+03  0.80792305130E+03  0.10728164505E+03 0.  0.
         23    2    4    4    0    0 -0.42303242376E+03 -0.31024560245E+01  0.30248121810E+03  0.52800129079E+03  0.91238254001E+02 0.  0.
          2    1    3    3  502    0  0.72623129392E+03  0.62342104886E+03  0.57775914450E+03  0.11179764423E+04  0.00000000000E+00 0. -1.
         -1    1    3    3    0  502  0.28012494704E+02  0.69095750037E+01  0.15002806335E+02  0.32519629214E+02  0.00000000000E+00 0.  1.
         11    1    5    5    0    0 -0.32775699722E+03 -0.55132404251E+03 -0.33227617904E+03  0.72235054387E+03  0.00000000000E+00 0. -1.
        -11    1    5    5    0    0 -0.34543676458E+01 -0.75904125334E+02 -0.39360959444E+02  0.85572507425E+02  0.00000000000E+00 0.  1.
          1    1    6    6  503    0 -0.25729948114E+03  0.41889158702E+02  0.17187942258E+03  0.31225031708E+03  0.00000000000E+00 0. -1.
         -1    1    6    6    0  503 -0.16573294261E+03 -0.44991614726E+02  0.13060179552E+03  0.21575097371E+03  0.00000000000E+00 0.  1.
<mgrwt>
<rscale>  0 0.24306631E+04</rscale>
<asrwt>0</asrwt>
<pdfrwt beam="1">  1        2 0.23154050E+00 0.24306631E+04</pdfrwt>
<pdfrwt beam="2">  1       -1 0.15098572E+00 0.24306631E+04</pdfrwt>
<totfact> 0.44167714E+00</totfact>
</mgrwt>
</event>
<event>
12    6  0.1663299E-008  0.1365031E+04  0.7818608E-02  0.8979527E-01
          2   -1    0    0  501    0  0.00000000000E+00  0.00000000000E+00  0.27641564382E+04  0.27641564382E+04  0.00000000000E+00 0. -1.
         -1   -1    0    0    0  501 -0.00000000000E+00 -0.00000000000E+00 -0.16852429646E+03  0.16852429646E+03  0.00000000000E+00 0.  1.
         24    2    1    2    0    0 -0.16339485188E+03  0.25269090225E+03  0.23673475614E+03  0.39224602699E+03  0.85223419460E+02 0.  0.
        254    2    1    2    0    0  0.16339485188E+03 -0.25269090225E+03  0.23588973856E+04  0.25404347076E+04  0.89379027652E+03 0.  0.
         23    2    4    4    0    0 -0.85249693014E+01 -0.54805634928E+03  0.17378091485E+04  0.18258350628E+04  0.11512863753E+03 0.  0.
         23    2    4    4    0    0  0.17191982118E+03  0.29536544703E+03  0.62108823713E+03  0.71459964480E+03  0.90027117223E+02 0.  0.
          4    1    3    3  502    0 -0.11297176174E+03  0.22721529791E+03  0.17319068296E+03  0.30722047982E+03  0.00000000000E+00 0. -1.
         -3    1    3    3    0  502 -0.50423090145E+02  0.25475604341E+02  0.63544073176E+02  0.85025547173E+02  0.00000000000E+00 0.  1.
         11    1    5    5    0    0 -0.51646008727E+02 -0.26833175828E+03  0.95996069910E+03  0.99809507891E+03  0.00000000000E+00 0. -1.
        -11    1    5    5    0    0  0.43121039426E+02 -0.27972459100E+03  0.77784844935E+03  0.82773998394E+03  0.00000000000E+00 0.  1.
          4    1    6    6  503    0  0.58424082650E+02  0.32205777977E+02  0.12441957437E+03  0.14117654215E+03  0.00000000000E+00 0. -1.
         -4    1    6    6    0  503  0.11349573853E+03  0.26315966905E+03  0.49666866276E+03  0.57342310264E+03  0.00000000000E+00 0.  1.
<mgrwt>
<rscale>  0 0.13650312E+04</rscale>
<asrwt>0</asrwt>
<pdfrwt beam="1">  1        2 0.42525480E+00 0.13650312E+04</pdfrwt>
<pdfrwt beam="2">  1       -1 0.25926817E-01 0.13650312E+04</pdfrwt>
<totfact> 0.35777558E+01</totfact>
</mgrwt>
</event>
<event>
11    6  0.1663299E-008  0.1634301E+04  0.7818608E-02  0.8799749E-01
         -1   -1    0    0    0  501 -0.00000000000E+00  0.00000000000E+00  0.51325376038E+03  0.51325376038E+03  0.00000000000E+00 0.  1.
          2   -1    0    0  501    0  0.00000000000E+00 -0.00000000000E+00 -0.13009835244E+04  0.13009835244E+04  0.00000000000E+00 0. -1.
         24    2    1    2    0    0  0.42545278858E+03 -0.29164308362E+03 -0.25066118136E+02  0.52250732569E+03  0.79497368412E+02 0.  0.
        254    2    1    2    0    0 -0.42545278858E+03  0.29164308362E+03 -0.76266364589E+03  0.12917299591E+04  0.90600479408E+03 0.  0.
         23    2    4    4    0    0  0.18554265840E+03  0.14704751863E+03 -0.48771503778E+03  0.54992071667E+03  0.92183435201E+02 0.  0.
          4    1    3    3  502    0  0.21765088478E+02 -0.14914177433E+02  0.16815695558E+02  0.31287687387E+02  0.00000000000E+00 0. -1.
         -3    1    3    3    0  502  0.40368770011E+03 -0.27672890619E+03 -0.41881813693E+02  0.49121963830E+03  0.00000000000E+00 0.  1.
         11    1    4    4    0    0 -0.23751129591E+02 -0.22618493935E+02  0.42457326396E+02  0.53650135037E+02  0.00000000000E+00 0. -1.
        -11    1    4    4    0    0 -0.58724431739E+03  0.16721405893E+03 -0.31740593450E+03  0.68815910738E+03  0.00000000000E+00 0.  1.
          3    1    5    5  503    0  0.18584014691E+03  0.14917817312E+03 -0.42566465595E+03  0.48783305225E+03  0.00000000000E+00 0.  1.
         -3    1    5    5    0  503 -0.29748851310E+00 -0.21306544975E+01 -0.62050381832E+02  0.62087664423E+02  0.00000000000E+00 0. -1.
<mgrwt>
<rscale>  0 0.16343007E+04</rscale>
<asrwt>0</asrwt>
<pdfrwt beam="1">  1        2 0.20015131E+00 0.16343007E+04</pdfrwt>
<pdfrwt beam="2">  1       -1 0.78962118E-01 0.16343007E+04</pdfrwt>
<totfact> 0.28872224E+01</totfact>
</mgrwt>
</event>
<event>
11    6  0.1663299E-008  0.3282072E+04  0.7818608E-02  0.8167472E-01
         -1   -1    0    0    0  501 -0.00000000000E+00  0.00000000000E+00  0.17297743345E+04  0.17297743345E+04  0.00000000000E+00 0.  1.
          2   -1    0    0  501    0  0.00000000000E+00 -0.00000000000E+00 -0.15568495198E+04  0.15568495198E+04  0.00000000000E+00 0. -1.
         24    2    1    2    0    0  0.13900579422E+04  0.43162911833E+03 -0.33978000579E+03  0.14967880703E+04  0.79745197382E+02 0.  0.
        254    2    1    2    0    0 -0.13900579422E+04 -0.43162911833E+03  0.51270482050E+03  0.17898357841E+04  0.90668689334E+03 0.  0.
         23    2    4    4    0    0 -0.50166466775E+03  0.20890449133E+03 -0.40717778027E+02  0.55257342061E+03  0.91492744777E+02 0.  0.
          2    1    3    3  502    0  0.13798844684E+04  0.42901431747E+03 -0.32957949523E+03  0.14821461043E+04  0.00000000000E+00 0. -1.
         -1    1    3    3    0  502  0.10173473799E+02  0.26148008512E+01 -0.10200510556E+02  0.14641965997E+02  0.00000000000E+00 0.  1.
         11    1    4    4    0    0 -0.52691621791E+03 -0.42590855499E+03  0.41569413653E+03  0.79488389911E+03  0.00000000000E+00 0.  1.
        -11    1    4    4    0    0 -0.36147705652E+03 -0.21462505466E+03  0.13772846200E+03  0.44237846435E+03  0.00000000000E+00 0. -1.
          3    1    5    5  503    0 -0.20000775352E+03  0.11439221916E+03 -0.52199546423E+02  0.23624875432E+03  0.00000000000E+00 0. -1.
         -3    1    5    5    0  503 -0.30165691424E+03  0.94512272168E+02  0.11481768396E+02  0.31632466629E+03  0.00000000000E+00 0.  1.
<mgrwt>
<rscale>  0 0.32820715E+04</rscale>
<asrwt>0</asrwt>
<pdfrwt beam="1">  1        2 0.23951531E+00 0.32820715E+04</pdfrwt>
<pdfrwt beam="2">  1       -1 0.26611913E+00 0.32820715E+04</pdfrwt>
<totfact> 0.61473253E-01</totfact>
</mgrwt>
</event>
<event>
12    6  0.1663299E-008  0.2128251E+04  0.7818608E-02  0.8548900E-01
         -1   -1    0    0    0  501 -0.00000000000E+00  0.00000000000E+00  0.53342902544E+03  0.53342902544E+03  0.00000000000E+00 0.  1.
          2   -1    0    0  501    0  0.00000000000E+00 -0.00000000000E+00 -0.21228004094E+04  0.21228004094E+04  0.00000000000E+00 0. -1.
         24    2    1    2    0    0  0.41077969653E+03 -0.15531840603E+03  0.28190744063E+03  0.52916623793E+03  0.87643231045E+02 0.  0.
        254    2    1    2    0    0 -0.41077969653E+03  0.15531840603E+03 -0.18712788246E+04  0.21270631969E+04  0.91096083228E+03 0.  0.
         23    2    4    4    0    0  0.66336780222E+02  0.39439079800E+03 -0.45146580950E+03  0.60758120865E+03  0.73408977680E+02 0.  0.
         23    2    4    4    0    0 -0.47711647675E+03 -0.23907239197E+03 -0.14198130151E+04  0.15194819883E+04  0.90337001470E+02 0.  0.
          4    1    3    3  502    0  0.74471411162E+02  0.42068257423E+01  0.34230547095E+02  0.82069597402E+02  0.00000000000E+00 0. -1.
         -3    1    3    3    0  502  0.33630828537E+03 -0.15952523177E+03  0.24767689354E+03  0.44709664053E+03  0.00000000000E+00 0.  1.
         11    1    5    5    0    0  0.80121469007E+02  0.31096500458E+03 -0.37350147533E+03  0.49256678324E+03  0.00000000000E+00 0.  1.
        -11    1    5    5    0    0 -0.13784688786E+02  0.83425793413E+02 -0.77964334170E+02  0.11501442542E+03  0.00000000000E+00 0. -1.
          1    1    6    6  503    0 -0.32592147080E+03 -0.20214346517E+03 -0.10682231302E+04  0.11349834543E+04  0.00000000000E+00 0. -1.
         -1    1    6    6    0  503 -0.15119500596E+03 -0.36928926800E+02 -0.35158988486E+03  0.38449853394E+03  0.00000000000E+00 0.  1.
<mgrwt>
<rscale>  0 0.21282513E+04</rscale>
<asrwt>0</asrwt>
<pdfrwt beam="1">  1        2 0.32658468E+00 0.21282513E+04</pdfrwt>
<pdfrwt beam="2">  1       -1 0.82066004E-01 0.21282513E+04</pdfrwt>
<totfact> 0.88192539E+00</totfact>
</mgrwt>
</event>
<event>
12    6  0.1663299E-008  0.1678720E+04  0.7818608E-02  0.8773595E-01
         -1   -1    0    0    0  501 -0.00000000000E+00  0.00000000000E+00  0.25616578604E+03  0.25616578604E+03  0.00000000000E+00 0.  1.
          2   -1    0    0  501    0  0.00000000000E+00 -0.00000000000E+00 -0.27502718829E+04  0.27502718829E+04  0.00000000000E+00 0. -1.
         24    2    1    2    0    0 -0.26348735542E+03 -0.23268622351E+03 -0.29872647604E+02  0.36199261261E+03  0.81103707881E+02 0.  0.
        254    2    1    2    0    0  0.26348735542E+03  0.23268622351E+03 -0.24642334492E+04  0.26444450563E+04  0.89279040009E+03 0.  0.
         23    2    4    4    0    0  0.42041340293E+03  0.22214407528E+03 -0.24038948080E+04  0.24528425614E+04  0.10784694643E+03 0.  0.
         23    2    4    4    0    0 -0.15692604751E+03  0.10542148227E+02 -0.60338641250E+02  0.19160249487E+03  0.91289885174E+02 0.  0.
          2    1    3    3  502    0 -0.26258448478E+02  0.17753977682E+01 -0.89389901265E+01  0.27795030099E+02  0.00000000000E+00 0. -1.
         -1    1    3    3    0  502 -0.23722890694E+03 -0.23446162128E+03 -0.20933657478E+02  0.33419758251E+03  0.00000000000E+00 0.  1.
         11    1    5    5    0    0  0.38709026304E+03  0.23120647305E+03 -0.21638322670E+04  0.22103088890E+04  0.00000000000E+00 0. -1.
        -11    1    5    5    0    0  0.33323139893E+02 -0.90623977702E+01 -0.24006254095E+03  0.24253367245E+03  0.00000000000E+00 0.  1.
          3    1    6    6  503    0 -0.12581284983E+03  0.91197489903E+01 -0.84801977802E+02  0.15199808697E+03  0.00000000000E+00 0. -1.
         -3    1    6    6    0  503 -0.31113197682E+02  0.14223992367E+01  0.24463336552E+02  0.39604407897E+02  0.00000000000E+00 0.  1.
<mgrwt>
<rscale>  0 0.16787204E+04</rscale>
<asrwt>0</asrwt>
<pdfrwt beam="1">  1        2 0.42311874E+00 0.16787204E+04</pdfrwt>
<pdfrwt beam="2">  1       -1 0.39410122E-01 0.16787204E+04</pdfrwt>
<totfact> 0.16884576E+01</totfact>
</mgrwt>
</event>
<event>
11    6  0.1663299E-008  0.1419648E+04  0.7818608E-02  0.8939718E-01
         -1   -1    0    0    0  501 -0.00000000000E+00  0.00000000000E+00  0.55467246797E+03  0.55467246797E+03  0.00000000000E+00 0.  1.
          2   -1    0    0  501    0  0.00000000000E+00 -0.00000000000E+00 -0.90837401299E+03  0.90837401299E+03  0.00000000000E+00 0. -1.
         24    2    1    2    0    0 -0.81327253141E+02 -0.22377331330E+03  0.24684073026E+03  0.35225481507E+03  0.80402057043E+02 0.  0.
        254    2    1    2    0    0  0.81327253141E+02  0.22377331330E+03 -0.60054227528E+03  0.11107916659E+04  0.90361412272E+03 0.  0.
         23    2    4    4    0    0 -0.56496333675E+02  0.80089292321E+02  0.21606315353E+03  0.25385876591E+03  0.90304242723E+02 0.  0.
          4    1    3    3  502    0  0.51961806544E+01 -0.95513442459E+01 -0.36661801693E+01  0.11474726460E+02  0.00000000000E+00 0. -1.
         -3    1    3    3    0  502 -0.86523433796E+02 -0.21422196905E+03  0.25050691042E+03  0.34078008861E+03  0.00000000000E+00 0.  1.
         11    1    4    4    0    0  0.13008346446E+03  0.17049162564E+03 -0.78921868595E+03  0.81783570257E+03  0.00000000000E+00 0.  1.
        -11    1    4    4    0    0  0.77401223516E+01 -0.26807604664E+02 -0.27386742857E+02  0.39097197421E+02  0.00000000000E+00 0. -1.
          1    1    5    5  503    0 -0.25849022862E+02  0.23343342861E+02  0.76021570053E+01  0.35649353851E+02  0.00000000000E+00 0. -1.
         -1    1    5    5    0  503 -0.30647310813E+02  0.56745949460E+02  0.20846099652E+03  0.21820941206E+03  0.00000000000E+00 0.  1.
<mgrwt>
<rscale>  0 0.14196479E+04</rscale>
<asrwt>0</asrwt>
<pdfrwt beam="1">  1        2 0.13974985E+00 0.14196479E+04</pdfrwt>
<pdfrwt beam="2">  1       -1 0.85334226E-01 0.14196479E+04</pdfrwt>
<totfact> 0.43592509E+01</totfact>
</mgrwt>
</event>
<event>
12    6  0.1663299E-008  0.2096569E+04  0.7818608E-02  0.8562756E-01
         -1   -1    0    0    0  501 -0.00000000000E+00  0.00000000000E+00  0.10109934723E+04  0.10109934723E+04  0.00000000000E+00 0.  1.
          2   -1    0    0  501    0  0.00000000000E+00 -0.00000000000E+00 -0.10869512940E+04  0.10869512940E+04  0.00000000000E+00 0. -1.
         24    2    1    2    0    0 -0.60232553478E+02 -0.44708539798E+03  0.68930908671E+03  0.82776053590E+03  0.80790928857E+02 0.  0.
        254    2    1    2    0    0  0.60232553478E+02  0.44708539798E+03 -0.76526690847E+03  0.12701842304E+04  0.90786630313E+03 0.  0.
         23    2    4    4    0    0 -0.23600675888E+03  0.39167952279E+03 -0.30201855100E+02  0.47026603737E+03  0.10547964281E+03 0.  0.
         23    2    4    4    0    0  0.29623931236E+03  0.55405875190E+02 -0.73506505337E+03  0.79991819302E+03  0.93385982035E+02 0.  0.
          4    1    3    3  502    0 -0.60630037078E+02 -0.16985510833E+03  0.24925654285E+03  0.30766147529E+03  0.00000000000E+00 0. -1.
         -3    1    3    3    0  502  0.39748359988E+00 -0.27723028965E+03  0.44005254386E+03  0.52009906061E+03  0.00000000000E+00 0.  1.
         11    1    5    5    0    0 -0.74876104600E+01 -0.44429881728E+01 -0.89118773599E+01  0.12458973167E+02  0.00000000000E+00 0. -1.
        -11    1    5    5    0    0 -0.22851914842E+03  0.39612251096E+03 -0.21289977740E+02  0.45780706421E+03  0.00000000000E+00 0.  1.
          4    1    6    6  503    0  0.24473116889E+03  0.21002469072E+02 -0.64862178533E+03  0.69357383827E+03  0.00000000000E+00 0.  1.
         -4    1    6    6    0  503  0.51508143471E+02  0.34403406119E+02 -0.86443268041E+02  0.10634435474E+03  0.00000000000E+00 0. -1.
<mgrwt>
<rscale>  0 0.20965693E+04</rscale>
<asrwt>0</asrwt>
<pdfrwt beam="1">  1        2 0.16722328E+00 0.20965693E+04</pdfrwt>
<pdfrwt beam="2">  1       -1 0.15553746E+00 0.20965693E+04</pdfrwt>
<totfact> 0.73756509E+00</totfact>
</mgrwt>
</event>
<event>
11    6  0.1663299E-008  0.1581867E+04  0.7818608E-02  0.8831766E-01
         -1   -1    0    0    0  501 -0.00000000000E+00  0.00000000000E+00  0.10146192840E+04  0.10146192840E+04  0.00000000000E+00 0.  1.
          2   -1    0    0  501    0  0.00000000000E+00 -0.00000000000E+00 -0.61656244277E+03  0.61656244277E+03  0.00000000000E+00 0. -1.
         24    2    1    2    0    0 -0.29981149952E+03 -0.42891816670E+03  0.20840890185E+03  0.56912861188E+03  0.81334971091E+02 0.  0.
        254    2    1    2    0    0  0.29981149952E+03  0.42891816670E+03  0.18964793938E+03  0.10620531149E+04  0.90450690931E+03 0.  0.
         23    2    4    4    0    0  0.26233063053E+03 -0.46974946690E+02  0.19359373321E+03  0.34253279986E+03  0.93947752044E+02 0.  0.
          2    1    3    3  502    0 -0.30394353717E+03 -0.42652576090E+03  0.20248774427E+03  0.56152220355E+03  0.00000000000E+00 0. -1.
         -1    1    3    3    0  502  0.41320376484E+01 -0.23924057969E+01  0.59211575791E+01  0.76064083312E+01  0.00000000000E+00 0.  1.
         11    1    4    4    0    0  0.22843544128E+03  0.33643506402E+03  0.15435295356E+03  0.43496682334E+03  0.00000000000E+00 0. -1.
        -11    1    4    4    0    0 -0.19095457228E+03  0.13945804937E+03 -0.15829874739E+03  0.28455349170E+03  0.00000000000E+00 0.  1.
          3    1    5    5  503    0 -0.72479347196E+01 -0.52952037725E+01  0.11365410999E+02  0.14482551843E+02  0.00000000000E+00 0. -1.
         -3    1    5    5    0  503  0.26957856525E+03 -0.41679742918E+02  0.18222832221E+03  0.32805024802E+03  0.00000000000E+00 0.  1.
<mgrwt>
<rscale>  0 0.15818674E+04</rscale>
<asrwt>0</asrwt>
<pdfrwt beam="1">  1        2 0.94855760E-01 0.15818674E+04</pdfrwt>
<pdfrwt beam="2">  1       -1 0.15609527E+00 0.15818674E+04</pdfrwt>
<totfact> 0.16475977E+01</totfact>
</mgrwt>
</event>
<event>
12    6  0.1663299E-008  0.1247140E+04  0.7818608E-02  0.9072567E-01
          2   -1    0    0  501    0  0.00000000000E+00  0.00000000000E+00  0.10020299671E+04  0.10020299671E+04  0.00000000000E+00 0. -1.
         -1   -1    0    0    0  501 -0.00000000000E+00 -0.00000000000E+00 -0.38805203515E+03  0.38805203515E+03  0.00000000000E+00 0.  1.
         24    2    1    2    0    0 -0.25800089583E+03 -0.12382292350E+03  0.24186511717E+03  0.38307771935E+03  0.79707123411E+02 0.  0.
        254    2    1    2    0    0  0.25800089583E+03  0.12382292350E+03  0.37211281476E+03  0.10070042829E+04  0.89089455055E+03 0.  0.
         23    2    4    4    0    0  0.24992631651E+03  0.43732977743E+03  0.43575862994E+03  0.67527472424E+03  0.11130980062E+03 0.  0.
         23    2    4    4    0    0  0.80745793167E+01 -0.31350685393E+03 -0.63645815176E+02  0.33172955865E+03  0.87418327599E+02 0.  0.
          2    1    3    3  502    0 -0.24844503664E+03 -0.12218257621E+03  0.20376690028E+03  0.34376513466E+03  0.00000000000E+00 0. -1.
         -1    1    3    3    0  502 -0.95558591880E+01 -0.16403472908E+01  0.38098216893E+02  0.39312584683E+02  0.00000000000E+00 0.  1.
         11    1    5    5    0    0  0.14421990584E+02  0.88865360808E+02  0.42805010390E+02  0.99686082672E+02  0.00000000000E+00 0. -1.
        -11    1    5    5    0    0  0.23550432593E+03  0.34846441662E+03  0.39295361955E+03  0.57558864156E+03  0.00000000000E+00 0.  1.
          2    1    6    6  503    0 -0.17204087118E+02 -0.65686487379E+02  0.16811562433E+02  0.69952297097E+02  0.00000000000E+00 0. -1.
         -2    1    6    6    0  503  0.25278666435E+02 -0.24782036655E+03 -0.80457377609E+02  0.26177726155E+03  0.00000000000E+00 0.  1.
<mgrwt>
<rscale>  0 0.12471404E+04</rscale>
<asrwt>0</asrwt>
<pdfrwt beam="1">  1        2 0.15415845E+00 0.12471404E+04</pdfrwt>
<pdfrwt beam="2">  1       -1 0.59700314E-01 0.12471404E+04</pdfrwt>
<totfact> 0.80161547E+01</totfact>
</mgrwt>
</event>
<event>
11    6  0.1663299E-008  0.1348559E+04  0.7818608E-02  0.8991920E-01
          2   -1    0    0  501    0  0.00000000000E+00  0.00000000000E+00  0.47001130936E+03  0.47001130936E+03  0.00000000000E+00 0. -1.
         -1   -1    0    0    0  501 -0.00000000000E+00 -0.00000000000E+00 -0.96732286112E+03  0.96732286112E+03  0.00000000000E+00 0.  1.
         24    2    1    2    0    0 -0.17216405455E+03  0.10814928454E+02 -0.49444994689E+03  0.53323836295E+03  0.10052351660E+03 0.  0.
        254    2    1    2    0    0  0.17216405455E+03 -0.10814928454E+02 -0.28616048643E+01  0.90409580753E+03  0.88748161449E+03 0.  0.
         23    2    4    4    0    0  0.15770924491E+03  0.37160876666E+03 -0.16930432691E+03  0.44729821381E+03  0.91904600439E+02 0.  0.
          2    1    3    3  502    0 -0.87873043547E-01  0.19968534398E+02 -0.19157238701E+02  0.27672186078E+02  0.00000000000E+00 0. -1.
         -1    1    3    3    0  502 -0.17207618151E+03 -0.91536059435E+01 -0.47529270819E+03  0.50556617688E+03  0.00000000000E+00 0.  1.
         11    1    4    4    0    0  0.86229967073E+02 -0.11187212301E+03  0.25966458127E+02  0.14361488807E+03  0.00000000000E+00 0.  1.
        -11    1    4    4    0    0 -0.71775157430E+02 -0.27055157210E+03  0.14047626391E+03  0.31318270564E+03  0.00000000000E+00 0. -1.
          2    1    5    5  503    0  0.79453808103E+02  0.82794148822E+02 -0.44174667152E+02  0.12296007449E+03  0.00000000000E+00 0. -1.
         -2    1    5    5    0  503  0.78255436803E+02  0.28881461784E+03 -0.12512965975E+03  0.32433813932E+03  0.00000000000E+00 0.  1.
<mgrwt>
<rscale>  0 0.13485588E+04</rscale>
<asrwt>0</asrwt>
<pdfrwt beam="1">  1        2 0.72309433E-01 0.13485588E+04</pdfrwt>
<pdfrwt beam="2">  1       -1 0.14881890E+00 0.13485588E+04</pdfrwt>
<totfact> 0.26346323E+01</totfact>
</mgrwt>
</event>
<event>
12    6  0.1663299E-008  0.1540068E+04  0.7818608E-02  0.8858237E-01
         -1   -1    0    0    0  501 -0.00000000000E+00  0.00000000000E+00  0.13802682953E+04  0.13802682953E+04  0.00000000000E+00 0.  1.
          2   -1    0    0  501    0  0.00000000000E+00 -0.00000000000E+00 -0.42959182798E+03  0.42959182798E+03  0.00000000000E+00 0. -1.
         24    2    1    2    0    0 -0.24632754086E+03 -0.32452999589E+03  0.66047325269E+03  0.78002146825E+03  0.78813690390E+02 0.  0.
        254    2    1    2    0    0  0.24632754086E+03  0.32452999589E+03  0.29020321463E+03  0.10298386550E+04  0.90019596422E+03 0.  0.
         23    2    4    4    0    0  0.45273969233E+02 -0.25653560946E+03  0.29368160498E+03  0.40790867262E+03  0.11081673558E+03 0.  0.
         23    2    4    4    0    0  0.20105357162E+03  0.58106560535E+03 -0.34783903449E+01  0.62192998242E+03  0.93407855357E+02 0.  0.
          4    1    3    3  502    0 -0.67583357712E+02 -0.40975838649E+02  0.14526363450E+03  0.16537246779E+03  0.00000000000E+00 0. -1.
         -3    1    3    3    0  502 -0.17874418314E+03 -0.28355415725E+03  0.51520961818E+03  0.61464900046E+03  0.00000000000E+00 0.  1.
         11    1    5    5    0    0  0.33221070244E+02 -0.25122231578E+03  0.22787921145E+03  0.34080086043E+03  0.00000000000E+00 0. -1.
        -11    1    5    5    0    0  0.12052898989E+02 -0.53132936788E+01  0.65802393525E+02  0.67107812193E+02  0.00000000000E+00 0.  1.
          3    1    6    6  503    0 -0.68730171953E+01  0.35323650200E+01  0.23591012783E+01  0.80796860610E+01  0.00000000000E+00 0.  1.
         -3    1    6    6    0  503  0.20792658882E+03  0.57753324033E+03 -0.58374916232E+01  0.61385029636E+03  0.00000000000E+00 0. -1.
<mgrwt>
<rscale>  0 0.15400675E+04</rscale>
<asrwt>0</asrwt>
<pdfrwt beam="1">  1        2 0.66091051E-01 0.15400675E+04</pdfrwt>
<pdfrwt beam="2">  1       -1 0.21234897E+00 0.15400675E+04</pdfrwt>
<totfact> 0.10011599E+01</totfact>
</mgrwt>
</event>
<event>
11    6  0.1663299E-008  0.3364594E+04  0.7818608E-02  0.8146651E-01
          2   -1    0    0  501    0  0.00000000000E+00  0.00000000000E+00  0.18860823144E+04  0.18860823144E+04  0.00000000000E+00 0. -1.
         -1   -1    0    0    0  501 -0.00000000000E+00 -0.00000000000E+00 -0.15005299681E+04  0.15005299681E+04  0.00000000000E+00 0.  1.
         24    2    1    2    0    0 -0.40256524012E+03  0.76301983834E+03 -0.11313499714E+04  0.14248971356E+04  0.78237095629E+02 0.  0.
        254    2    1    2    0    0  0.40256524012E+03 -0.76301983834E+03  0.15169023178E+04  0.19617151469E+04  0.89614487090E+03 0.  0.
         23    2    4    4    0    0  0.46433104694E+03 -0.54060901791E+03  0.55364568171E+03  0.90700202977E+03  0.90926947223E+02 0.  0.
          4    1    3    3  502    0 -0.30829743782E+03  0.55821421134E+03 -0.78099900197E+03  0.10082707260E+04  0.00000000000E+00 0. -1.
         -3    1    3    3    0  502 -0.94267802296E+02  0.20480562699E+03 -0.35035096943E+03  0.41662640960E+03  0.00000000000E+00 0.  1.
         11    1    4    4    0    0 -0.17300525009E+03 -0.18983768299E+03  0.37107016776E+03  0.45128952108E+03  0.00000000000E+00 0. -1.
        -11    1    4    4    0    0  0.11123944327E+03 -0.32573137434E+02  0.59218646829E+03  0.60342359603E+03  0.00000000000E+00 0.  1.
          1    1    5    5  503    0  0.78447046664E+00 -0.27506886229E+01  0.16298650159E+02  0.16547739387E+02  0.00000000000E+00 0. -1.
         -1    1    5    5    0  503  0.46354657647E+03 -0.53785832929E+03  0.53734703155E+03  0.89045429039E+03  0.00000000000E+00 0.  1.
<mgrwt>
<rscale>  0 0.33645939E+04</rscale>
<asrwt>0</asrwt>
<pdfrwt beam="1">  1        2 0.29016651E+00 0.33645939E+04</pdfrwt>
<pdfrwt beam="2">  1       -1 0.23085076E+00 0.33645939E+04</pdfrwt>
<totfact> 0.68078658E-01</totfact>
</mgrwt>
</event>
<event>
12    6  0.1663299E-008  0.1453853E+04  0.7818608E-02  0.8915734E-01
          2   -1    0    0  501    0  0.00000000000E+00  0.00000000000E+00  0.24978550654E+04  0.24978550654E+04  0.00000000000E+00 0. -1.
         -1   -1    0    0    0  501 -0.00000000000E+00 -0.00000000000E+00 -0.21155042175E+03  0.21155042175E+03  0.00000000000E+00 0.  1.
         24    2    1    2    0    0  0.32913824087E+03  0.17023728460E+03  0.35843054940E+03  0.52183756751E+03  0.80803919735E+02 0.  0.
        254    2    1    2    0    0 -0.32913824087E+03 -0.17023728460E+03  0.19278740942E+04  0.21875679196E+04  0.96511251420E+03 0.  0.
         23    2    4    4    0    0 -0.12085471597E+02  0.30757373768E+03  0.12650139195E+04  0.13062918871E+04  0.10672682405E+03 0.  0.
         23    2    4    4    0    0 -0.31705276927E+03 -0.47781102228E+03  0.66286017474E+03  0.88127603255E+03  0.91858602111E+02 0.  0.
          2    1    3    3  502    0  0.35489206192E+02  0.32966492304E+02  0.84697544546E+02  0.97570217911E+02  0.00000000000E+00 0. -1.
         -1    1    3    3    0  502  0.29364903468E+03  0.13727079229E+03  0.27373300486E+03  0.42426734960E+03  0.00000000000E+00 0.  1.
         11    1    5    5    0    0 -0.11093755597E+02  0.27924421272E+03  0.95682700754E+03  0.99680405502E+03  0.00000000000E+00 0. -1.
        -11    1    5    5    0    0 -0.99171600057E+00  0.28329524964E+02  0.30818691194E+03  0.30948783203E+03  0.00000000000E+00 0.  1.
          1    1    6    6  503    0 -0.21703728678E+03 -0.38889804041E+03  0.53598253512E+03  0.69686738167E+03  0.00000000000E+00 0. -1.
         -1    1    6    6    0  503 -0.10001548250E+03 -0.88912981864E+02  0.12687763962E+03  0.18440865088E+03  0.00000000000E+00 0.  1.
<mgrwt>
<rscale>  0 0.14538532E+04</rscale>
<asrwt>0</asrwt>
<pdfrwt beam="1">  1        2 0.38428537E+00 0.14538532E+04</pdfrwt>
<pdfrwt beam="2">  1       -1 0.32546221E-01 0.14538532E+04</pdfrwt>
<totfact> 0.34166448E+01</totfact>
</mgrwt>
</event>
<event>
12    6  0.1663299E-008  0.1436179E+04  0.7818608E-02  0.8928038E-01
          2   -1    0    0  501    0  0.00000000000E+00  0.00000000000E+00  0.56883669190E+03  0.56883669190E+03  0.00000000000E+00 0. -1.
         -1   -1    0    0    0  501 -0.00000000000E+00 -0.00000000000E+00 -0.90650417433E+03  0.90650417433E+03  0.00000000000E+00 0.  1.
         24    2    1    2    0    0 -0.90936619745E+02  0.36512332852E+03 -0.31572730272E+03  0.49717954395E+03  0.76936697338E+02 0.  0.
        254    2    1    2    0    0  0.90936619745E+02 -0.36512332852E+03 -0.21940179711E+02  0.97816132229E+03  0.90262599514E+03 0.  0.
         23    2    4    4    0    0  0.18172165536E+02 -0.64892759246E+03  0.58665876150E+02  0.66074971028E+03  0.10821851394E+03 0.  0.
         23    2    4    4    0    0  0.72764454209E+02  0.28380426394E+03 -0.80606055861E+02  0.31741161201E+03  0.91723874588E+02 0.  0.
          2    1    3    3  502    0 -0.26046094469E+02  0.23572351806E+03 -0.22109879521E+03  0.32423549042E+03  0.00000000000E+00 0. -1.
         -1    1    3    3    0  502 -0.64890525276E+02  0.12939981046E+03 -0.94628507511E+02  0.17294405353E+03  0.00000000000E+00 0.  1.
         11    1    5    5    0    0 -0.26646924553E+02 -0.53265475807E+03  0.41042391447E+02  0.53489777320E+03  0.00000000000E+00 0. -1.
        -11    1    5    5    0    0  0.44819090088E+02 -0.11627283439E+03  0.17623484704E+02  0.12585193708E+03  0.00000000000E+00 0.  1.
          3    1    6    6  503    0  0.85519639562E+02  0.27936694483E+03 -0.82936497763E+02  0.30370703198E+03  0.00000000000E+00 0. -1.
         -3    1    6    6    0  503 -0.12755185352E+02  0.44373191118E+01  0.23304419020E+01  0.13704580027E+02  0.00000000000E+00 0.  1.
<mgrwt>
<rscale>  0 0.14361794E+04</rscale>
<asrwt>0</asrwt>
<pdfrwt beam="1">  1        2 0.87513338E-01 0.14361794E+04</pdfrwt>
<pdfrwt beam="2">  1       -1 0.13946218E+00 0.14361794E+04</pdfrwt>
<totfact> 0.24848548E+01</totfact>
</mgrwt>
</event>
<event>
11    6  0.1663299E-008  0.1271343E+04  0.7818608E-02  0.9052604E-01
         -1   -1    0    0    0  501 -0.00000000000E+00  0.00000000000E+00  0.65811661355E+03  0.65811661355E+03  0.00000000000E+00 0.  1.
          2   -1    0    0  501    0  0.00000000000E+00 -0.00000000000E+00 -0.61399190282E+03  0.61399190282E+03  0.00000000000E+00 0. -1.
         24    2    1    2    0    0 -0.10419236600E+03 -0.18354249576E+03  0.24596569629E+03  0.33469094911E+03  0.83516529968E+02 0.  0.
        254    2    1    2    0    0  0.10419236600E+03  0.18354249576E+03 -0.20184098556E+03  0.93741756726E+03  0.89076821625E+03 0.  0.
         23    2    4    4    0    0  0.27860607815E+03  0.26803747319E+03 -0.38115949339E+03  0.55066013203E+03  0.92079247302E+02 0.  0.
          4    1    3    3  502    0 -0.44721831229E+02 -0.34113714757E+02  0.25399889343E+02  0.61716627432E+02  0.00000000000E+00 0. -1.
         -3    1    3    3    0  502 -0.59470534775E+02 -0.14942878101E+03  0.22056580694E+03  0.27297432167E+03  0.00000000000E+00 0.  1.
         11    1    4    4    0    0 -0.74735613469E+02 -0.69396009213E+00  0.23390500696E+03  0.24555538231E+03  0.00000000000E+00 0. -1.
        -11    1    4    4    0    0 -0.99678098682E+02 -0.83801017337E+02 -0.54586499126E+02  0.14120205293E+03  0.00000000000E+00 0.  1.
          3    1    5    5  503    0  0.21148523078E+03  0.23940996424E+03 -0.34146645872E+03  0.46759221149E+03  0.00000000000E+00 0. -1.
         -3    1    5    5    0  503  0.67120847376E+02  0.28627508950E+02 -0.39693034671E+02  0.83067920538E+02  0.00000000000E+00 0.  1.
<mgrwt>
<rscale>  0 0.12713430E+04</rscale>
<asrwt>0</asrwt>
<pdfrwt beam="1">  1        2 0.94460292E-01 0.12713430E+04</pdfrwt>
<pdfrwt beam="2">  1       -1 0.10124871E+00 0.12713430E+04</pdfrwt>
<totfact> 0.50159748E+01</totfact>
</mgrwt>
</event>
<event>
11    6  0.1663299E-008  0.2625653E+04  0.7818608E-02  0.8359539E-01
          2   -1    0    0  501    0  0.00000000000E+00  0.00000000000E+00  0.10275993477E+04  0.10275993477E+04  0.00000000000E+00 0. -1.
         -1   -1    0    0    0  501 -0.00000000000E+00 -0.00000000000E+00 -0.16772237548E+04  0.16772237548E+04  0.00000000000E+00 0.  1.
         24    2    1    2    0    0  0.85960469304E+03 -0.14956755562E+03  0.49399956497E+03  0.10058781956E+04  0.80403309370E+02 0.  0.
        254    2    1    2    0    0 -0.85960469304E+03  0.14956755562E+03 -0.11436239721E+04  0.16989449069E+04  0.90401732575E+03 0.  0.
         23    2    4    4    0    0 -0.11721710438E+03  0.27174112355E+03 -0.39660247313E+02  0.31270353952E+03  0.92884232369E+02 0.  0.
          4    1    3    3  502    0  0.73407621186E+03 -0.12882731865E+03  0.38780509499E+03  0.84015305425E+03  0.00000000000E+00 0. -1.
         -3    1    3    3    0  502  0.12552848117E+03 -0.20740236969E+02  0.10619446998E+03  0.16572514133E+03  0.00000000000E+00 0.  1.
         11    1    4    4    0    0 -0.52106406123E+03 -0.14095489408E+03 -0.10097318067E+04  0.11449604183E+04  0.00000000000E+00 0.  1.
        -11    1    4    4    0    0 -0.22132352743E+03  0.18781326146E+02 -0.94231918085E+02  0.24128094909E+03  0.00000000000E+00 0. -1.
          1    1    5    5  503    0 -0.23290852059E+02  0.10477856421E+03 -0.54840404830E+02  0.12053414997E+03  0.00000000000E+00 0. -1.
         -1    1    5    5    0  503 -0.93926252316E+02  0.16696255934E+03  0.15180157518E+02  0.19216938954E+03  0.00000000000E+00 0.  1.
<mgrwt>
<rscale>  0 0.26256535E+04</rscale>
<asrwt>0</asrwt>
<pdfrwt beam="1">  1        2 0.15809221E+00 0.26256535E+04</pdfrwt>
<pdfrwt beam="2">  1       -1 0.25803442E+00 0.26256535E+04</pdfrwt>
<totfact> 0.15036807E+00</totfact>
</mgrwt>
</event>
<event>
11    6  0.1663299E-008  0.1787236E+04  0.7818608E-02  0.8713117E-01
         -1   -1    0    0    0  501 -0.00000000000E+00  0.00000000000E+00  0.79614286084E+03  0.79614286084E+03  0.00000000000E+00 0.  1.
          2   -1    0    0  501    0  0.00000000000E+00 -0.00000000000E+00 -0.10030272218E+04  0.10030272218E+04  0.00000000000E+00 0. -1.
         24    2    1    2    0    0  0.50773210928E+03 -0.38785226103E+03 -0.25352306556E+03  0.69199356407E+03  0.79748835462E+02 0.  0.
        254    2    1    2    0    0 -0.50773210928E+03  0.38785226103E+03  0.46638704637E+02  0.11071765185E+04  0.90301904921E+03 0.  0.
         23    2    4    4    0    0  0.80894735804E+01 -0.20325395375E+03 -0.17294644871E+03  0.28142709009E+03  0.88955739654E+02 0.  0.
          4    1    3    3  502    0  0.20371606293E+03 -0.19444642375E+03 -0.13794163957E+03  0.31358817250E+03  0.00000000000E+00 0. -1.
         -3    1    3    3    0  502  0.30401604635E+03 -0.19340583729E+03 -0.11558142599E+03  0.37840539157E+03  0.00000000000E+00 0.  1.
         11    1    4    4    0    0 -0.29792882675E+03  0.23923215444E+03  0.11010970637E+03  0.39764023560E+03  0.00000000000E+00 0. -1.
        -11    1    4    4    0    0 -0.21789275611E+03  0.35187406034E+03  0.10947544698E+03  0.42810919284E+03  0.00000000000E+00 0.  1.
          3    1    5    5  503    0  0.21183129721E+02 -0.20030487282E+03 -0.13846195233E+03  0.24442274711E+03  0.00000000000E+00 0. -1.
         -3    1    5    5    0  503 -0.13093656141E+02 -0.29490809353E+01 -0.34484496374E+02  0.37004342984E+02  0.00000000000E+00 0.  1.
<mgrwt>
<rscale>  0 0.17872358E+04</rscale>
<asrwt>0</asrwt>
<pdfrwt beam="1">  1        2 0.15431188E+00 0.17872358E+04</pdfrwt>
<pdfrwt beam="2">  1       -1 0.12248352E+00 0.17872358E+04</pdfrwt>
<totfact> 0.15915509E+01</totfact>
</mgrwt>
</event>
<event>
12    6  0.1663299E-008  0.1494407E+04  0.7818608E-02  0.8888181E-01
         -1   -1    0    0    0  501 -0.00000000000E+00  0.00000000000E+00  0.41575554700E+03  0.41575554700E+03  0.00000000000E+00 0.  1.
          2   -1    0    0  501    0  0.00000000000E+00 -0.00000000000E+00 -0.13428881431E+04  0.13428881431E+04  0.00000000000E+00 0. -1.
         24    2    1    2    0    0  0.21121113254E+03 -0.17063890032E+03 -0.74693536216E+03  0.79883271838E+03  0.80582255446E+02 0.  0.
        254    2    1    2    0    0 -0.21121113254E+03  0.17063890032E+03 -0.18019723397E+03  0.95981097176E+03  0.90279470621E+03 0.  0.
         23    2    4    4    0    0  0.17517649777E+03  0.38391576163E+03  0.84938317909E+02  0.43703409218E+03  0.75539145347E+02 0.  0.
         23    2    4    4    0    0 -0.38638763031E+03 -0.21327686131E+03 -0.26513555188E+03  0.52277687958E+03  0.90644274619E+02 0.  0.
          4    1    3    3  502    0  0.15359369716E+03 -0.11314403169E+03 -0.61403888690E+03  0.64299016349E+03  0.00000000000E+00 0. -1.
         -3    1    3    3    0  502  0.57617435376E+02 -0.57494868632E+02 -0.13289647527E+03  0.15584255490E+03  0.00000000000E+00 0.  1.
         11    1    5    5    0    0  0.93776092103E+02  0.16976102720E+03  0.74295401643E+02  0.20768381861E+03  0.00000000000E+00 0. -1.
        -11    1    5    5    0    0  0.81400405669E+02  0.21415473443E+03  0.10642916267E+02  0.22935027357E+03  0.00000000000E+00 0.  1.
          4    1    6    6  503    0 -0.39009194885E+03 -0.20325377646E+03 -0.25876840378E+03  0.51033803797E+03  0.00000000000E+00 0. -1.
         -4    1    6    6    0  503  0.37043185348E+01 -0.10023084847E+02 -0.63671481018E+01  0.12438841611E+02  0.00000000000E+00 0.  1.
<mgrwt>
<rscale>  0 0.14944072E+04</rscale>
<asrwt>0</asrwt>
<pdfrwt beam="1">  1        2 0.20659818E+00 0.14944072E+04</pdfrwt>
<pdfrwt beam="2">  1       -1 0.63962392E-01 0.14944072E+04</pdfrwt>
<totfact> 0.42629302E+01</totfact>
</mgrwt>
</event>
<event>
12    6  0.1663299E-008  0.1329670E+04  0.7818608E-02  0.9006362E-01
         -1   -1    0    0    0  501 -0.00000000000E+00  0.00000000000E+00  0.28045859312E+03  0.28045859312E+03  0.00000000000E+00 0.  1.
          2   -1    0    0  501    0  0.00000000000E+00 -0.00000000000E+00 -0.15760103657E+04  0.15760103657E+04  0.00000000000E+00 0. -1.
         24    2    1    2    0    0 -0.40886372576E+02 -0.19894063745E+03  0.53288393093E+02  0.22368470526E+03  0.77111100613E+02 0.  0.
        254    2    1    2    0    0  0.40886372576E+02  0.19894063745E+03 -0.13488401657E+04  0.16327842535E+04  0.89742161410E+03 0.  0.
         23    2    4    4    0    0 -0.25322415252E+03  0.43694787667E+03 -0.89409564695E+03  0.10347019986E+04  0.12710342916E+03 0.  0.
         23    2    4    4    0    0  0.29411052510E+03 -0.23800723922E+03 -0.45474451870E+03  0.59808225492E+03  0.88098578162E+02 0.  0.
          2    1    3    3  502    0  0.19031646786E+02 -0.44183684796E+02 -0.36264975569E+01  0.48244720603E+02  0.00000000000E+00 0. -1.
         -1    1    3    3    0  502 -0.59918019362E+02 -0.15475695266E+03  0.56914890649E+02  0.17543998466E+03  0.00000000000E+00 0.  1.
         11    1    5    5    0    0 -0.11939706878E+03  0.27495859826E+03 -0.41872954930E+03  0.51496827693E+03  0.00000000000E+00 0. -1.
        -11    1    5    5    0    0 -0.13382708374E+03  0.16198927841E+03 -0.47536609766E+03  0.51973372169E+03  0.00000000000E+00 0.  1.
          1    1    6    6  503    0  0.14651872684E+03 -0.12901569932E+03 -0.30070084181E+03  0.35851608646E+03  0.00000000000E+00 0. -1.
         -1    1    6    6    0  503  0.14759179826E+03 -0.10899153989E+03 -0.15404367689E+03  0.23956616846E+03  0.00000000000E+00 0.  1.
<mgrwt>
<rscale>  0 0.13296701E+04</rscale>
<asrwt>0</asrwt>
<pdfrwt beam="1">  1        2 0.24246313E+00 0.13296701E+04</pdfrwt>
<pdfrwt beam="2">  1       -1 0.43147476E-01 0.13296701E+04</pdfrwt>
<totfact> 0.67885643E+01</totfact>
</mgrwt>
</event>
<event>
12    6  0.1663299E-008  0.1052857E+04  0.7818608E-02  0.9252400E-01
          2   -1    0    0  501    0  0.00000000000E+00  0.00000000000E+00  0.63639966014E+03  0.63639966014E+03  0.00000000000E+00 0. -1.
         -1   -1    0    0    0  501 -0.00000000000E+00 -0.00000000000E+00 -0.43546018389E+03  0.43546018389E+03  0.00000000000E+00 0.  1.
         24    2    1    2    0    0 -0.32217263588E+01  0.10983671986E+03 -0.24575899188E+02  0.13995968487E+03  0.83127937658E+02 0.  0.
        254    2    1    2    0    0  0.32217263588E+01 -0.10983671986E+03  0.22551537544E+03  0.93190015916E+03  0.89749999305E+03 0.  0.
         23    2    4    4    0    0 -0.13436026646E+03 -0.47057397722E+03  0.69518805324E+02  0.50554491239E+03  0.10606717165E+03 0.  0.
         23    2    4    4    0    0  0.13758199282E+03  0.36073725737E+03  0.15599657012E+03  0.42635524677E+03  0.91562508485E+02 0.  0.
          2    1    3    3  502    0 -0.69690811374E+01  0.40222434584E+02  0.30628391251E+02  0.51034406888E+02  0.00000000000E+00 0. -1.
         -1    1    3    3    0  502  0.37473547786E+01  0.69614285272E+02 -0.55204290439E+02  0.88925277985E+02  0.00000000000E+00 0.  1.
         11    1    5    5    0    0 -0.68372893155E+02 -0.22984920151E+03 -0.19371206955E+02  0.24058418820E+03  0.00000000000E+00 0. -1.
        -11    1    5    5    0    0 -0.65987373308E+02 -0.24072477571E+03  0.88890012279E+02  0.26496072419E+03  0.00000000000E+00 0.  1.
          2    1    6    6  503    0  0.30558163352E+02  0.66268463259E+02  0.70772928391E+02  0.10165686383E+03  0.00000000000E+00 0. -1.
         -2    1    6    6    0  503  0.10702382947E+03  0.29446879411E+03  0.85223641726E+02  0.32469838294E+03  0.00000000000E+00 0.  1.
<mgrwt>
<rscale>  0 0.10528565E+04</rscale>
<asrwt>0</asrwt>
<pdfrwt beam="1">  1        2 0.97907640E-01 0.10528565E+04</pdfrwt>
<pdfrwt beam="2">  1       -1 0.66993875E-01 0.10528565E+04</pdfrwt>
<totfact> 0.11852381E+02</totfact>
</mgrwt>
</event>
<event>
12    6  0.1663299E-008  0.1564837E+04  0.7818608E-02  0.8842446E-01
         -1   -1    0    0    0  501 -0.00000000000E+00  0.00000000000E+00  0.74299591086E+03  0.74299591086E+03  0.00000000000E+00 0.  1.
          2   -1    0    0  501    0  0.00000000000E+00 -0.00000000000E+00 -0.82393308182E+03  0.82393308182E+03  0.00000000000E+00 0. -1.
         24    2    1    2    0    0  0.23854352704E+03  0.33423657829E+03  0.26840467271E+03  0.49683133841E+03  0.78633364041E+02 0.  0.
        254    2    1    2    0    0 -0.23854352704E+03 -0.33423657829E+03 -0.34934184367E+03  0.10700976543E+04  0.92436581578E+03 0.  0.
         23    2    4    4    0    0 -0.40544802694E+03  0.18485451602E+03 -0.22360901855E+03  0.50313040070E+03  0.67675049267E+02 0.  0.
         23    2    4    4    0    0  0.16690449990E+03 -0.51909109431E+03 -0.12573282512E+03  0.56696725357E+03  0.91271282608E+02 0.  0.
          4    1    3    3  502    0  0.17418692545E+01  0.32164629615E+02  0.85884591589E+01  0.33337053522E+02  0.00000000000E+00 0. -1.
         -3    1    3    3    0  502  0.23680165778E+03  0.30207194867E+03  0.25981621355E+03  0.46349428489E+03  0.00000000000E+00 0.  1.
         11    1    5    5    0    0 -0.18290331967E+03  0.80817973338E+02 -0.13808360366E+03  0.24300668872E+03  0.00000000000E+00 0.  1.
        -11    1    5    5    0    0 -0.22254470726E+03  0.10403654269E+03 -0.85525414894E+02  0.26012371199E+03  0.00000000000E+00 0. -1.
          3    1    6    6  503    0  0.23229591092E+02 -0.47469925228E+02 -0.40616309324E+02  0.66653524187E+02  0.00000000000E+00 0. -1.
         -3    1    6    6    0  503  0.14367490881E+03 -0.47162116908E+03 -0.85116515793E+02  0.50031372938E+03  0.00000000000E+00 0.  1.
<mgrwt>
<rscale>  0 0.15648373E+04</rscale>
<asrwt>0</asrwt>
<pdfrwt beam="1">  1        2 0.12675894E+00 0.15648373E+04</pdfrwt>
<pdfrwt beam="2">  1       -1 0.11430706E+00 0.15648373E+04</pdfrwt>
<totfact> 0.25317956E+01</totfact>
</mgrwt>
</event>
<event>
11    6  0.1663299E-008  0.1728693E+04  0.7818608E-02  0.8745167E-01
         -1   -1    0    0    0  501 -0.00000000000E+00  0.00000000000E+00  0.91362434882E+03  0.91362434882E+03  0.00000000000E+00 0.  1.
          2   -1    0    0  501    0  0.00000000000E+00 -0.00000000000E+00 -0.81772698895E+03  0.81772698895E+03  0.00000000000E+00 0. -1.
         24    2    1    2    0    0  0.13493011679E+03 -0.38681224908E+03 -0.43012560733E+03  0.59929181542E+03  0.79453064688E+02 0.  0.
        254    2    1    2    0    0 -0.13493011679E+03  0.38681224908E+03  0.52602296720E+03  0.11320595224E+04  0.91489275201E+03 0.  0.
         23    2    4    4    0    0  0.34151778843E+03  0.35982453505E+02  0.29191277273E+03  0.45985161771E+03  0.91221196271E+02 0.  0.
          4    1    3    3  502    0  0.33839571504E+02 -0.21473298298E+03 -0.23640368639E+03  0.32115739680E+03  0.00000000000E+00 0. -1.
         -3    1    3    3    0  502  0.10109054528E+03 -0.17207926610E+03 -0.19372192094E+03  0.27813441862E+03  0.00000000000E+00 0.  1.
         11    1    4    4    0    0 -0.10871782378E+03  0.49922763911E+01  0.10483449290E+03  0.15111174320E+03  0.00000000000E+00 0. -1.
        -11    1    4    4    0    0 -0.36773008143E+03  0.34583751919E+03  0.12927570157E+03  0.52109616145E+03  0.00000000000E+00 0.  1.
          1    1    5    5  503    0  0.11782146016E+03 -0.27393076334E+02  0.12264373851E+03  0.17226074336E+03  0.00000000000E+00 0. -1.
         -1    1    5    5    0  503  0.22369632827E+03  0.63375529839E+02  0.16926903422E+03  0.28759087435E+03  0.00000000000E+00 0.  1.
<mgrwt>
<rscale>  0 0.17286935E+04</rscale>
<asrwt>0</asrwt>
<pdfrwt beam="1">  1        2 0.12580415E+00 0.17286935E+04</pdfrwt>
<pdfrwt beam="2">  1       -1 0.14055759E+00 0.17286935E+04</pdfrwt>
<totfact> 0.15039398E+01</totfact>
</mgrwt>
</event>
<event>
12    6  0.1663299E-008  0.1469349E+04  0.7818608E-02  0.8905095E-01
          2   -1    0    0  501    0  0.00000000000E+00  0.00000000000E+00  0.12450646727E+04  0.12450646727E+04  0.00000000000E+00 0. -1.
         -1   -1    0    0    0  501 -0.00000000000E+00 -0.00000000000E+00 -0.43350917945E+03  0.43350917945E+03  0.00000000000E+00 0.  1.
         24    2    1    2    0    0  0.33461410287E+03  0.29922039767E+03  0.19603703407E+03  0.49685121512E+03  0.83253630647E+02 0.  0.
        254    2    1    2    0    0 -0.33461410287E+03 -0.29922039767E+03  0.61551845915E+03  0.11817226370E+04  0.90338583842E+03 0.  0.
         23    2    4    4    0    0 -0.57736570783E+03 -0.42584181722E+03  0.45132992626E+03  0.85063137107E+03  0.71990369069E+02 0.  0.
         23    2    4    4    0    0  0.24275160497E+03  0.12662141955E+03  0.16418853289E+03  0.33109126594E+03  0.87762329324E+02 0.  0.
          4    1    3    3  502    0  0.23513691510E+03  0.25736349029E+03  0.14812162421E+03  0.37876820159E+03  0.00000000000E+00 0. -1.
         -3    1    3    3    0  502  0.99477187772E+02  0.41856907385E+02  0.47915409858E+02  0.11808301353E+03  0.00000000000E+00 0.  1.
         11    1    5    5    0    0 -0.62558280353E+02 -0.20634905013E+02  0.40715325433E+02  0.77440786868E+02  0.00000000000E+00 0. -1.
        -11    1    5    5    0    0 -0.51480742748E+03 -0.40520691221E+03  0.41061460083E+03  0.77319058420E+03  0.00000000000E+00 0.  1.
          3    1    6    6  503    0  0.55839754486E+01 -0.61275751381E+01  0.23760232737E+02  0.25164987952E+02  0.00000000000E+00 0. -1.
         -3    1    6    6    0  503  0.23716762952E+03  0.13274899468E+03  0.14042830015E+03  0.30592627799E+03  0.00000000000E+00 0.  1.
<mgrwt>
<rscale>  0 0.14693495E+04</rscale>
<asrwt>0</asrwt>
<pdfrwt beam="1">  1        2 0.19154841E+00 0.14693495E+04</pdfrwt>
<pdfrwt beam="2">  1       -1 0.66693721E-01 0.14693495E+04</pdfrwt>
<totfact> 0.44783679E+01</totfact>
</mgrwt>
</event>
<event>
12    6  0.1663299E-008  0.1594318E+04  0.7818608E-02  0.8824046E-01
          2   -1    0    0  501    0  0.00000000000E+00  0.00000000000E+00  0.17185772608E+04  0.17185772608E+04  0.00000000000E+00 0. -1.
         -1   -1    0    0    0  501 -0.00000000000E+00 -0.00000000000E+00 -0.36976076686E+03  0.36976076686E+03  0.00000000000E+00 0.  1.
         24    2    1    2    0    0  0.24698545658E+02  0.52086872792E+03  0.28231701522E+03  0.59829332361E+03  0.79610012587E+02 0.  0.
        254    2    1    2    0    0 -0.24698545658E+02 -0.52086872792E+03  0.10664994787E+04  0.14900447040E+04  0.90049865745E+03 0.  0.
         23    2    4    4    0    0  0.30659036199E+03 -0.35898449246E+03  0.98883573853E+03  0.11020663857E+04  0.11784177847E+03 0.  0.
         23    2    4    4    0    0 -0.33128890765E+03 -0.16188423546E+03  0.77663740167E+02  0.38797831836E+03  0.92394117546E+02 0.  0.
          2    1    3    3  502    0 -0.21220560840E+02  0.18794752213E+03  0.75318467069E+02  0.20358647981E+03  0.00000000000E+00 0. -1.
         -1    1    3    3    0  502  0.45919106498E+02  0.33292120579E+03  0.20699854815E+03  0.39470684380E+03  0.00000000000E+00 0.  1.
         11    1    5    5    0    0  0.19106424066E+03 -0.15906866209E+03  0.60566305953E+03  0.65470308155E+03  0.00000000000E+00 0. -1.
        -11    1    5    5    0    0  0.11552612133E+03 -0.19991583038E+03  0.38317267900E+03  0.44736330413E+03  0.00000000000E+00 0.  1.
          1    1    6    6  503    0 -0.33543560027E+03 -0.15020561522E+03  0.77347008588E+02  0.37558132076E+03  0.00000000000E+00 0. -1.
         -1    1    6    6    0  503  0.41466926179E+01 -0.11678620243E+02  0.31673157908E+00  0.12396997594E+02  0.00000000000E+00 0.  1.
<mgrwt>
<rscale>  0 0.15943180E+04</rscale>
<asrwt>0</asrwt>
<pdfrwt beam="1">  1        2 0.26439650E+00 0.15943180E+04</pdfrwt>
<pdfrwt beam="2">  1       -1 0.56886273E-01 0.15943180E+04</pdfrwt>
<totfact> 0.32739895E+01</totfact>
</mgrwt>
</event>
<event>
12    6  0.1663299E-008  0.1754161E+04  0.7818608E-02  0.8731063E-01
         -1   -1    0    0    0  501 -0.00000000000E+00  0.00000000000E+00  0.60603448529E+03  0.60603448529E+03  0.00000000000E+00 0.  1.
          2   -1    0    0  501    0  0.00000000000E+00 -0.00000000000E+00 -0.12693500687E+04  0.12693500687E+04  0.00000000000E+00 0. -1.
         24    2    1    2    0    0  0.53572324360E+03 -0.15074920913E+03 -0.57537979673E+03  0.80444576362E+03  0.79664034172E+02 0.  0.
        254    2    1    2    0    0 -0.53572324360E+03  0.15074920913E+03 -0.87935786701E+02  0.10709387904E+04  0.91074281353E+03 0.  0.
         23    2    4    4    0    0 -0.75738441615E+03  0.51155940259E+02  0.64410926054E+02  0.77083636356E+03  0.11743869862E+03 0.  0.
         23    2    4    4    0    0  0.22166117255E+03  0.99593268872E+02 -0.15234671276E+03  0.30010242683E+03  0.88314500967E+02 0.  0.
          2    1    3    3  502    0  0.37539729303E+03 -0.10372944910E+03 -0.45262436174E+03  0.59711953499E+03  0.00000000000E+00 0. -1.
         -1    1    3    3    0  502  0.16032595058E+03 -0.47019760036E+02 -0.12275543498E+03  0.20732622864E+03  0.00000000000E+00 0.  1.
         11    1    5    5    0    0 -0.71696813876E+03  0.45655664474E+02  0.87883773868E+02  0.72377573143E+03  0.00000000000E+00 0. -1.
        -11    1    5    5    0    0 -0.40416277394E+02  0.55002757852E+01 -0.23472847814E+02  0.47060632131E+02  0.00000000000E+00 0.  1.
          3    1    6    6  503    0  0.20991265584E+03  0.92873037887E+02 -0.10789098189E+03  0.25363199369E+03  0.00000000000E+00 0. -1.
         -3    1    6    6    0  503  0.11748516706E+02  0.67202309844E+01 -0.44455730869E+02  0.46470433142E+02  0.00000000000E+00 0.  1.
<mgrwt>
<rscale>  0 0.17541607E+04</rscale>
<asrwt>0</asrwt>
<pdfrwt beam="1">  1        2 0.19528462E+00 0.17541607E+04</pdfrwt>
<pdfrwt beam="2">  1       -1 0.93236075E-01 0.17541607E+04</pdfrwt>
<totfact> 0.20785644E+01</totfact>
</mgrwt>
</event>
<event>
11    6  0.1663299E-008  0.2711967E+04  0.7818608E-02  0.8331133E-01
          2   -1    0    0  501    0  0.00000000000E+00  0.00000000000E+00  0.34202137476E+04  0.34202137476E+04  0.00000000000E+00 0. -1.
         -1   -1    0    0    0  501 -0.00000000000E+00 -0.00000000000E+00 -0.53759543817E+03  0.53759543817E+03  0.00000000000E+00 0.  1.
         24    2    1    2    0    0  0.42518301751E+03  0.48113122177E+03  0.27721809269E+04  0.28465947307E+04  0.76463186383E+02 0.  0.
        254    2    1    2    0    0 -0.42518301751E+03 -0.48113122177E+03  0.11043738260E+03  0.11112144551E+04  0.90018514691E+03 0.  0.
         23    2    4    4    0    0 -0.17059014846E+03  0.15679146888E+03 -0.10342676822E+03  0.26824126446E+03  0.87015608416E+02 0.  0.
          2    1    3    3  502    0  0.39744377388E+03  0.42529709668E+03  0.24271225437E+04  0.24959493216E+04  0.00000000000E+00 0. -1.
         -1    1    3    3    0  502  0.27739243620E+02  0.55834125087E+02  0.34505838317E+03  0.35064540915E+03  0.00000000000E+00 0.  1.
         11    1    4    4    0    0  0.63713263369E+02  0.20535116091E+02  0.71391887201E+02  0.97866605541E+02  0.00000000000E+00 0. -1.
        -11    1    4    4    0    0 -0.31830613241E+03 -0.65845780674E+03  0.14247226362E+03  0.74510658505E+03  0.00000000000E+00 0.  1.
          1    1    5    5  503    0 -0.16976696985E+02 -0.48059668328E+01 -0.27567343088E+02  0.32730168998E+02  0.00000000000E+00 0. -1.
         -1    1    5    5    0  503 -0.15361345148E+03  0.16159743571E+03 -0.75859425134E+02  0.23551109546E+03  0.00000000000E+00 0.  1.
<mgrwt>
<rscale>  0 0.27119670E+04</rscale>
<asrwt>0</asrwt>
<pdfrwt beam="1">  1        2 0.52618672E+00 0.27119670E+04</pdfrwt>
<pdfrwt beam="2">  1       -1 0.82706993E-01 0.27119670E+04</pdfrwt>
<totfact> 0.13364069E+00</totfact>
</mgrwt>
</event>
<event>
11    6  0.1663299E-008  0.1604901E+04  0.7818608E-02  0.8817543E-01
         -1   -1    0    0    0  501 -0.00000000000E+00  0.00000000000E+00  0.44250684951E+03  0.44250684951E+03  0.00000000000E+00 0.  1.
          2   -1    0    0  501    0  0.00000000000E+00 -0.00000000000E+00 -0.14551794136E+04  0.14551794136E+04  0.00000000000E+00 0. -1.
         24    2    1    2    0    0  0.35297109157E+03 -0.42438051699E+03 -0.37642513377E+03  0.67285896476E+03  0.79723838624E+02 0.  0.
        254    2    1    2    0    0 -0.35297109157E+03  0.42438051699E+03 -0.63624743028E+03  0.12248272983E+04  0.88921521775E+03 0.  0.
         23    2    4    4    0    0 -0.15523533166E+03 -0.10715379248E+03  0.10521583788E+03  0.23407426234E+03  0.90224410854E+02 0.  0.
          4    1    3    3  502    0  0.13227152182E+03 -0.13465544514E+03 -0.17109181934E+03  0.25475528461E+03  0.00000000000E+00 0. -1.
         -3    1    3    3    0  502  0.22069956974E+03 -0.28972507185E+03 -0.20533331443E+03  0.41810368015E+03  0.00000000000E+00 0.  1.
         11    1    4    4    0    0 -0.18889111202E+03  0.79704234184E+02 -0.22021902735E+03  0.30088043664E+03  0.00000000000E+00 0. -1.
        -11    1    4    4    0    0 -0.88446478918E+01  0.45183007529E+03 -0.52124424080E+03  0.68987259933E+03  0.00000000000E+00 0.  1.
          3    1    5    5  503    0 -0.91736159729E+02 -0.12524918115E+02  0.29178015890E+02  0.97076017568E+02  0.00000000000E+00 0. -1.
         -3    1    5    5    0  503 -0.63499171930E+02 -0.94628874365E+02  0.76037821986E+02  0.13699824478E+03  0.00000000000E+00 0.  1.
<mgrwt>
<rscale>  0 0.16049011E+04</rscale>
<asrwt>0</asrwt>
<pdfrwt beam="1">  1        2 0.22387376E+00 0.16049011E+04</pdfrwt>
<pdfrwt beam="2">  1       -1 0.68077975E-01 0.16049011E+04</pdfrwt>
<totfact> 0.32115060E+01</totfact>
</mgrwt>
</event>
<event>
12    6  0.1663299E-008  0.2811057E+04  0.7818608E-02  0.8299844E-01
         -1   -1    0    0    0  501 -0.00000000000E+00  0.00000000000E+00  0.97951842353E+03  0.97951842353E+03  0.00000000000E+00 0.  1.
          2   -1    0    0  501    0  0.00000000000E+00 -0.00000000000E+00 -0.20168176412E+04  0.20168176412E+04  0.00000000000E+00 0. -1.
         24    2    1    2    0    0 -0.47873759121E+03 -0.39727689364E+03  0.70102518608E+03  0.94063807002E+03  0.79655858543E+02 0.  0.
        254    2    1    2    0    0  0.47873759121E+03  0.39727689364E+03 -0.17383244038E+04  0.20556979947E+04  0.90393799641E+03 0.  0.
         23    2    4    4    0    0  0.43075813816E+03  0.55482892742E+03 -0.17271947846E+04  0.18683190036E+04  0.11843294788E+03 0.  0.
         23    2    4    4    0    0  0.47979453041E+02 -0.15755203379E+03 -0.11129619204E+02  0.18737899112E+03  0.88669874387E+02 0.  0.
          2    1    3    3  502    0 -0.34993240623E+03 -0.30017724049E+03  0.46549852490E+03  0.65517016211E+03  0.00000000000E+00 0. -1.
         -1    1    3    3    0  502 -0.12880518497E+03 -0.97099653142E+02  0.23552666118E+03  0.28546790790E+03  0.00000000000E+00 0.  1.
         11    1    5    5    0    0  0.30052137546E+03  0.29970825562E+03 -0.10892429172E+04  0.11690116631E+04  0.00000000000E+00 0.  1.
        -11    1    5    5    0    0  0.13023676270E+03  0.25512067181E+03 -0.63795186732E+03  0.69930734055E+03  0.00000000000E+00 0. -1.
          1    1    6    6  503    0  0.98026986407E+01 -0.50537148467E+02 -0.45467220645E+02  0.68683072361E+02  0.00000000000E+00 0. -1.
         -1    1    6    6    0  503  0.38176754401E+02 -0.10701488532E+03  0.34337601441E+02  0.11869591876E+03  0.00000000000E+00 0.  1.
<mgrwt>
<rscale>  0 0.28110568E+04</rscale>
<asrwt>0</asrwt>
<pdfrwt beam="1">  1        2 0.31027964E+00 0.28110568E+04</pdfrwt>
<pdfrwt beam="2">  1       -1 0.15069514E+00 0.28110568E+04</pdfrwt>
<totfact> 0.22281710E+00</totfact>
</mgrwt>
</event>
<event>
12    6  0.1663299E-008  0.2485253E+04  0.7818608E-02  0.8408258E-01
          2   -1    0    0  501    0  0.00000000000E+00  0.00000000000E+00  0.12024292435E+04  0.12024292435E+04  0.00000000000E+00 0. -1.
         -1   -1    0    0    0  501 -0.00000000000E+00 -0.00000000000E+00 -0.12841680100E+04  0.12841680100E+04  0.00000000000E+00 0.  1.
         24    2    1    2    0    0  0.55444942393E+02 -0.34246224781E+03 -0.10581647727E+04  0.11163993805E+04  0.79248707699E+02 0.  0.
        254    2    1    2    0    0 -0.55444942393E+02  0.34246224781E+03  0.97642600616E+03  0.13701978730E+04  0.89648197581E+03 0.  0.
         23    2    4    4    0    0 -0.29516977802E+03  0.54353156541E+03  0.58742141441E+03  0.86258425675E+03  0.12820265769E+03 0.  0.
         23    2    4    4    0    0  0.23972483563E+03 -0.20106931760E+03  0.38900459175E+03  0.50761361628E+03  0.91924663371E+02 0.  0.
          4    1    3    3  502    0  0.17390305877E+02 -0.33097203318E+02 -0.59959836610E+02  0.70661372844E+02  0.00000000000E+00 0. -1.
         -3    1    3    3    0  502  0.38054636515E+02 -0.30936504449E+03 -0.99820493611E+03  0.10457380076E+04  0.00000000000E+00 0.  1.
         11    1    5    5    0    0 -0.11827643087E+03  0.23407533403E+03  0.16490843365E+03  0.30979891477E+03  0.00000000000E+00 0. -1.
        -11    1    5    5    0    0 -0.17689334715E+03  0.30945623138E+03  0.42251298076E+03  0.55278534199E+03  0.00000000000E+00 0.  1.
          1    1    6    6  503    0  0.35751558305E+01  0.62447404892E+01 -0.43014691703E+00  0.72085747107E+01  0.00000000000E+00 0. -1.
         -1    1    6    6    0  503  0.23614967980E+03 -0.20731405809E+03  0.38943473867E+03  0.50040504157E+03  0.00000000000E+00 0.  1.
<mgrwt>
<rscale>  0 0.24852534E+04</rscale>
<asrwt>0</asrwt>
<pdfrwt beam="1">  1        2 0.18498911E+00 0.24852534E+04</pdfrwt>
<pdfrwt beam="2">  1       -1 0.19756431E+00 0.24852534E+04</pdfrwt>
<totfact> 0.30059108E+00</totfact>
</mgrwt>
</event>
<event>
12    6  0.1663299E-008  0.1978965E+04  0.7818608E-02  0.8616519E-01
         -1   -1    0    0    0  501 -0.00000000000E+00  0.00000000000E+00  0.75813156933E+03  0.75813156933E+03  0.00000000000E+00 0.  1.
          2   -1    0    0  501    0  0.00000000000E+00 -0.00000000000E+00 -0.12914317556E+04  0.12914317556E+04  0.00000000000E+00 0. -1.
         24    2    1    2    0    0 -0.51845843654E+03  0.53470118486E+03  0.73601927818E+02  0.75260622752E+03  0.79337143955E+02 0.  0.
        254    2    1    2    0    0  0.51845843654E+03 -0.53470118486E+03 -0.60690211405E+03  0.12969570974E+04  0.87124223318E+03 0.  0.
         23    2    4    4    0    0  0.29308928056E+03 -0.44859528224E+03  0.90207202971E+02  0.55406541794E+03  0.10822242959E+03 0.  0.
         23    2    4    4    0    0  0.22536915599E+03 -0.86105902616E+02 -0.69710931702E+03  0.74289167943E+03  0.87870157353E+02 0.  0.
          2    1    3    3  502    0 -0.28306693239E+02  0.26295544112E+02  0.22138093243E+02  0.44528863614E+02  0.00000000000E+00 0. -1.
         -1    1    3    3    0  502 -0.49015174330E+03  0.50840564074E+03  0.51463834574E+02  0.70807736390E+03  0.00000000000E+00 0.  1.
         11    1    5    5    0    0  0.26221246182E+03 -0.33415258020E+03  0.44704763378E+02  0.42709698882E+03  0.00000000000E+00 0. -1.
        -11    1    5    5    0    0  0.30876818737E+02 -0.11444270204E+03  0.45502439594E+02  0.12696842913E+03  0.00000000000E+00 0.  1.
          4    1    6    6  503    0  0.18981895152E+03 -0.60935623495E+02 -0.64428792239E+03  0.67442665391E+03  0.00000000000E+00 0. -1.
         -4    1    6    6    0  503  0.35550204466E+02 -0.25170279122E+02 -0.52821394631E+02  0.68465025519E+02  0.00000000000E+00 0.  1.
<mgrwt>
<rscale>  0 0.19789646E+04</rscale>
<asrwt>0</asrwt>
<pdfrwt beam="1">  1        2 0.19868181E+00 0.19789646E+04</pdfrwt>
<pdfrwt beam="2">  1       -1 0.11663563E+00 0.19789646E+04</pdfrwt>
<totfact> 0.11771010E+01</totfact>
</mgrwt>
</event>
<event>
12    6  0.1663299E-008  0.2201171E+04  0.7818608E-02  0.8517941E-01
          2   -1    0    0  501    0  0.00000000000E+00  0.00000000000E+00  0.47562043912E+04  0.47562043912E+04  0.00000000000E+00 0. -1.
         -1   -1    0    0    0  501 -0.00000000000E+00 -0.00000000000E+00 -0.25467554359E+03  0.25467554359E+03  0.00000000000E+00 0.  1.
         24    2    1    2    0    0  0.41317995452E+03 -0.36099524053E+02  0.23378182166E+02  0.42304221625E+03  0.79983291246E+02 0.  0.
        254    2    1    2    0    0 -0.41317995452E+03  0.36099524053E+02  0.44781506655E+04  0.45878377186E+04  0.90686310916E+03 0.  0.
         23    2    4    4    0    0  0.15962914459E+03  0.27155143736E+03  0.99427425478E+03  0.10481340889E+04  0.10383702399E+03 0.  0.
         23    2    4    4    0    0 -0.57280909911E+03 -0.23545191331E+03  0.34838764107E+04  0.35397036297E+04  0.92515262210E+02 0.  0.
          4    1    3    3  502    0  0.23409651610E+02 -0.14765264618E+02  0.17303887207E+02  0.32641221487E+02  0.00000000000E+00 0. -1.
         -3    1    3    3    0  502  0.38977030291E+03 -0.21334259435E+02  0.60742949593E+01  0.39040099477E+03  0.00000000000E+00 0.  1.
         11    1    5    5    0    0  0.69059007166E+02  0.20546111109E+03  0.58826966677E+03  0.62693270411E+03  0.00000000000E+00 0. -1.
        -11    1    5    5    0    0  0.90570137426E+02  0.66090326273E+02  0.40600458801E+03  0.42120138474E+03  0.00000000000E+00 0.  1.
          3    1    6    6  503    0 -0.54438091452E+03 -0.19837501970E+03  0.32102674702E+04  0.32621343410E+04  0.00000000000E+00 0. -1.
         -3    1    6    6    0  503 -0.28428184593E+02 -0.37076893607E+02  0.27360894051E+03  0.27756928873E+03  0.00000000000E+00 0.  1.
<mgrwt>
<rscale>  0 0.22011715E+04</rscale>
<asrwt>0</asrwt>
<pdfrwt beam="1">  1        2 0.73172369E+00 0.22011715E+04</pdfrwt>
<pdfrwt beam="2">  1       -1 0.39180856E-01 0.22011715E+04</pdfrwt>
<totfact> 0.44484387E-01</totfact>
</mgrwt>
</event>
<event>
11    6  0.1663299E-008  0.1408559E+04  0.7818608E-02  0.8947646E-01
         -1   -1    0    0    0  501 -0.00000000000E+00  0.00000000000E+00  0.30616278925E+03  0.30616278925E+03  0.00000000000E+00 0.  1.
          2   -1    0    0  501    0  0.00000000000E+00 -0.00000000000E+00 -0.16200847897E+04  0.16200847897E+04  0.00000000000E+00 0. -1.
         24    2    1    2    0    0 -0.37447027951E+03  0.83750215273E+02 -0.17335958780E+03  0.42783371764E+03  0.75802733968E+02 0.  0.
        254    2    1    2    0    0  0.37447027951E+03 -0.83750215273E+02 -0.11405624127E+04  0.14984138614E+04  0.89281543101E+03 0.  0.
         23    2    4    4    0    0  0.34607810192E+03 -0.43152383421E+03 -0.52051949903E+03  0.76486600635E+03  0.89981035081E+02 0.  0.
          2    1    3    3  502    0 -0.34282826712E+02  0.18589325973E+02  0.30657665978E+01  0.39118718951E+02  0.00000000000E+00 0. -1.
         -1    1    3    3    0  502 -0.34018745279E+03  0.65160889299E+02 -0.17642535439E+03  0.38871499869E+03  0.00000000000E+00 0.  1.
         11    1    4    4    0    0 -0.50152272861E+01  0.30209453830E+03 -0.37254537330E+03  0.47966271248E+03  0.00000000000E+00 0.  1.
        -11    1    4    4    0    0  0.33407404874E+02  0.45679080638E+02 -0.24749754037E+03  0.25388514253E+03  0.00000000000E+00 0. -1.
          1    1    5    5  503    0  0.39149744036E+02 -0.81019806330E+02 -0.12317616914E+03  0.15254271572E+03  0.00000000000E+00 0. -1.
         -1    1    5    5    0  503  0.30692835788E+03 -0.35050402788E+03 -0.39734332989E+03  0.61232329063E+03  0.00000000000E+00 0.  1.
<mgrwt>
<rscale>  0 0.14085591E+04</rscale>
<asrwt>0</asrwt>
<pdfrwt beam="1">  1        2 0.24924382E+00 0.14085591E+04</pdfrwt>
<pdfrwt beam="2">  1       -1 0.47101966E-01 0.14085591E+04</pdfrwt>
<totfact> 0.54129669E+01</totfact>
</mgrwt>
</event>
<event>
12    6  0.1663299E-008  0.2367766E+04  0.7818608E-02  0.8451671E-01
          4   -1    0    0  501    0  0.00000000000E+00  0.00000000000E+00  0.23835780754E+04  0.23835780754E+04  0.00000000000E+00 0. -1.
         -3   -1    0    0    0  501 -0.00000000000E+00 -0.00000000000E+00 -0.58801453416E+03  0.58801453416E+03  0.00000000000E+00 0.  1.
         24    2    1    2    0    0 -0.48426831352E+03 -0.23926630370E+03  0.18374801104E+04  0.19167657394E+04  0.76769654633E+02 0.  0.
        254    2    1    2    0    0  0.48426831352E+03  0.23926630370E+03 -0.41916569210E+02  0.10548268702E+04  0.90506274019E+03 0.  0.
         23    2    4    4    0    0 -0.75246552341E+02  0.31247900955E+03 -0.28176034036E+03  0.43316601287E+03  0.70276100194E+02 0.  0.
         23    2    4    4    0    0  0.55951486586E+03 -0.73212705846E+02  0.23984377115E+03  0.62166085729E+03  0.10256803358E+03 0.  0.
          2    1    3    3  502    0 -0.36600065160E+03 -0.14743546373E+03  0.13884138005E+04  0.14433941161E+04  0.00000000000E+00 0. -1.
         -1    1    3    3    0  502 -0.11826766192E+03 -0.91830839970E+02  0.44906630996E+03  0.47337162332E+03  0.00000000000E+00 0.  1.
         11    1    5    5    0    0 -0.57754280048E+02  0.29631888427E+03 -0.27510275006E+03  0.40843844227E+03  0.00000000000E+00 0. -1.
        -11    1    5    5    0    0 -0.17492272293E+02  0.16160125279E+02 -0.66575903068E+01  0.24727570598E+02  0.00000000000E+00 0.  1.
          2    1    6    6  503    0  0.33324673115E+03 -0.74892823784E+02  0.18659940233E+03  0.38920644371E+03  0.00000000000E+00 0. -1.
         -2    1    6    6    0  503  0.22626813471E+03  0.16801179376E+01  0.53244368817E+02  0.23245441358E+03  0.00000000000E+00 0.  1.
<mgrwt>
<rscale>  0 0.23677657E+04</rscale>
<asrwt>0</asrwt>
<pdfrwt beam="1">  1        4 0.36670432E+00 0.23677657E+04</pdfrwt>
<pdfrwt beam="2">  1       -3 0.90463776E-01 0.23677657E+04</pdfrwt>
<totfact> 0.26011542E-02</totfact>
</mgrwt>
</event>
<event>
11    6  0.1663299E-008  0.1814786E+04  0.7818608E-02  0.8698476E-01
         -1   -1    0    0    0  501 -0.00000000000E+00  0.00000000000E+00  0.26626939568E+03  0.26626939568E+03  0.00000000000E+00 0.  1.
          2   -1    0    0  501    0  0.00000000000E+00 -0.00000000000E+00 -0.30922136128E+04  0.30922136128E+04  0.00000000000E+00 0. -1.
         24    2    1    2    0    0  0.53444449569E+03 -0.13772598069E+03 -0.33040959133E+03  0.64813039171E+03  0.79392328893E+02 0.  0.
        254    2    1    2    0    0 -0.53444449569E+03  0.13772598069E+03 -0.24955346258E+04  0.27103526168E+04  0.90206367513E+03 0.  0.
         23    2    4    4    0    0 -0.66351393153E+03 -0.61451735194E+02 -0.16437692187E+04  0.17760310863E+04  0.91006165513E+02 0.  0.
          4    1    3    3  502    0  0.19734791465E+03 -0.90152552164E+02 -0.12050176153E+03  0.24818210373E+03  0.00000000000E+00 0. -1.
         -3    1    3    3    0  502  0.33709658104E+03 -0.47573428524E+02 -0.20990782980E+03  0.39994828799E+03  0.00000000000E+00 0.  1.
         11    1    4    4    0    0  0.82794434448E+02 -0.22387761943E+02 -0.55239959485E+03  0.55901828472E+03  0.00000000000E+00 0. -1.
        -11    1    4    4    0    0  0.46275001392E+02  0.22156547783E+03 -0.29936581229E+03  0.37530324577E+03  0.00000000000E+00 0.  1.
          3    1    5    5  503    0 -0.64179964531E+03 -0.70373982159E+02 -0.15444053615E+04  0.16739316601E+04  0.00000000000E+00 0. -1.
         -3    1    5    5    0  503 -0.21714286218E+02  0.89222469652E+01 -0.99363857136E+02  0.10209942616E+03  0.00000000000E+00 0.  1.
<mgrwt>
<rscale>  0 0.18147858E+04</rscale>
<asrwt>0</asrwt>
<pdfrwt beam="1">  1        2 0.47572517E+00 0.18147858E+04</pdfrwt>
<pdfrwt beam="2">  1       -1 0.40964523E-01 0.18147858E+04</pdfrwt>
<totfact> 0.95687622E+00</totfact>
</mgrwt>
</event>
<event>
12    6  0.1863345E-008  0.2636777E+04  0.7818608E-02  0.8355815E-01
          2   -1    0    0  501    0  0.00000000000E+00  0.00000000000E+00  0.13604520819E+04  0.13604520819E+04  0.00000000000E+00 0. -1.
         -1   -1    0    0    0  501 -0.00000000000E+00 -0.00000000000E+00 -0.12776253327E+04  0.12776253327E+04  0.00000000000E+00 0.  1.
         24    2    1    2    0    0 -0.81041498799E+03 -0.72507433483E+03 -0.36526971990E+03  0.11505803803E+04  0.88926933432E+02 0.  0.
        254    2    1    2    0    0  0.81041498799E+03  0.72507433483E+03  0.44809646906E+03  0.14874970343E+04  0.91068750832E+03 0.  0.
         23    2    4    4    0    0  0.70336882874E+03  0.76924537060E+03  0.65424549529E+03  0.12350789565E+04  0.10448306704E+03 0.  0.
         23    2    4    4    0    0  0.10704615925E+03 -0.44171035773E+02 -0.20614902623E+03  0.25241807782E+03  0.88360083663E+02 0.  0.
          4    1    3    3  502    0 -0.24903248304E+03 -0.25935962172E+03 -0.15431037186E+03  0.39127519964E+03  0.00000000000E+00 0. -1.
         -3    1    3    3    0  502 -0.56138250494E+03 -0.46571471311E+03 -0.21095934804E+03  0.75930518067E+03  0.00000000000E+00 0.  1.
         11    1    5    5    0    0  0.50104189750E+03  0.59161398440E+03  0.52590236713E+03  0.93681555780E+03  0.00000000000E+00 0. -1.
        -11    1    5    5    0    0  0.20232693124E+03  0.17763138621E+03  0.12834312816E+03  0.29826339872E+03  0.00000000000E+00 0.  1.
          2    1    6    6  503    0 -0.35713811625E+01 -0.33154655080E+02 -0.35057886890E+02  0.48384308925E+02  0.00000000000E+00 0. -1.
         -2    1    6    6    0  503  0.11061754041E+03 -0.11016380693E+02 -0.17109113934E+03  0.20403376890E+03  0.00000000000E+00 0.  1.
<mgrwt>
<rscale>  0 0.26367769E+04</rscale>
<asrwt>0</asrwt>
<pdfrwt beam="1">  1        2 0.20930032E+00 0.26367769E+04</pdfrwt>
<pdfrwt beam="2">  1       -1 0.19655774E+00 0.26367769E+04</pdfrwt>
<totfact> 0.24358099E+00</totfact>
</mgrwt>
</event>
<event>
12    6  0.1663299E-008  0.1206776E+04  0.7818608E-02  0.9106946E-01
         -1   -1    0    0    0  501 -0.00000000000E+00  0.00000000000E+00  0.24593037472E+03  0.24593037472E+03  0.00000000000E+00 0.  1.
          2   -1    0    0  501    0  0.00000000000E+00 -0.00000000000E+00 -0.14804072202E+04  0.14804072202E+04  0.00000000000E+00 0. -1.
         24    2    1    2    0    0  0.45867325447E+01  0.65674713698E+00  0.95429175322E+02  0.12514669642E+03  0.80830060566E+02 0.  0.
        254    2    1    2    0    0 -0.45867325447E+01 -0.65674713698E+00 -0.13299060208E+04  0.16011908985E+04  0.89170667813E+03 0.  0.
         23    2    4    4    0    0 -0.32914181443E+03  0.98875245966E+02 -0.18683337817E+03  0.40524940106E+03  0.10587595380E+03 0.  0.
         23    2    4    4    0    0  0.32455508189E+03 -0.99531993103E+02 -0.11430726426E+04  0.11959414974E+04  0.91751730866E+02 0.  0.
          4    1    3    3  502    0  0.12976463927E+02 -0.24413368445E+02  0.16328899305E+01  0.27695983543E+02  0.00000000000E+00 0. -1.
         -3    1    3    3    0  502 -0.83897313824E+01  0.25070115582E+02  0.93796285391E+02  0.97450712882E+02  0.00000000000E+00 0.  1.
         11    1    5    5    0    0 -0.12354371799E+03  0.86072759349E+02 -0.53145527161E+02  0.15967472315E+03  0.00000000000E+00 0.  1.
        -11    1    5    5    0    0 -0.20559809644E+03  0.12802486617E+02 -0.13368785101E+03  0.24557467791E+03  0.00000000000E+00 0. -1.
          3    1    6    6  503    0  0.24142067170E+03 -0.66230190861E+02 -0.68774980923E+03  0.73189492346E+03  0.00000000000E+00 0. -1.
         -3    1    6    6    0  503  0.83134410193E+02 -0.33301802242E+02 -0.45532283339E+03  0.46404657395E+03  0.00000000000E+00 0.  1.
<mgrwt>
<rscale>  0 0.12067760E+04</rscale>
<asrwt>0</asrwt>
<pdfrwt beam="1">  1        2 0.22775496E+00 0.12067760E+04</pdfrwt>
<pdfrwt beam="2">  1       -1 0.37835442E-01 0.12067760E+04</pdfrwt>
<totfact> 0.98614273E+01</totfact>
</mgrwt>
</event>
<event>
12    6  0.1663299E-008  0.2144366E+04  0.7818608E-02  0.8541948E-01
          2   -1    0    0  501    0  0.00000000000E+00  0.00000000000E+00  0.15644238417E+04  0.15644238417E+04  0.00000000000E+00 0. -1.
         -1   -1    0    0    0  501 -0.00000000000E+00 -0.00000000000E+00 -0.73482401697E+03  0.73482401697E+03  0.00000000000E+00 0.  1.
         24    2    1    2    0    0  0.34919708382E+03 -0.47215475996E+03 -0.36194945758E+03  0.69450970025E+03  0.80421347918E+02 0.  0.
        254    2    1    2    0    0 -0.34919708382E+03  0.47215475996E+03  0.11915492823E+04  0.16047381584E+04  0.90029225489E+03 0.  0.
         23    2    4    4    0    0  0.25098202638E+03  0.20687531074E+03  0.69808360271E+03  0.77865125800E+03  0.11483768310E+03 0.  0.
         23    2    4    4    0    0 -0.60017911021E+03  0.26527944921E+03  0.49346567958E+03  0.82608690040E+03  0.91230694295E+02 0.  0.
          4    1    3    3  502    0 -0.45125629800E+01 -0.49955987873E+01 -0.50476592634E+01  0.84141604413E+01  0.00000000000E+00 0. -1.
         -3    1    3    3    0  502  0.35370964680E+03 -0.46715916117E+03 -0.35690179831E+03  0.68609553981E+03  0.00000000000E+00 0.  1.
         11    1    5    5    0    0  0.51543417408E+02  0.52684252575E+02  0.69103438259E+02  0.10103286360E+03  0.00000000000E+00 0.  1.
        -11    1    5    5    0    0  0.19943860898E+03  0.15419105817E+03  0.62898016445E+03  0.67761839441E+03  0.00000000000E+00 0. -1.
          4    1    6    6  503    0 -0.11411137513E+03  0.68702649952E+02  0.61314127618E+02  0.14663179154E+03  0.00000000000E+00 0. -1.
         -4    1    6    6    0  503 -0.48606773508E+03  0.19657679926E+03  0.43215155197E+03  0.67945510886E+03  0.00000000000E+00 0.  1.
<mgrwt>
<rscale>  0 0.21443658E+04</rscale>
<asrwt>0</asrwt>
<pdfrwt beam="1">  1        2 0.24068059E+00 0.21443658E+04</pdfrwt>
<pdfrwt beam="2">  1       -1 0.11304985E+00 0.21443658E+04</pdfrwt>
<totfact> 0.87335957E+00</totfact>
</mgrwt>
</event>
<event>
11    6  0.1663299E-008  0.1846459E+04  0.7818608E-02  0.8681976E-01
          2   -1    0    0  501    0  0.00000000000E+00  0.00000000000E+00  0.18863569456E+04  0.18863569456E+04  0.00000000000E+00 0. -1.
         -1   -1    0    0    0  501 -0.00000000000E+00 -0.00000000000E+00 -0.45185108166E+03  0.45185108166E+03  0.00000000000E+00 0.  1.
         24    2    1    2    0    0  0.48119348685E+03 -0.32675576234E+03  0.52766869619E+02  0.58911594536E+03  0.77180013857E+02 0.  0.
        254    2    1    2    0    0 -0.48119348685E+03  0.32675576234E+03  0.13817389943E+04  0.17490920819E+04  0.90100164404E+03 0.  0.
         23    2    4    4    0    0 -0.23566801289E+03 -0.19639967363E+03  0.47804423570E+03  0.57493909497E+03  0.88974308296E+02 0.  0.
          4    1    3    3  502    0  0.16905317212E+03 -0.88907611777E+02 -0.11962360496E+02  0.19138086765E+03  0.00000000000E+00 0. -1.
         -3    1    3    3    0  502  0.31214031473E+03 -0.23784815056E+03  0.64729230115E+02  0.39773507771E+03  0.00000000000E+00 0.  1.
         11    1    4    4    0    0  0.42570433782E+02 -0.74607292323E+02  0.11202037859E+03  0.14116322156E+03  0.00000000000E+00 0. -1.
        -11    1    4    4    0    0 -0.28809590774E+03  0.59776272829E+03  0.79167438003E+03  0.10329897654E+04  0.00000000000E+00 0.  1.
          1    1    5    5  503    0 -0.39280126764E+02 -0.45718743570E+02  0.16620781191E+03  0.17679979811E+03  0.00000000000E+00 0. -1.
         -1    1    5    5    0  503 -0.19638788613E+03 -0.15068093006E+03  0.31183642379E+03  0.39813929686E+03  0.00000000000E+00 0.  1.
<mgrwt>
<rscale>  0 0.18464587E+04</rscale>
<asrwt>0</asrwt>
<pdfrwt beam="1">  1        2 0.29020876E+00 0.18464587E+04</pdfrwt>
<pdfrwt beam="2">  1       -1 0.69515552E-01 0.18464587E+04</pdfrwt>
<totfact> 0.17321919E+01</totfact>
</mgrwt>
</event>
<event>
12    6  0.1663299E-008  0.2177069E+04  0.7818608E-02  0.8528033E-01
          2   -1    0    0  501    0  0.00000000000E+00  0.00000000000E+00  0.13002327788E+04  0.13002327788E+04  0.00000000000E+00 0. -1.
         -1   -1    0    0    0  501 -0.00000000000E+00 -0.00000000000E+00 -0.91130437560E+03  0.91130437560E+03  0.00000000000E+00 0.  1.
         24    2    1    2    0    0 -0.69654839503E+03 -0.21356672804E+02 -0.41998267007E+03  0.81757577068E+03  0.80055752753E+02 0.  0.
        254    2    1    2    0    0  0.69654839503E+03  0.21356672804E+02  0.80891107332E+03  0.13939613838E+04  0.89618940007E+03 0.  0.
         23    2    4    4    0    0 -0.72243701405E+02 -0.18881463386E+03 -0.20955840811E+02  0.23971222004E+03  0.12709320526E+03 0.  0.
         23    2    4    4    0    0  0.76879209644E+03  0.21017130666E+03  0.82986691413E+03  0.11542491637E+04  0.91644809447E+02 0.  0.
          4    1    3    3  502    0 -0.86222455407E+02 -0.20798237671E+02 -0.77140689579E+02  0.11754813693E+03  0.00000000000E+00 0. -1.
         -1    1    3    3    0  502 -0.61032593963E+03 -0.55843513273E+00 -0.34284198049E+03  0.70002763375E+03  0.00000000000E+00 0.  1.
         11    1    5    5    0    0 -0.10634691039E+03 -0.11488065004E+03 -0.23219558994E+02  0.15826047208E+03  0.00000000000E+00 0.  1.
        -11    1    5    5    0    0  0.34103208986E+02 -0.73933983819E+02  0.22637181829E+01  0.81451747965E+02  0.00000000000E+00 0. -1.
          4    1    6    6  503    0  0.26485298602E+03  0.10475558809E+03  0.25194884274E+03  0.38026182664E+03  0.00000000000E+00 0. -1.
         -4    1    6    6    0  503  0.50393911042E+03  0.10541571858E+03  0.57791807138E+03  0.77398733708E+03  0.00000000000E+00 0.  1.
<mgrwt>
<rscale>  0 0.21770694E+04</rscale>
<asrwt>0</asrwt>
<pdfrwt beam="1">  1        2 0.20003581E+00 0.21770694E+04</pdfrwt>
<pdfrwt beam="2">  1       -1 0.14020067E+00 0.21770694E+04</pdfrwt>
<totfact> 0.72035271E+00</totfact>
</mgrwt>
</event>
<event>
12    6  0.1663299E-008  0.1622757E+04  0.7818608E-02  0.8806688E-01
         -1   -1    0    0    0  501 -0.00000000000E+00  0.00000000000E+00  0.27447005878E+04  0.27447005878E+04  0.00000000000E+00 0.  1.
          2   -1    0    0  501    0  0.00000000000E+00 -0.00000000000E+00 -0.23985683804E+03  0.23985683804E+03  0.00000000000E+00 0. -1.
         24    2    1    2    0    0  0.41961671659E+03 -0.37053875540E+03  0.86945468620E+03  0.10371312572E+04  0.79452093898E+02 0.  0.
        254    2    1    2    0    0 -0.41961671659E+03  0.37053875540E+03  0.16353890636E+04  0.19474261687E+04  0.89699171400E+03 0.  0.
         23    2    4    4    0    0 -0.48729439541E+03  0.28473017975E+03  0.37998581622E+03  0.68395801386E+03  0.69873035785E+02 0.  0.
         23    2    4    4    0    0  0.67677678827E+02  0.85808575652E+02  0.12554032474E+04  0.12634681548E+04  0.91493632717E+02 0.  0.
          4    1    3    3  502    0  0.35949645410E+03 -0.31252789733E+03  0.78576510393E+03  0.91887876550E+03  0.00000000000E+00 0. -1.
         -3    1    3    3    0  502  0.60120262487E+02 -0.58010858072E+02  0.83689582269E+02  0.11825249171E+03  0.00000000000E+00 0.  1.
         11    1    5    5    0    0 -0.15993233191E+03  0.12284012059E+03  0.10932467566E+03  0.22939034576E+03  0.00000000000E+00 0. -1.
        -11    1    5    5    0    0 -0.32736206350E+03  0.16189005916E+03  0.27066114056E+03  0.45456766810E+03  0.00000000000E+00 0.  1.
          3    1    6    6  503    0  0.24163749603E+01  0.38046786416E+02  0.80223637093E+03  0.80314170086E+03  0.00000000000E+00 0. -1.
         -3    1    6    6    0  503  0.65261303867E+02  0.47761789237E+02  0.45316687645E+03  0.46032645395E+03  0.00000000000E+00 0.  1.
<mgrwt>
<rscale>  0 0.16227572E+04</rscale>
<asrwt>0</asrwt>
<pdfrwt beam="1">  1        2 0.36901054E-01 0.16227572E+04</pdfrwt>
<pdfrwt beam="2">  1       -1 0.42226161E+00 0.16227572E+04</pdfrwt>
<totfact> 0.78145931E-01</totfact>
</mgrwt>
</event>
<event>
12    6  0.1663299E-008  0.2661075E+04  0.7818608E-02  0.8347746E-01
         -1   -1    0    0    0  501 -0.00000000000E+00  0.00000000000E+00  0.17491948961E+04  0.17491948961E+04  0.00000000000E+00 0.  1.
          2   -1    0    0  501    0  0.00000000000E+00 -0.00000000000E+00 -0.10120830201E+04  0.10120830201E+04  0.00000000000E+00 0. -1.
         24    2    1    2    0    0 -0.46523953477E+03  0.57062473439E+03  0.12806270499E+04  0.14802471640E+04  0.95213514176E+02 0.  0.
        254    2    1    2    0    0  0.46523953477E+03 -0.57062473439E+03 -0.54351517392E+03  0.12810307522E+04  0.89642101244E+03 0.  0.
         23    2    4    4    0    0  0.26676909783E+03  0.14586259626E+03 -0.40783331292E+03  0.51977377863E+03  0.10674793338E+03 0.  0.
         23    2    4    4    0    0  0.19847043694E+03 -0.71648733065E+03 -0.13568186101E+03  0.76125697356E+03  0.91422114738E+02 0.  0.
          2    1    3    3  502    0 -0.17248162608E+03  0.17273488344E+03  0.50081396278E+03  0.55713721524E+03  0.00000000000E+00 0. -1.
         -1    1    3    3    0  502 -0.29275790868E+03  0.39788985095E+03  0.77981308712E+03  0.92310994872E+03  0.00000000000E+00 0.  1.
         11    1    5    5    0    0  0.80383944226E+02  0.18560705212E+02 -0.49292389949E+02  0.96103163185E+02  0.00000000000E+00 0. -1.
        -11    1    5    5    0    0  0.18638515360E+03  0.12730189105E+03 -0.35854092297E+03  0.42367061544E+03  0.00000000000E+00 0.  1.
          3    1    6    6  503    0  0.56814344527E+02 -0.11960120016E+03 -0.51369427074E+02  0.14202512053E+03  0.00000000000E+00 0. -1.
         -3    1    6    6    0  503  0.14165609241E+03 -0.59688613049E+03 -0.84312433934E+02  0.61923185302E+03  0.00000000000E+00 0.  1.
<mgrwt>
<rscale>  0 0.26610753E+04</rscale>
<asrwt>0</asrwt>
<pdfrwt beam="1">  1        2 0.15570508E+00 0.26610753E+04</pdfrwt>
<pdfrwt beam="2">  1       -1 0.26910691E+00 0.26610753E+04</pdfrwt>
<totfact> 0.12997375E+00</totfact>
</mgrwt>
</event>
<event>
12    6  0.1663299E-008  0.2410978E+04  0.7818608E-02  0.8435405E-01
          2   -1    0    0  501    0  0.00000000000E+00  0.00000000000E+00  0.14002437503E+04  0.14002437503E+04  0.00000000000E+00 0. -1.
         -1   -1    0    0    0  501 -0.00000000000E+00 -0.00000000000E+00 -0.10378216276E+04  0.10378216276E+04  0.00000000000E+00 0.  1.
         24    2    1    2    0    0  0.29326563367E+02  0.70289001219E+03  0.92048496768E+03  0.11612652376E+04  0.79561043651E+02 0.  0.
        254    2    1    2    0    0 -0.29326563367E+02 -0.70289001219E+03 -0.55806284500E+03  0.12768001403E+04  0.90767287215E+03 0.  0.
         23    2    4    4    0    0  0.10664403590E+03 -0.25714937922E+03 -0.71457439302E+03  0.77668205484E+03  0.12296217927E+03 0.  0.
         23    2    4    4    0    0 -0.13597059926E+03 -0.44574063297E+03  0.15651154801E+03  0.50011808550E+03  0.91921265419E+02 0.  0.
          2    1    3    3  502    0  0.45239691947E+02  0.41690152183E+03  0.50139004796E+03  0.65364018300E+03  0.00000000000E+00 0. -1.
         -1    1    3    3    0  502 -0.15913128580E+02  0.28598849036E+03  0.41909491972E+03  0.50762505455E+03  0.00000000000E+00 0.  1.
         11    1    5    5    0    0  0.58981972237E+02 -0.21801613864E+03 -0.64656091167E+03  0.68487292416E+03  0.00000000000E+00 0. -1.
        -11    1    5    5    0    0  0.47662063660E+02 -0.39133240577E+02 -0.68013481349E+02  0.91809130677E+02  0.00000000000E+00 0.  1.
          4    1    6    6  503    0 -0.10471639046E+03 -0.30609561739E+03  0.15072676716E+03  0.35690139781E+03  0.00000000000E+00 0. -1.
         -4    1    6    6    0  503 -0.31254208802E+02 -0.13964501558E+03  0.57847808515E+01  0.14321668769E+03  0.00000000000E+00 0.  1.
<mgrwt>
<rscale>  0 0.24109776E+04</rscale>
<asrwt>0</asrwt>
<pdfrwt beam="1">  1        2 0.21542212E+00 0.24109776E+04</pdfrwt>
<pdfrwt beam="2">  1       -1 0.15966487E+00 0.24109776E+04</pdfrwt>
<totfact> 0.43528488E+00</totfact>
</mgrwt>
</event>
<event>
11    6  0.1663299E-008  0.2636343E+04  0.7818608E-02  0.8355960E-01
          2   -1    0    0  501    0  0.00000000000E+00  0.00000000000E+00  0.43490317524E+04  0.43490317524E+04  0.00000000000E+00 0. -1.
         -1   -1    0    0    0  501 -0.00000000000E+00 -0.00000000000E+00 -0.39953182528E+03  0.39953182528E+03  0.00000000000E+00 0.  1.
         24    2    1    2    0    0 -0.60416094237E+03  0.39989811976E+03  0.10749209601E+03  0.73674580439E+03  0.79441041695E+02 0.  0.
        254    2    1    2    0    0  0.60416094237E+03 -0.39989811976E+03  0.38420078311E+04  0.40118177733E+04  0.89929345676E+03 0.  0.
         23    2    4    4    0    0 -0.19523889432E+03  0.58808685150E+02  0.56049283056E+03  0.60313412245E+03  0.89676469847E+02 0.  0.
          4    1    3    3  502    0 -0.85221138546E+02  0.90575151851E+02  0.27130825697E+02  0.12728936441E+03  0.00000000000E+00 0. -1.
         -3    1    3    3    0  502 -0.51893980383E+03  0.30932296791E+03  0.80361270311E+02  0.60945643998E+03  0.00000000000E+00 0.  1.
         11    1    4    4    0    0  0.73321293382E+03 -0.40917986517E+03  0.29977114664E+04  0.31130858331E+04  0.00000000000E+00 0. -1.
        -11    1    4    4    0    0  0.66186902876E+02 -0.49526939741E+02  0.28380353412E+03  0.29559781774E+03  0.00000000000E+00 0.  1.
          3    1    5    5  503    0 -0.14984542302E+03  0.76997485108E+01  0.32582084564E+03  0.35870901910E+03  0.00000000000E+00 0. -1.
         -3    1    5    5    0  503 -0.45393471301E+02  0.51108936639E+02  0.23467198492E+03  0.24442510335E+03  0.00000000000E+00 0.  1.
<mgrwt>
<rscale>  0 0.26363434E+04</rscale>
<asrwt>0</asrwt>
<pdfrwt beam="1">  1        2 0.66908177E+00 0.26363434E+04</pdfrwt>
<pdfrwt beam="2">  1       -1 0.61466438E-01 0.26363434E+04</pdfrwt>
<totfact> 0.46219267E-01</totfact>
</mgrwt>
</event>
<event>
12    6  0.1663299E-008  0.1700535E+04  0.7818608E-02  0.8761059E-01
          2   -1    0    0  501    0  0.00000000000E+00  0.00000000000E+00  0.18215834801E+04  0.18215834801E+04  0.00000000000E+00 0. -1.
         -1   -1    0    0    0  501 -0.00000000000E+00 -0.00000000000E+00 -0.39688261070E+03  0.39688261070E+03  0.00000000000E+00 0.  1.
         24    2    1    2    0    0 -0.21374063532E+03  0.15076151527E+03 -0.20781495971E+03  0.34346029820E+03  0.79773587659E+02 0.  0.
        254    2    1    2    0    0  0.21374063532E+03 -0.15076151527E+03  0.16325158291E+04  0.18750057926E+04  0.88437814104E+03 0.  0.
         23    2    4    4    0    0  0.25486778472E+03 -0.37123005321E+03  0.15548292258E+04  0.16202942482E+04  0.71345562399E+02 0.  0.
         23    2    4    4    0    0 -0.41127149398E+02  0.22046853795E+03  0.77686603279E+02  0.25471154437E+03  0.92438865556E+02 0.  0.
          2    1    3    3  502    0 -0.66753504251E+02  0.91763591939E+01 -0.70236847344E+02  0.97331652728E+02  0.00000000000E+00 0. -1.
         -1    1    3    3    0  502 -0.14698713107E+03  0.14158515607E+03 -0.13757811237E+03  0.24612864547E+03  0.00000000000E+00 0.  1.
         11    1    5    5    0    0  0.13337670424E+03 -0.21404803534E+03  0.74825037637E+03  0.78961036746E+03  0.00000000000E+00 0.  1.
        -11    1    5    5    0    0  0.12149108047E+03 -0.15718201787E+03  0.80657884946E+03  0.83068388077E+03  0.00000000000E+00 0. -1.
          4    1    6    6  503    0  0.15607897804E+02  0.12431881251E+03  0.68238313609E+02  0.14267179491E+03  0.00000000000E+00 0.  1.
         -4    1    6    6    0  503 -0.56735047202E+02  0.96149725434E+02  0.94482896708E+01  0.11203974946E+03  0.00000000000E+00 0. -1.
<mgrwt>
<rscale>  0 0.17005350E+04</rscale>
<asrwt>0</asrwt>
<pdfrwt beam="1">  1        2 0.28024361E+00 0.17005350E+04</pdfrwt>
<pdfrwt beam="2">  1       -1 0.61058864E-01 0.17005350E+04</pdfrwt>
<totfact> 0.24747781E+01</totfact>
</mgrwt>
</event>
<event>
11    6  0.1663299E-008  0.1193689E+04  0.7818608E-02  0.9118399E-01
         -1   -1    0    0    0  501 -0.00000000000E+00  0.00000000000E+00  0.42700774876E+03  0.42700774876E+03  0.00000000000E+00 0.  1.
          2   -1    0    0  501    0  0.00000000000E+00 -0.00000000000E+00 -0.83423118620E+03  0.83423118620E+03  0.00000000000E+00 0. -1.
         24    2    1    2    0    0  0.20574158916E+03 -0.13751952319E+03 -0.46515014095E+02  0.26454244052E+03  0.81103856438E+02 0.  0.
        254    2    1    2    0    0 -0.20574158916E+03  0.13751952319E+03 -0.36070842334E+03  0.99669649444E+03  0.89557362321E+03 0.  0.
         23    2    4    4    0    0 -0.19396037852E+03 -0.20874490928E+03 -0.31577336317E+02  0.30144857225E+03  0.93161408081E+02 0.  0.
          4    1    3    3  502    0  0.11989651803E+03 -0.11069582465E+03 -0.59457619803E+02  0.17367771643E+03  0.00000000000E+00 0. -1.
         -3    1    3    3    0  502  0.85845071138E+02 -0.26823698536E+02  0.12942605707E+02  0.90864724092E+02  0.00000000000E+00 0.  1.
         11    1    4    4    0    0 -0.39330282782E+02 -0.12966537236E+03 -0.79927186885E+02  0.15731603585E+03  0.00000000000E+00 0. -1.
        -11    1    4    4    0    0  0.27549072136E+02  0.47592980483E+03 -0.24920390014E+03  0.53793188634E+03  0.00000000000E+00 0.  1.
          1    1    5    5  503    0  0.43476107962E+01 -0.82249823667E+00  0.10181321786E+02  0.11101240304E+02  0.00000000000E+00 0. -1.
         -1    1    5    5    0  503 -0.19830798931E+03 -0.20792241104E+03 -0.41758658102E+02  0.29034733194E+03  0.00000000000E+00 0.  1.
<mgrwt>
<rscale>  0 0.11936887E+04</rscale>
<asrwt>0</asrwt>
<pdfrwt beam="1">  1        2 0.12834326E+00 0.11936887E+04</pdfrwt>
<pdfrwt beam="2">  1       -1 0.65693500E-01 0.11936887E+04</pdfrwt>
<totfact> 0.86184104E+01</totfact>
</mgrwt>
</event>
<event>
11    6  0.1663299E-008  0.1145343E+04  0.7818608E-02  0.9162090E-01
         -3   -1    0    0    0  501 -0.00000000000E+00  0.00000000000E+00  0.75031600479E+03  0.75031600479E+03  0.00000000000E+00 0.  1.
          4   -1    0    0  501    0  0.00000000000E+00 -0.00000000000E+00 -0.43708623753E+03  0.43708623753E+03  0.00000000000E+00 0. -1.
         24    2    1    2    0    0 -0.22555540883E+02  0.38627915835E+02 -0.15212211868E+03  0.18915030229E+03  0.10313015835E+03 0.  0.
        254    2    1    2    0    0  0.22555540883E+02 -0.38627915835E+02  0.46535188594E+03  0.99825194003E+03  0.88201683075E+03 0.  0.
         23    2    4    4    0    0 -0.17497964604E+03  0.18724002875E+03 -0.58534333491E+00  0.27043288156E+03  0.86353320170E+02 0.  0.
          4    1    3    3  502    0 -0.13181214224E+02  0.55565456628E+02 -0.15873351968E+03  0.16869378960E+03  0.00000000000E+00 0. -1.
         -3    1    3    3    0  502 -0.93743266590E+01 -0.16937540793E+02  0.66114010032E+01  0.20456512695E+02  0.00000000000E+00 0.  1.
         11    1    4    4    0    0  0.14849859251E+01 -0.60886484798E+02 -0.94019187213E+02  0.11202221556E+03  0.00000000000E+00 0.  1.
        -11    1    4    4    0    0  0.19605020100E+03 -0.16498145979E+03  0.55995641648E+03  0.61579684292E+03  0.00000000000E+00 0. -1.
          3    1    5    5  503    0 -0.12308253440E+03  0.16058978366E+03 -0.30914201849E+02  0.20468042595E+03  0.00000000000E+00 0. -1.
         -3    1    5    5    0  503 -0.51897111632E+02  0.26650245096E+02  0.30328858514E+02  0.65752455606E+02  0.00000000000E+00 0.  1.
<mgrwt>
<rscale>  0 0.11453433E+04</rscale>
<asrwt>0</asrwt>
<pdfrwt beam="1">  1        4 0.67244037E-01 0.11453433E+04</pdfrwt>
<pdfrwt beam="2">  1       -3 0.11543323E+00 0.11453433E+04</pdfrwt>
<totfact> 0.28755318E+00</totfact>
</mgrwt>
</event>
<event>
11    6  0.1663299E-008  0.1883027E+04  0.7818608E-02  0.8663351E-01
          2   -1    0    0  501    0  0.00000000000E+00  0.00000000000E+00  0.60595888864E+03  0.60595888864E+03  0.00000000000E+00 0. -1.
         -1   -1    0    0    0  501 -0.00000000000E+00 -0.00000000000E+00 -0.14628839981E+04  0.14628839981E+04  0.00000000000E+00 0.  1.
         24    2    1    2    0    0  0.67829398451E+02  0.55641808857E+03 -0.84971772437E+03  0.10206206048E+04  0.73785441273E+02 0.  0.
        254    2    1    2    0    0 -0.67829398451E+02 -0.55641808857E+03 -0.72073850670E+01  0.10482222819E+04  0.88572912859E+03 0.  0.
         23    2    4    4    0    0 -0.13491442531E+03 -0.13512962072E+02  0.29443689063E+03  0.33606311807E+03  0.88661347039E+02 0.  0.
          4    1    3    3  502    0 -0.86857342545E+01  0.15382148967E+02 -0.16234412715E+02  0.23991845335E+02  0.00000000000E+00 0. -1.
         -3    1    3    3    0  502  0.76515132705E+02  0.54103593961E+03 -0.83348331165E+03  0.99662875951E+03  0.00000000000E+00 0.  1.
         11    1    4    4    0    0  0.32010269228E+02  0.42780597875E+02 -0.23128520013E+01  0.53480708438E+02  0.00000000000E+00 0.  1.
        -11    1    4    4    0    0  0.35074757634E+02 -0.58568572438E+03 -0.29933142370E+03  0.65867845537E+03  0.00000000000E+00 0. -1.
          1    1    5    5  503    0 -0.12130199638E+03 -0.11371690844E+02  0.29790346798E+03  0.32185395122E+03  0.00000000000E+00 0. -1.
         -1    1    5    5    0  503 -0.13612428935E+02 -0.21412712284E+01 -0.34665773530E+01  0.14209166848E+02  0.00000000000E+00 0.  1.
<mgrwt>
<rscale>  0 0.18830269E+04</rscale>
<asrwt>0</asrwt>
<pdfrwt beam="1">  1        2 0.93224446E-01 0.18830269E+04</pdfrwt>
<pdfrwt beam="2">  1       -1 0.22505907E+00 0.18830269E+04</pdfrwt>
<totfact> 0.53431361E+00</totfact>
</mgrwt>
</event>
<event>
12    6  0.1663299E-008  0.1507448E+04  0.7818608E-02  0.8879515E-01
         -1   -1    0    0    0  501 -0.00000000000E+00  0.00000000000E+00  0.10089929459E+04  0.10089929459E+04  0.00000000000E+00 0.  1.
          2   -1    0    0  501    0  0.00000000000E+00 -0.00000000000E+00 -0.56303650984E+03  0.56303650984E+03  0.00000000000E+00 0. -1.
         24    2    1    2    0    0  0.21421156861E+03 -0.18476248775E+03  0.53631066808E+03  0.61141045255E+03  0.78548302241E+02 0.  0.
        254    2    1    2    0    0 -0.21421156861E+03  0.18476248775E+03 -0.90354232058E+02  0.96061900315E+03  0.91356510932E+03 0.  0.
         23    2    4    4    0    0 -0.24599733746E+03 -0.45729121901E+02 -0.45027314603E+03  0.52106292253E+03  0.78452664542E+02 0.  0.
         23    2    4    4    0    0  0.31785768847E+02  0.23049160965E+03  0.35991891397E+03  0.43955608062E+03  0.97627896425E+02 0.  0.
          2    1    3    3  502    0  0.53740998786E+02 -0.24836880559E+02  0.61754503943E+02  0.85548724969E+02  0.00000000000E+00 0. -1.
         -3    1    3    3    0  502  0.16047056983E+03 -0.15992560719E+03  0.47455616414E+03  0.52586172758E+03  0.00000000000E+00 0.  1.
         11    1    5    5    0    0 -0.59130484813E+02  0.22528352152E+02 -0.10761402092E+03  0.12483876955E+03  0.00000000000E+00 0. -1.
        -11    1    5    5    0    0 -0.18686685265E+03 -0.68257474053E+02 -0.34265912511E+03  0.39622415298E+03  0.00000000000E+00 0.  1.
          4    1    6    6  503    0 -0.10386039451E+02  0.37315576885E+02  0.14135701440E+02  0.41232755777E+02  0.00000000000E+00 0.  1.
         -4    1    6    6    0  503  0.42171808299E+02  0.19317603276E+03  0.34578321253E+03  0.39832332485E+03  0.00000000000E+00 0. -1.
<mgrwt>
<rscale>  0 0.15074480E+04</rscale>
<asrwt>0</asrwt>
<pdfrwt beam="1">  1        2 0.86621002E-01 0.15074480E+04</pdfrwt>
<pdfrwt beam="2">  1       -1 0.15522968E+00 0.15074480E+04</pdfrwt>
<totfact> 0.18779591E+01</totfact>
</mgrwt>
</event>
<event>
11    6  0.1663299E-008  0.2189751E+04  0.7818608E-02  0.8522706E-01
         -1   -1    0    0    0  501 -0.00000000000E+00  0.00000000000E+00  0.57402762338E+03  0.57402762338E+03  0.00000000000E+00 0.  1.
          2   -1    0    0  501    0  0.00000000000E+00 -0.00000000000E+00 -0.20883188200E+04  0.20883188200E+04  0.00000000000E+00 0. -1.
         24    2    1    2    0    0  0.59330634046E+03  0.47234320960E+03 -0.17387380654E+02  0.76279655700E+03  0.80223095728E+02 0.  0.
        254    2    1    2    0    0 -0.59330634046E+03 -0.47234320960E+03 -0.14969038160E+04  0.18995498864E+04  0.89019560509E+03 0.  0.
         23    2    4    4    0    0 -0.55057077326E+03 -0.19995733339E+03 -0.36541225539E+03  0.69630874810E+03  0.90601571453E+02 0.  0.
          4    1    3    3  502    0  0.57039825301E+02  0.76914649194E+02 -0.11795096647E+02  0.96480719503E+02  0.00000000000E+00 0. -1.
         -3    1    3    3    0  502  0.53626651516E+03  0.39542856041E+03 -0.55922840072E+01  0.66631583750E+03  0.00000000000E+00 0.  1.
         11    1    4    4    0    0 -0.11233577203E+02 -0.15920909999E+03 -0.16473091005E+03  0.22936870646E+03  0.00000000000E+00 0.  1.
        -11    1    4    4    0    0 -0.31501989997E+02 -0.11317677622E+03 -0.96676065057E+03  0.97387243186E+03  0.00000000000E+00 0. -1.
          3    1    5    5  503    0 -0.27499204043E+03 -0.51770782361E+02 -0.17107241339E+03  0.32797348495E+03  0.00000000000E+00 0.  1.
         -3    1    5    5    0  503 -0.27557873283E+03 -0.14818655103E+03 -0.19433984201E+03  0.36833526316E+03  0.00000000000E+00 0. -1.
<mgrwt>
<rscale>  0 0.21897513E+04</rscale>
<asrwt>0</asrwt>
<pdfrwt beam="1">  1        2 0.32127982E+00 0.21897513E+04</pdfrwt>
<pdfrwt beam="2">  1       -1 0.88311942E-01 0.21897513E+04</pdfrwt>
<totfact> 0.78212175E+00</totfact>
</mgrwt>
</event>
<event>
12    6  0.1663299E-008  0.2935982E+04  0.7818608E-02  0.8262252E-01
          2   -1    0    0  501    0  0.00000000000E+00  0.00000000000E+00  0.16689427196E+04  0.16689427196E+04  0.00000000000E+00 0. -1.
         -1   -1    0    0    0  501 -0.00000000000E+00 -0.00000000000E+00 -0.12912350624E+04  0.12912350624E+04  0.00000000000E+00 0.  1.
         24    2    1    2    0    0 -0.20782705886E+03  0.63490310664E+03 -0.98927921802E+03  0.11962953022E+04  0.78454047738E+02 0.  0.
        254    2    1    2    0    0  0.20782705886E+03 -0.63490310664E+03  0.13669868752E+04  0.17638824797E+04  0.89237561825E+03 0.  0.
         23    2    4    4    0    0  0.32244820618E+03 -0.61066074059E+02  0.98747830104E+02  0.36425600194E+03  0.12340741439E+03 0.  0.
         23    2    4    4    0    0 -0.11462114732E+03 -0.57383703258E+03  0.12682390451E+04  0.13996264778E+04  0.89983634020E+02 0.  0.
          4    1    3    3  502    0 -0.20097486951E+02  0.25837156479E+02 -0.28840776924E+02  0.43626345827E+02  0.00000000000E+00 0. -1.
         -3    1    3    3    0  502 -0.18772957191E+03  0.60906595016E+03 -0.96043844110E+03  0.11526689564E+04  0.00000000000E+00 0.  1.
         11    1    5    5    0    0  0.59174875045E+02  0.35544062394E+02  0.31441743655E+02  0.75852682564E+02  0.00000000000E+00 0. -1.
        -11    1    5    5    0    0  0.26327333114E+03 -0.96610136453E+02  0.67306086448E+02  0.28840331937E+03  0.00000000000E+00 0.  1.
          1    1    6    6  503    0 -0.28433754434E+02 -0.31198882835E+03  0.60280772663E+03  0.67935459275E+03  0.00000000000E+00 0. -1.
         -1    1    6    6    0  503 -0.86187392883E+02 -0.26184820423E+03  0.66543131850E+03  0.72027188505E+03  0.00000000000E+00 0.  1.
<mgrwt>
<rscale>  0 0.29359819E+04</rscale>
<asrwt>0</asrwt>
<pdfrwt beam="1">  1        2 0.25676042E+00 0.29359819E+04</pdfrwt>
<pdfrwt beam="2">  1       -1 0.19865155E+00 0.29359819E+04</pdfrwt>
<totfact> 0.15372461E+00</totfact>
</mgrwt>
</event>
<event>
11    6  0.1663299E-008  0.2141814E+04  0.7818608E-02  0.8543044E-01
         -1   -1    0    0    0  501 -0.00000000000E+00  0.00000000000E+00  0.22744689395E+03  0.22744689395E+03  0.00000000000E+00 0.  1.
          2   -1    0    0  501    0  0.00000000000E+00 -0.00000000000E+00 -0.50422388978E+04  0.50422388978E+04  0.00000000000E+00 0. -1.
         24    2    1    2    0    0  0.15753897087E+03 -0.53597138837E+03 -0.36510882531E+04  0.36944419529E+04  0.79825152299E+02 0.  0.
        254    2    1    2    0    0 -0.15753897087E+03  0.53597138837E+03 -0.11637037507E+04  0.15752438388E+04  0.90283048012E+03 0.  0.
         23    2    4    4    0    0  0.74539852247E+02  0.31424046599E+03 -0.12018795748E+04  0.12476302352E+04  0.88110335694E+02 0.  0.
          2    1    3    3  502    0  0.92970111311E+02 -0.24509616590E+03 -0.19357493928E+04  0.19534178467E+04  0.00000000000E+00 0. -1.
         -1    1    3    3    0  502  0.64568859559E+02 -0.29087522247E+03 -0.17153388604E+04  0.17410241063E+04  0.00000000000E+00 0.  1.
         11    1    4    4    0    0 -0.37666521001E+02  0.32293967648E+02 -0.13218477161E+02  0.51345840038E+02  0.00000000000E+00 0.  1.
        -11    1    4    4    0    0 -0.19441230212E+03  0.18943695473E+03  0.51394301242E+02  0.27626776365E+03  0.00000000000E+00 0. -1.
          4    1    5    5  503    0  0.27252233619E+01  0.16481239304E+03 -0.50145134349E+03  0.52784846464E+03  0.00000000000E+00 0. -1.
         -4    1    5    5    0  503  0.71814628885E+02  0.14942807296E+03 -0.70042823134E+03  0.71978177052E+03  0.00000000000E+00 0.  1.
<mgrwt>
<rscale>  0 0.21418138E+04</rscale>
<asrwt>0</asrwt>
<pdfrwt beam="1">  1        2 0.77572897E+00 0.21418138E+04</pdfrwt>
<pdfrwt beam="2">  1       -1 0.34991834E-01 0.21418138E+04</pdfrwt>
<totfact> 0.25109008E-01</totfact>
</mgrwt>
</event>
<event>
11    6  0.1663299E-008  0.1530221E+04  0.7818608E-02  0.8864602E-01
          2   -1    0    0  501    0  0.00000000000E+00  0.00000000000E+00  0.16645466510E+04  0.16645466510E+04  0.00000000000E+00 0. -1.
         -1   -1    0    0    0  501 -0.00000000000E+00 -0.00000000000E+00 -0.35168366205E+03  0.35168366205E+03  0.00000000000E+00 0.  1.
         24    2    1    2    0    0  0.19855417881E+03 -0.45312991671E+03  0.49565843917E+03  0.70469401487E+03  0.78523136255E+02 0.  0.
        254    2    1    2    0    0 -0.19855417881E+03  0.45312991671E+03  0.81720454973E+03  0.13115362981E+04  0.89863991781E+03 0.  0.
         23    2    4    4    0    0 -0.42105248642E+03  0.24256607123E+03  0.83872953786E+03  0.97436891443E+03  0.99015395309E+02 0.  0.
          4    1    3    3  502    0  0.17978588562E+03 -0.37573272417E+03  0.44873114012E+03  0.61225622153E+03  0.00000000000E+00 0. -1.
         -3    1    3    3    0  502  0.18768293188E+02 -0.77397192535E+02  0.46927299054E+02  0.92437793343E+02  0.00000000000E+00 0.  1.
         11    1    4    4    0    0  0.19601893613E+03  0.10786023130E+03  0.16869028250E+02  0.22436982180E+03  0.00000000000E+00 0. -1.
        -11    1    4    4    0    0  0.26479371474E+02  0.10270361418E+03 -0.38394016373E+02  0.11279756191E+03  0.00000000000E+00 0.  1.
          4    1    5    5  503    0 -0.40182644993E+03  0.20728565564E+03  0.73263972729E+03  0.86092555363E+03  0.00000000000E+00 0. -1.
         -4    1    5    5    0  503 -0.19226036491E+02  0.35280415591E+02  0.10608981056E+03  0.11344336080E+03  0.00000000000E+00 0.  1.
<mgrwt>
<rscale>  0 0.15302207E+04</rscale>
<asrwt>0</asrwt>
<pdfrwt beam="1">  1        2 0.25608410E+00 0.15302207E+04</pdfrwt>
<pdfrwt beam="2">  1       -1 0.54105180E-01 0.15302207E+04</pdfrwt>
<totfact> 0.38875543E+01</totfact>
</mgrwt>
</event>
<event>
12    6  0.1875535E-008  0.2602753E+04  0.7818608E-02  0.8367267E-01
         -1   -1    0    0    0  501 -0.00000000000E+00  0.00000000000E+00  0.11168494886E+04  0.11168494886E+04  0.00000000000E+00 0.  1.
          2   -1    0    0  501    0  0.00000000000E+00 -0.00000000000E+00 -0.15163906721E+04  0.15163906721E+04  0.00000000000E+00 0. -1.
         24    2    1    2    0    0  0.43927775130E+03  0.81896843280E+03 -0.83166221216E+03  0.12502546328E+04  0.88319731434E+02 0.  0.
        254    2    1    2    0    0 -0.43927775130E+03 -0.81896843280E+03  0.43212102867E+03  0.13829855279E+04  0.92857210281E+03 0.  0.
         23    2    4    4    0    0  0.69557591735E+02  0.11026271328E+03 -0.97878489305E+02  0.19482207320E+03  0.10667388166E+03 0.  0.
         23    2    4    4    0    0 -0.50883534303E+03 -0.92923114608E+03  0.52999951798E+03  0.11881634547E+04  0.91918315658E+02 0.  0.
          2    1    3    3  502    0  0.40869080485E+03  0.74570389931E+03 -0.72616552621E+03  0.11182212889E+04  0.00000000000E+00 0. -1.
         -1    1    3    3    0  502  0.30586946449E+02  0.73264533491E+02 -0.10549668595E+03  0.13203334392E+03  0.00000000000E+00 0.  1.
         11    1    5    5    0    0  0.34846165060E+02  0.28348865547E+01  0.12310343404E+02  0.37065298540E+02  0.00000000000E+00 0. -1.
        -11    1    5    5    0    0  0.34711426675E+02  0.10742782672E+03 -0.11018883271E+03  0.15775677466E+03  0.00000000000E+00 0.  1.
          2    1    6    6  503    0 -0.49083925650E+03 -0.86484241646E+03  0.51405532390E+03  0.11194322030E+04  0.00000000000E+00 0.  1.
         -2    1    6    6    0  503 -0.17996086537E+02 -0.64388729618E+02  0.15944194079E+02  0.68731251678E+02  0.00000000000E+00 0. -1.
<mgrwt>
<rscale>  0 0.26027525E+04</rscale>
<asrwt>0</asrwt>
<pdfrwt beam="1">  1        2 0.23329087E+00 0.26027525E+04</pdfrwt>
<pdfrwt beam="2">  1       -1 0.17182300E+00 0.26027525E+04</pdfrwt>
<totfact> 0.29862422E+00</totfact>
</mgrwt>
</event>
<event>
11    6  0.1663299E-008  0.1204784E+04  0.7818608E-02  0.9108679E-01
          2   -1    0    0  501    0  0.00000000000E+00  0.00000000000E+00  0.59445442475E+03  0.59445442475E+03  0.00000000000E+00 0. -1.
         -1   -1    0    0    0  501 -0.00000000000E+00 -0.00000000000E+00 -0.61043579942E+03  0.61043579942E+03  0.00000000000E+00 0.  1.
         24    2    1    2    0    0 -0.17897941877E+03 -0.10250120330E+03 -0.12121568275E+03  0.25198808988E+03  0.79149394659E+02 0.  0.
        254    2    1    2    0    0  0.17897941877E+03  0.10250120330E+03  0.10523430809E+03  0.95290213429E+03  0.92434197617E+03 0.  0.
         23    2    4    4    0    0 -0.17246692248E+03 -0.28617304349E+03 -0.87281385032E+02  0.35680917134E+03  0.89749063538E+02 0.  0.
          4    1    3    3  502    0 -0.18569296513E+02 -0.16494826948E+02  0.10856881283E+02  0.27106640519E+02  0.00000000000E+00 0. -1.
         -3    1    3    3    0  502 -0.16041012226E+03 -0.86006376347E+02 -0.13207256404E+03  0.22488144936E+03  0.00000000000E+00 0.  1.
         11    1    4    4    0    0  0.15701124363E+03  0.23159643861E+03  0.20336626420E+03  0.34590067710E+03  0.00000000000E+00 0.  1.
        -11    1    4    4    0    0  0.19443509762E+03  0.15707780818E+03 -0.10850571072E+02  0.25019228586E+03  0.00000000000E+00 0. -1.
          3    1    5    5  503    0 -0.57135218164E+02 -0.31153380437E+02 -0.59650178143E+01  0.65349427731E+02  0.00000000000E+00 0. -1.
         -3    1    5    5    0  503 -0.11533170431E+03 -0.25501966306E+03 -0.81316367217E+02  0.29145974361E+03  0.00000000000E+00 0.  1.
<mgrwt>
<rscale>  0 0.12047842E+04</rscale>
<asrwt>0</asrwt>
<pdfrwt beam="1">  1        2 0.91454527E-01 0.12047842E+04</pdfrwt>
<pdfrwt beam="2">  1       -1 0.93913200E-01 0.12047842E+04</pdfrwt>
<totfact> 0.62166444E+01</totfact>
</mgrwt>
</event>
<event>
12    6  0.1663299E-008  0.1443181E+04  0.7818608E-02  0.8923142E-01
          2   -1    0    0  501    0  0.00000000000E+00  0.00000000000E+00  0.73825417553E+03  0.73825417553E+03  0.00000000000E+00 0. -1.
         -1   -1    0    0    0  501 -0.00000000000E+00 -0.00000000000E+00 -0.70530287012E+03  0.70530287012E+03  0.00000000000E+00 0.  1.
         24    2    1    2    0    0  0.34285943396E+03  0.11593889593E+03 -0.22299986913E+03  0.43268455852E+03  0.80576463688E+02 0.  0.
        254    2    1    2    0    0 -0.34285943396E+03 -0.11593889593E+03  0.25595117454E+03  0.10108724871E+04  0.90849202663E+03 0.  0.
         23    2    4    4    0    0  0.25064994444E+03 -0.19996231871E+03 -0.50412000110E+02  0.33217371814E+03  0.70623549286E+02 0.  0.
         23    2    4    4    0    0 -0.59350937841E+03  0.84023422781E+02  0.30636317465E+03  0.67869876899E+03  0.86373065346E+02 0.  0.
          4    1    3    3  502    0  0.24172305935E+03  0.56475543225E+02 -0.11640911190E+03  0.27417258385E+03  0.00000000000E+00 0. -1.
         -3    1    3    3    0  502  0.10113637462E+03  0.59463352708E+02 -0.10659075723E+03  0.15851197467E+03  0.00000000000E+00 0.  1.
         11    1    5    5    0    0  0.70488000703E+02 -0.99748242638E+02 -0.16676841608E+02  0.12327362734E+03  0.00000000000E+00 0. -1.
        -11    1    5    5    0    0  0.18016194374E+03 -0.10021407608E+03 -0.33735158502E+02  0.20890009080E+03  0.00000000000E+00 0.  1.
          1    1    6    6  503    0 -0.42352760277E+03  0.62108468981E+02  0.26121136268E+03  0.50146232981E+03  0.00000000000E+00 0. -1.
         -1    1    6    6    0  503 -0.16998177564E+03  0.21914953801E+02  0.45151811964E+02  0.17723643918E+03  0.00000000000E+00 0.  1.
<mgrwt>
<rscale>  0 0.14431809E+04</rscale>
<asrwt>0</asrwt>
<pdfrwt beam="1">  1        2 0.11357757E+00 0.14431809E+04</pdfrwt>
<pdfrwt beam="2">  1       -1 0.10850813E+00 0.14431809E+04</pdfrwt>
<totfact> 0.33441299E+01</totfact>
</mgrwt>
</event>
<event>
11    6  0.1663299E-008  0.1247406E+04  0.7818608E-02  0.9072345E-01
          2   -1    0    0  501    0  0.00000000000E+00  0.00000000000E+00  0.83591548996E+03  0.83591548996E+03  0.00000000000E+00 0. -1.
         -1   -1    0    0    0  501 -0.00000000000E+00 -0.00000000000E+00 -0.46536477729E+03  0.46536477729E+03  0.00000000000E+00 0.  1.
         24    2    1    2    0    0 -0.14738851250E+03  0.19354076582E+03 -0.50082913924E+01  0.25470022396E+03  0.75270973479E+02 0.  0.
        254    2    1    2    0    0  0.14738851250E+03 -0.19354076582E+03  0.37555900406E+03  0.10465800433E+04  0.94609926532E+03 0.  0.
         23    2    4    4    0    0  0.27846436441E+03  0.29860902020E+03  0.29956959675E+03  0.51434536530E+03  0.89997012812E+02 0.  0.
          4    1    3    3  502    0 -0.36058353321E+02  0.98842142654E+02 -0.22211889311E+02  0.10753298115E+03  0.00000000000E+00 0. -1.
         -1    1    3    3    0  502 -0.11133015918E+03  0.94698623165E+02  0.17203597919E+02  0.14716724280E+03  0.00000000000E+00 0.  1.
         11    1    4    4    0    0 -0.12914819436E+03 -0.37140177802E+03  0.10707704022E+03  0.40753408369E+03  0.00000000000E+00 0.  1.
        -11    1    4    4    0    0 -0.19276575438E+01 -0.12074800800E+03 -0.31087632912E+02  0.12470059430E+03  0.00000000000E+00 0. -1.
          4    1    5    5  503    0  0.99427833523E+02  0.11087896088E+03  0.16439560190E+03  0.22182414650E+03  0.00000000000E+00 0. -1.
         -4    1    5    5    0  503  0.17903653089E+03  0.18773005933E+03  0.13517399485E+03  0.29252121880E+03  0.00000000000E+00 0.  1.
<mgrwt>
<rscale>  0 0.12474063E+04</rscale>
<asrwt>0</asrwt>
<pdfrwt beam="1">  1        2 0.12860238E+00 0.12474063E+04</pdfrwt>
<pdfrwt beam="2">  1       -1 0.71594581E-01 0.12474063E+04</pdfrwt>
<totfact> 0.71828658E+01</totfact>
</mgrwt>
</event>
<event>
12    6  0.1663299E-008  0.2736758E+04  0.7818608E-02  0.8323176E-01
         -1   -1    0    0    0  501 -0.00000000000E+00  0.00000000000E+00  0.99955718611E+03  0.99955718611E+03  0.00000000000E+00 0.  1.
          2   -1    0    0  501    0  0.00000000000E+00 -0.00000000000E+00 -0.18732908098E+04  0.18732908098E+04  0.00000000000E+00 0. -1.
         24    2    1    2    0    0  0.11162287160E+04  0.46211908296E+03 -0.36505403016E+03  0.12645525278E+04  0.79423279967E+02 0.  0.
        254    2    1    2    0    0 -0.11162287160E+04 -0.46211908296E+03 -0.50867959356E+03  0.16082954681E+04  0.93184697814E+03 0.  0.
         23    2    4    4    0    0 -0.10586711980E+04 -0.69581306730E+03 -0.42234700023E+03  0.13366024754E+04  0.56468207262E+02 0.  0.
         23    2    4    4    0    0 -0.57557517960E+02  0.23369398434E+03 -0.86332593330E+02  0.27169299275E+03  0.91858692838E+02 0.  0.
          2    1    3    3  502    0  0.32970320515E+03  0.13843090348E+03 -0.14620887785E+03  0.38632156876E+03  0.00000000000E+00 0. -1.
         -1    1    3    3    0  502  0.78652551084E+03  0.32368817948E+03 -0.21884515230E+03  0.87823095904E+03  0.00000000000E+00 0.  1.
         11    1    5    5    0    0 -0.98598771780E+03 -0.63080528705E+03 -0.38537638885E+03  0.12323157270E+04  0.00000000000E+00 0.  1.
        -11    1    5    5    0    0 -0.72683480229E+02 -0.65007780250E+02 -0.36970611372E+02  0.10428674842E+03  0.00000000000E+00 0. -1.
          3    1    6    6  503    0 -0.49135721041E+01  0.62232485365E+01 -0.30654043164E+02  0.31662949570E+02  0.00000000000E+00 0. -1.
         -3    1    6    6    0  503 -0.52643945856E+02  0.22747073580E+03 -0.55678550166E+02  0.24003004318E+03  0.00000000000E+00 0.  1.
<mgrwt>
<rscale>  0 0.27367581E+04</rscale>
<asrwt>0</asrwt>
<pdfrwt beam="1">  1        2 0.28819859E+00 0.27367581E+04</pdfrwt>
<pdfrwt beam="2">  1       -1 0.15377803E+00 0.27367581E+04</pdfrwt>
<totfact> 0.25503828E+00</totfact>
</mgrwt>
</event>
<event>
11    6  0.1663299E-008  0.1766632E+04  0.7818608E-02  0.8724248E-01
         -1   -1    0    0    0  501 -0.00000000000E+00  0.00000000000E+00  0.88087210737E+03  0.88087210737E+03  0.00000000000E+00 0.  1.
          2   -1    0    0  501    0  0.00000000000E+00 -0.00000000000E+00 -0.88576654330E+03  0.88576654330E+03  0.00000000000E+00 0. -1.
         24    2    1    2    0    0  0.46055754250E+03  0.30225206040E+03  0.35024440806E+03  0.65760110002E+03  0.79363111080E+02 0.  0.
        254    2    1    2    0    0 -0.46055754250E+03 -0.30225206040E+03 -0.35513884399E+03  0.11090375506E+04  0.89463463618E+03 0.  0.
         23    2    4    4    0    0  0.19489624989E+03 -0.27798008372E+03 -0.38740497976E+01  0.35147456625E+03  0.90894924466E+02 0.  0.
          4    1    3    3  502    0  0.82790711614E+02  0.64639495502E+02  0.10435666276E+03  0.14806376792E+03  0.00000000000E+00 0. -1.
         -3    1    3    3    0  502  0.37776683088E+03  0.23761256490E+03  0.24588774531E+03  0.50953733210E+03  0.00000000000E+00 0.  1.
         11    1    4    4    0    0 -0.38014323275E+02 -0.27883045942E+02 -0.55833121296E+02  0.73074554113E+02  0.00000000000E+00 0. -1.
        -11    1    4    4    0    0 -0.61743946911E+03  0.36110692626E+01 -0.29543167290E+03  0.68448843028E+03  0.00000000000E+00 0.  1.
          2    1    5    5  503    0  0.52933563772E+02 -0.22617163186E+02 -0.13578788837E+02  0.59142892645E+02  0.00000000000E+00 0. -1.
         -2    1    5    5    0  503  0.14196268612E+03 -0.25536292054E+03  0.97047390389E+01  0.29233167361E+03  0.00000000000E+00 0.  1.
<mgrwt>
<rscale>  0 0.17666319E+04</rscale>
<asrwt>0</asrwt>
<pdfrwt beam="1">  1        2 0.13627177E+00 0.17666319E+04</pdfrwt>
<pdfrwt beam="2">  1       -1 0.13551879E+00 0.17666319E+04</pdfrwt>
<totfact> 0.14775541E+01</totfact>
</mgrwt>
</event>
<event>
11    6  0.1663299E-008  0.2901057E+04  0.7818608E-02  0.8272563E-01
          2   -1    0    0  501    0  0.00000000000E+00  0.00000000000E+00  0.16911916362E+04  0.16911916362E+04  0.00000000000E+00 0. -1.
         -1   -1    0    0    0  501 -0.00000000000E+00 -0.00000000000E+00 -0.12441124374E+04  0.12441124374E+04  0.00000000000E+00 0.  1.
         24    2    1    2    0    0  0.12464572469E+04  0.42016318722E+03  0.97801348247E+02  0.13213642407E+04  0.79028985146E+02 0.  0.
        254    2    1    2    0    0 -0.12464572469E+04 -0.42016318722E+03  0.34927785051E+03  0.16139398330E+04  0.86753328194E+03 0.  0.
         23    2    4    4    0    0 -0.22979682305E+03 -0.20367494010E+03  0.37412600824E+03  0.49265876620E+03  0.91936547479E+02 0.  0.
          2    1    3    3  502    0  0.28277428683E+03  0.11568665531E+03 -0.45358488217E+01  0.30555731612E+03  0.00000000000E+00 0. -1.
         -1    1    3    3    0  502  0.96368296008E+03  0.30447653192E+03  0.10233719707E+03  0.10158069245E+04  0.00000000000E+00 0.  1.
         11    1    4    4    0    0 -0.10034641367E+04 -0.10739926344E+03 -0.27607141398E+01  0.10091989383E+04  0.00000000000E+00 0.  1.
        -11    1    4    4    0    0 -0.13196287114E+02 -0.10908898368E+03 -0.22087443599E+02  0.11208212846E+03  0.00000000000E+00 0. -1.
          2    1    5    5  503    0 -0.45236804165E+02  0.45042632413E+00  0.57309690404E+02  0.73013505251E+02  0.00000000000E+00 0. -1.
         -2    1    5    5    0  503 -0.18456001889E+03 -0.20412536642E+03  0.31681631784E+03  0.41964526095E+03  0.00000000000E+00 0.  1.
<mgrwt>
<rscale>  0 0.29010567E+04</rscale>
<asrwt>0</asrwt>
<pdfrwt beam="1">  1        2 0.26018333E+00 0.29010567E+04</pdfrwt>
<pdfrwt beam="2">  1       -1 0.19140191E+00 0.29010567E+04</pdfrwt>
<totfact> 0.16830846E+00</totfact>
</mgrwt>
</event>
<event>
12    6  0.1663299E-008  0.2106136E+04  0.7818608E-02  0.8558545E-01
         -1   -1    0    0    0  501 -0.00000000000E+00  0.00000000000E+00  0.12857374778E+04  0.12857374778E+04  0.00000000000E+00 0.  1.
          2   -1    0    0  501    0  0.00000000000E+00 -0.00000000000E+00 -0.86250285469E+03  0.86250285469E+03  0.00000000000E+00 0. -1.
         24    2    1    2    0    0 -0.66334433070E+03 -0.20155330288E+03 -0.36301343983E+03  0.78655105096E+03  0.78957984344E+02 0.  0.
        254    2    1    2    0    0  0.66334433070E+03  0.20155330288E+03  0.78624806293E+03  0.13616892815E+04  0.86911578513E+03 0.  0.
         23    2    4    4    0    0  0.63961796338E+03  0.31737015249E+02  0.11013643885E+03  0.65959201574E+03  0.11319547185E+03 0.  0.
         23    2    4    4    0    0  0.23726367312E+02  0.16981628763E+03  0.67611162407E+03  0.70209726577E+03  0.80082022631E+02 0.  0.
          4    1    3    3  502    0 -0.31282119104E+03 -0.12165651225E+03 -0.20929987543E+03  0.39555510664E+03  0.00000000000E+00 0. -1.
         -1    1    3    3    0  502 -0.35052313966E+03 -0.79896790636E+02 -0.15371356440E+03  0.39099594431E+03  0.00000000000E+00 0.  1.
         11    1    5    5    0    0  0.57634281125E+03  0.62961351163E+02  0.97981518372E+02  0.58799281098E+03  0.00000000000E+00 0.  1.
        -11    1    5    5    0    0  0.63275152133E+02 -0.31224335914E+02  0.12154920483E+02  0.71599204763E+02  0.00000000000E+00 0. -1.
          3    1    6    6  503    0  0.28764255759E+02  0.28938949175E+02  0.83311409283E+02  0.92766567822E+02  0.00000000000E+00 0. -1.
         -3    1    6    6    0  503 -0.50378884470E+01  0.14087733846E+03  0.59280021479E+03  0.60933069795E+03  0.00000000000E+00 0.  1.
<mgrwt>
<rscale>  0 0.21061360E+04</rscale>
<asrwt>0</asrwt>
<pdfrwt beam="1">  1        2 0.13269275E+00 0.21061360E+04</pdfrwt>
<pdfrwt beam="2">  1       -1 0.19780577E+00 0.21061360E+04</pdfrwt>
<totfact> 0.50950292E+00</totfact>
</mgrwt>
</event>
<event>
11    6  0.1663299E-008  0.1763682E+04  0.7818608E-02  0.8725855E-01
         -1   -1    0    0    0  501 -0.00000000000E+00  0.00000000000E+00  0.46539803968E+03  0.46539803968E+03  0.00000000000E+00 0.  1.
          2   -1    0    0  501    0  0.00000000000E+00 -0.00000000000E+00 -0.16709214192E+04  0.16709214192E+04  0.00000000000E+00 0. -1.
         24    2    1    2    0    0 -0.57818264226E+03  0.19934210428E+03 -0.74418954592E+03  0.96574228249E+03  0.69337101020E+02 0.  0.
        254    2    1    2    0    0  0.57818264226E+03 -0.19934210428E+03 -0.46133383358E+03  0.11705771764E+04  0.88509297674E+03 0.  0.
         23    2    4    4    0    0  0.72304104782E+03 -0.10415218302E+03 -0.38330003086E+03  0.82930891809E+03  0.84842995668E+02 0.  0.
          2    1    3    3  502    0 -0.39706405725E+03  0.15359577585E+03 -0.47227634865E+03  0.63584312327E+03  0.00000000000E+00 0. -1.
         -1    1    3    3    0  502 -0.18111858501E+03  0.45746328432E+02 -0.27191319728E+03  0.32989915922E+03  0.00000000000E+00 0.  1.
         11    1    4    4    0    0  0.58499075250E+02 -0.44464838896E+02  0.56087325787E+02  0.92439449463E+02  0.00000000000E+00 0. -1.
        -11    1    4    4    0    0 -0.20335748081E+03 -0.50725082360E+02 -0.13412112851E+03  0.24882880881E+03  0.00000000000E+00 0.  1.
          4    1    5    5  503    0  0.28799951825E+03 -0.12495910227E+02 -0.18477920700E+03  0.34240798125E+03  0.00000000000E+00 0. -1.
         -4    1    5    5    0  503  0.43504152957E+03 -0.91656272796E+02 -0.19852082386E+03  0.48690093684E+03  0.00000000000E+00 0.  1.
<mgrwt>
<rscale>  0 0.17636820E+04</rscale>
<asrwt>0</asrwt>
<pdfrwt beam="1">  1        2 0.25706483E+00 0.17636820E+04</pdfrwt>
<pdfrwt beam="2">  1       -1 0.71599698E-01 0.17636820E+04</pdfrwt>
<totfact> 0.21620053E+01</totfact>
</mgrwt>
</event>
<event>
12    6  0.1663299E-008  0.1645050E+04  0.7818608E-02  0.8793340E-01
         -3   -1    0    0    0  501 -0.00000000000E+00  0.00000000000E+00  0.81388779584E+03  0.81388779584E+03  0.00000000000E+00 0.  1.
          4   -1    0    0  501    0  0.00000000000E+00 -0.00000000000E+00 -0.83125341194E+03  0.83125341194E+03  0.00000000000E+00 0. -1.
         24    2    1    2    0    0  0.40211609864E+03  0.66751184325E+01 -0.41253928740E+03  0.58162492962E+03  0.79730678660E+02 0.  0.
        254    2    1    2    0    0 -0.40211609864E+03 -0.66751184325E+01  0.39517367130E+03  0.10635162782E+04  0.90175536007E+03 0.  0.
         23    2    4    4    0    0  0.19667709895E+03  0.99152667591E+02  0.37358094782E+03  0.44838326018E+03  0.11389333035E+03 0.  0.
         23    2    4    4    0    0 -0.59879319758E+03 -0.10582778602E+03  0.21592723487E+02  0.61513301797E+03  0.90385675449E+02 0.  0.
          4    1    3    3  502    0  0.38280689387E+03  0.23224220356E+02 -0.37578904607E+03  0.53693378507E+03  0.00000000000E+00 0. -1.
         -3    1    3    3    0  502  0.19309204764E+02 -0.16549101923E+02 -0.36750241335E+02  0.44691144551E+02  0.00000000000E+00 0.  1.
         11    1    5    5    0    0  0.19044565604E+03  0.71115191638E+02  0.25365434768E+03  0.32506529572E+03  0.00000000000E+00 0. -1.
        -11    1    5    5    0    0  0.62314429102E+01  0.28037475953E+02  0.11992660013E+03  0.12331796446E+03  0.00000000000E+00 0.  1.
          3    1    6    6  503    0 -0.47165842933E+03 -0.94421980474E+02  0.52283336919E+02  0.48384990614E+03  0.00000000000E+00 0. -1.
         -3    1    6    6    0  503 -0.12713476825E+03 -0.11405805549E+02 -0.30690613432E+02  0.13128311183E+03  0.00000000000E+00 0.  1.
<mgrwt>
<rscale>  0 0.16450496E+04</rscale>
<asrwt>0</asrwt>
<pdfrwt beam="1">  1        4 0.12788514E+00 0.16450496E+04</pdfrwt>
<pdfrwt beam="2">  1       -3 0.12521351E+00 0.16450496E+04</pdfrwt>
<totfact> 0.50203945E-01</totfact>
</mgrwt>
</event>
<event>
12    6  0.1663299E-008  0.1858179E+04  0.7818608E-02  0.8675958E-01
          2   -1    0    0  501    0  0.00000000000E+00  0.00000000000E+00  0.26004035064E+04  0.26004035064E+04  0.00000000000E+00 0. -1.
         -1   -1    0    0    0  501 -0.00000000000E+00 -0.00000000000E+00 -0.33195123159E+03  0.33195123159E+03  0.00000000000E+00 0.  1.
         24    2    1    2    0    0  0.79260551438E+02  0.35266963369E+03  0.18288663822E+04  0.18660065285E+04  0.81055626679E+02 0.  0.
        254    2    1    2    0    0 -0.79260551438E+02 -0.35266963369E+03  0.43958589262E+03  0.10663482096E+04  0.90177859895E+03 0.  0.
         23    2    4    4    0    0  0.14604327226E+03 -0.27574274152E+03  0.65697023216E+03  0.73072280035E+03  0.70591983539E+02 0.  0.
         23    2    4    4    0    0 -0.22530382369E+03 -0.76926892164E+02 -0.21738433954E+03  0.33562540922E+03  0.93321511592E+02 0.  0.
          4    1    3    3  502    0  0.24420929003E+02  0.12634116757E+03  0.85831774728E+03  0.86791003433E+03  0.00000000000E+00 0. -1.
         -3    1    3    3    0  502  0.54839622435E+02  0.22632846612E+03  0.97054863496E+03  0.99809649413E+03  0.00000000000E+00 0.  1.
         11    1    5    5    0    0  0.44581482108E+02 -0.29292295382E+02  0.10467987711E+03  0.11748797295E+03  0.00000000000E+00 0.  1.
        -11    1    5    5    0    0  0.10146179015E+03 -0.24645044614E+03  0.55229035505E+03  0.61323482741E+03  0.00000000000E+00 0. -1.
          1    1    6    6  503    0 -0.22535590840E+03 -0.80126642270E+02 -0.18316220994E+03  0.30125397823E+03  0.00000000000E+00 0. -1.
         -1    1    6    6    0  503  0.52084702563E-01  0.31997501062E+01 -0.34222129601E+02  0.34371430986E+02  0.00000000000E+00 0.  1.
<mgrwt>
<rscale>  0 0.18581788E+04</rscale>
<asrwt>0</asrwt>
<pdfrwt beam="1">  1        2 0.40006206E+00 0.18581788E+04</pdfrwt>
<pdfrwt beam="2">  1       -1 0.51069422E-01 0.18581788E+04</pdfrwt>
<totfact> 0.12560110E+01</totfact>
</mgrwt>
</event>
<event>
12    6  0.1663299E-008  0.2029075E+04  0.7818608E-02  0.8593147E-01
          2   -1    0    0  501    0  0.00000000000E+00  0.00000000000E+00  0.30953485174E+04  0.30953485174E+04  0.00000000000E+00 0. -1.
         -1   -1    0    0    0  501 -0.00000000000E+00 -0.00000000000E+00 -0.33252674870E+03  0.33252674870E+03  0.00000000000E+00 0.  1.
         24    2    1    2    0    0 -0.86703099343E+02  0.85899491005E+01 -0.25330465594E+03  0.27940275586E+03  0.79444550472E+02 0.  0.
        254    2    1    2    0    0  0.86703099343E+02 -0.85899491005E+01  0.30161264246E+04  0.31484725102E+04  0.89903799906E+03 0.  0.
         23    2    4    4    0    0  0.21636132390E+03 -0.32616639092E+03  0.24277367278E+04  0.24612720676E+04  0.10371997836E+03 0.  0.
         23    2    4    4    0    0 -0.12965822456E+03  0.31757644182E+03  0.58838969681E+03  0.68720044268E+03  0.91520279241E+02 0.  0.
          2    1    3    3  502    0  0.10153757081E+02  0.13013346120E+02 -0.15713476084E+02  0.22789455692E+02  0.00000000000E+00 0. -1.
         -1    1    3    3    0  502 -0.96856856424E+02 -0.44233970192E+01 -0.23759117985E+03  0.25661330016E+03  0.00000000000E+00 0.  1.
         11    1    5    5    0    0  0.49044045339E+02 -0.13228335383E+03  0.11051696179E+04  0.11141382717E+04  0.00000000000E+00 0. -1.
        -11    1    5    5    0    0  0.16731727856E+03 -0.19388303710E+03  0.13225671099E+04  0.13471337959E+04  0.00000000000E+00 0.  1.
          4    1    6    6  503    0 -0.66239686797E+02  0.20423827384E+03  0.28212032117E+03  0.35453186631E+03  0.00000000000E+00 0. -1.
         -4    1    6    6    0  503 -0.63418537760E+02  0.11333816798E+03  0.30626937564E+03  0.33266857637E+03  0.00000000000E+00 0.  1.
<mgrwt>
<rscale>  0 0.20290748E+04</rscale>
<asrwt>0</asrwt>
<pdfrwt beam="1">  1        2 0.47620744E+00 0.20290748E+04</pdfrwt>
<pdfrwt beam="2">  1       -1 0.51157963E-01 0.20290748E+04</pdfrwt>
<totfact> 0.61577960E+00</totfact>
</mgrwt>
</event>
<event>
12    6  0.1663299E-008  0.2329161E+04  0.7818608E-02  0.8466511E-01
          2   -1    0    0  501    0  0.00000000000E+00  0.00000000000E+00  0.39717670849E+04  0.39717670849E+04  0.00000000000E+00 0. -1.
         -1   -1    0    0    0  501 -0.00000000000E+00 -0.00000000000E+00 -0.34147220251E+03  0.34147220251E+03  0.00000000000E+00 0.  1.
         24    2    1    2    0    0 -0.25408312418E+02 -0.21118170902E+03 -0.24050860836E+03  0.33110250169E+03  0.80877557875E+02 0.  0.
        254    2    1    2    0    0  0.25408312418E+02  0.21118170902E+03  0.38708034908E+04  0.39821367858E+04  0.91052205886E+03 0.  0.
         23    2    4    4    0    0 -0.16237413170E+03  0.19534926316E+03  0.33044605162E+03  0.43558652803E+03  0.12654776612E+03 0.  0.
         23    2    4    4    0    0  0.18778244412E+03  0.15832445864E+02  0.35403574392E+04  0.35465502577E+04  0.91515140112E+02 0.  0.
          2    1    3    3  502    0  0.21726747070E+02 -0.12125232076E+03 -0.10557338312E+03  0.16223413960E+03  0.00000000000E+00 0. -1.
         -1    1    3    3    0  502 -0.47135059488E+02 -0.89929388257E+02 -0.13493522524E+03  0.16886836209E+03  0.00000000000E+00 0.  1.
         11    1    5    5    0    0 -0.70697614747E+02  0.14174026293E+03  0.27096409996E+03  0.31386302480E+03  0.00000000000E+00 0.  1.
        -11    1    5    5    0    0 -0.91676516957E+02  0.53609000226E+02  0.59481951653E+02  0.12172350323E+03  0.00000000000E+00 0. -1.
          1    1    6    6  503    0  0.38096292691E+02  0.42881684831E+02  0.99358749782E+03  0.99524182098E+03  0.00000000000E+00 0. -1.
         -1    1    6    6    0  503  0.14968615143E+03 -0.27049238967E+02  0.25467699414E+04  0.25513084368E+04  0.00000000000E+00 0.  1.
<mgrwt>
<rscale>  0 0.23291613E+04</rscale>
<asrwt>0</asrwt>
<pdfrwt beam="1">  1        2 0.61104106E+00 0.23291613E+04</pdfrwt>
<pdfrwt beam="2">  1       -1 0.52534188E-01 0.23291613E+04</pdfrwt>
<totfact> 0.13615888E+00</totfact>
</mgrwt>
</event>
<event>
11    6  0.1663299E-008  0.1515659E+04  0.7818608E-02  0.8874106E-01
          2   -1    0    0  501    0  0.00000000000E+00  0.00000000000E+00  0.11550126922E+04  0.11550126922E+04  0.00000000000E+00 0. -1.
         -1   -1    0    0    0  501 -0.00000000000E+00 -0.00000000000E+00 -0.49722877555E+03  0.49722877555E+03  0.00000000000E+00 0.  1.
         24    2    1    2    0    0 -0.40268742091E+03  0.20514060486E+03  0.40226260514E+03  0.61017285593E+03  0.79094145781E+02 0.  0.
        254    2    1    2    0    0  0.40268742091E+03 -0.20514060486E+03  0.25552131152E+03  0.10420686118E+04  0.90353529229E+03 0.  0.
         23    2    4    4    0    0  0.21012245272E+03  0.19369063505E+03  0.43416848346E+03  0.52924123689E+03  0.99631860104E+02 0.  0.
          4    1    3    3  502    0 -0.22439122304E+03  0.95154500151E+02  0.26324017863E+03  0.35874948296E+03  0.00000000000E+00 0. -1.
         -3    1    3    3    0  502 -0.17829619787E+03  0.10998610471E+03  0.13902242651E+03  0.25142337297E+03  0.00000000000E+00 0.  1.
         11    1    4    4    0    0 -0.30718484691E+01 -0.43056449897E+02  0.33580743005E+02  0.54689673902E+02  0.00000000000E+00 0.  1.
        -11    1    4    4    0    0  0.19563681665E+03 -0.35577479001E+03 -0.21222791495E+03  0.45813770105E+03  0.00000000000E+00 0. -1.
          4    1    5    5  503    0  0.83338006873E+02  0.13899285856E+03  0.26799596016E+03  0.31318696139E+03  0.00000000000E+00 0. -1.
         -4    1    5    5    0  503  0.12678444585E+03  0.54697776488E+02  0.16617252330E+03  0.21605427550E+03  0.00000000000E+00 0.  1.
<mgrwt>
<rscale>  0 0.15156590E+04</rscale>
<asrwt>0</asrwt>
<pdfrwt beam="1">  1        2 0.17769426E+00 0.15156590E+04</pdfrwt>
<pdfrwt beam="2">  1       -1 0.76496735E-01 0.15156590E+04</pdfrwt>
<totfact> 0.38061448E+01</totfact>
</mgrwt>
</event>
<event>
12    6  0.1663299E-008  0.1464891E+04  0.7818608E-02  0.8908142E-01
          2   -1    0    0  501    0  0.00000000000E+00  0.00000000000E+00  0.13070631436E+04  0.13070631436E+04  0.00000000000E+00 0. -1.
         -1   -1    0    0    0  501 -0.00000000000E+00 -0.00000000000E+00 -0.41044388910E+03  0.41044388910E+03  0.00000000000E+00 0.  1.
         24    2    1    2    0    0  0.30983952630E+03 -0.14709121323E+03 -0.66375053687E+02  0.35835806153E+03  0.79865483421E+02 0.  0.
        254    2    1    2    0    0 -0.30983952630E+03  0.14709121323E+03  0.96299430820E+03  0.13591489712E+04  0.89570727985E+03 0.  0.
         23    2    4    4    0    0  0.15938856537E+03 -0.29227240446E+00 -0.68449250911E+02  0.21255900748E+03  0.12284637365E+03 0.  0.
         23    2    4    4    0    0 -0.46922809167E+03  0.14738348563E+03  0.10314435591E+04  0.11465899637E+04  0.94317736301E+02 0.  0.
          2    1    3    3  502    0  0.17236487607E+02  0.43991901238E+01  0.96068827112E+01  0.20217358239E+02  0.00000000000E+00 0. -1.
         -1    1    3    3    0  502  0.29260303870E+03 -0.15149040335E+03 -0.75981936398E+02  0.33814070329E+03  0.00000000000E+00 0.  1.
         11    1    5    5    0    0  0.10542750888E+03 -0.55418770445E+02 -0.64187230951E+02  0.13530040784E+03  0.00000000000E+00 0.  1.
        -11    1    5    5    0    0  0.53961056490E+02  0.55126498040E+02 -0.42620199593E+01  0.77258599637E+02  0.00000000000E+00 0. -1.
          2    1    6    6  503    0 -0.21315075232E+02  0.97352949231E+01  0.16385568938E+02  0.28593622870E+02  0.00000000000E+00 0. -1.
         -2    1    6    6    0  503 -0.44791301644E+03  0.13764819071E+03  0.10150579902E+04  0.11179963408E+04  0.00000000000E+00 0.  1.
<mgrwt>
<rscale>  0 0.14648905E+04</rscale>
<asrwt>0</asrwt>
<pdfrwt beam="1">  1        2 0.20108664E+00 0.14648905E+04</pdfrwt>
<pdfrwt beam="2">  1       -1 0.63145214E-01 0.14648905E+04</pdfrwt>
<totfact> 0.45996316E+01</totfact>
</mgrwt>
</event>
<event>
12    6  0.1663299E-008  0.1447563E+04  0.7818608E-02  0.8920091E-01
          2   -1    0    0  501    0  0.00000000000E+00  0.00000000000E+00  0.14017065927E+04  0.14017065927E+04  0.00000000000E+00 0. -1.
         -1   -1    0    0    0  501 -0.00000000000E+00 -0.00000000000E+00 -0.37373010227E+03  0.37373010227E+03  0.00000000000E+00 0.  1.
         24    2    1    2    0    0 -0.16608980105E+03 -0.30317251084E+03  0.64266195608E+03  0.73410553352E+03  0.79982193160E+02 0.  0.
        254    2    1    2    0    0  0.16608980105E+03  0.30317251084E+03  0.38531453439E+03  0.10413311615E+04  0.90355072029E+03 0.  0.
         23    2    4    4    0    0  0.46601893364E+02  0.37948647012E+03  0.62945411237E+03  0.74454501235E+03  0.10933013472E+03 0.  0.
         23    2    4    4    0    0  0.11948790769E+03 -0.76313959281E+02 -0.24413957798E+03  0.29678614915E+03  0.91524337339E+02 0.  0.
          2    1    3    3  502    0 -0.87578140878E+02 -0.23511444176E+03  0.45794141155E+03  0.52216766262E+03  0.00000000000E+00 0. -1.
         -1    1    3    3    0  502 -0.78511660172E+02 -0.68058069085E+02  0.18472054453E+03  0.21193787090E+03  0.00000000000E+00 0.  1.
         11    1    5    5    0    0 -0.39347766453E+00  0.27889155546E+01 -0.46830638361E+01  0.54647929088E+01  0.00000000000E+00 0. -1.
        -11    1    5    5    0    0  0.46995371029E+02  0.37669755457E+03  0.63413717621E+03  0.73908021944E+03  0.00000000000E+00 0.  1.
          2    1    6    6  503    0  0.12420717452E+03 -0.84175987829E+02 -0.19112880085E+03  0.24298814301E+03  0.00000000000E+00 0.  1.
         -2    1    6    6    0  503 -0.47192668366E+01  0.78620285485E+01 -0.53010777124E+02  0.53798006131E+02  0.00000000000E+00 0. -1.
<mgrwt>
<rscale>  0 0.14475634E+04</rscale>
<asrwt>0</asrwt>
<pdfrwt beam="1">  1        2 0.21564717E+00 0.14475634E+04</pdfrwt>
<pdfrwt beam="2">  1       -1 0.57496939E-01 0.14475634E+04</pdfrwt>
<totfact> 0.48893154E+01</totfact>
</mgrwt>
</event>
<event>
12    6  0.1663299E-008  0.2597561E+04  0.7818608E-02  0.8369030E-01
          2   -1    0    0  501    0  0.00000000000E+00  0.00000000000E+00  0.11586926669E+04  0.11586926669E+04  0.00000000000E+00 0. -1.
         -1   -1    0    0    0  501 -0.00000000000E+00 -0.00000000000E+00 -0.14558050906E+04  0.14558050906E+04  0.00000000000E+00 0.  1.
         24    2    1    2    0    0  0.50131005528E+02  0.11232684562E+04 -0.33572441980E+03  0.11760343442E+04  0.78107299119E+02 0.  0.
        254    2    1    2    0    0 -0.50131005528E+02 -0.11232684562E+04  0.38611996136E+02  0.14384634133E+04  0.89634868371E+03 0.  0.
         23    2    4    4    0    0 -0.42235291771E+03 -0.79771620948E+03 -0.10557341319E+03  0.91588958685E+03  0.11390720684E+03 0.  0.
         23    2    4    4    0    0  0.37222191219E+03 -0.32555224675E+03  0.14418540933E+03  0.52257382648E+03  0.88094009947E+02 0.  0.
          2    1    3    3  502    0  0.18224455596E+02  0.88562103892E+03 -0.23903235620E+03  0.91749290061E+03  0.00000000000E+00 0. -1.
         -1    1    3    3    0  502  0.31906549932E+02  0.23764741731E+03 -0.96692063597E+02  0.25854144358E+03  0.00000000000E+00 0.  1.
         11    1    5    5    0    0 -0.34614812228E+03 -0.65878851041E+03 -0.42697110492E+02  0.74541523143E+03  0.00000000000E+00 0. -1.
        -11    1    5    5    0    0 -0.76204795431E+02 -0.13892769907E+03 -0.62876302699E+02  0.17047435542E+03  0.00000000000E+00 0.  1.
          3    1    6    6  503    0  0.50402651862E+02 -0.98001483506E+01  0.11752863648E+02  0.52674472246E+02  0.00000000000E+00 0. -1.
         -3    1    6    6    0  503  0.32181926032E+03 -0.31575209840E+03  0.13243254568E+03  0.46989935424E+03  0.00000000000E+00 0.  1.
<mgrwt>
<rscale>  0 0.25975609E+04</rscale>
<asrwt>0</asrwt>
<pdfrwt beam="1">  1        2 0.17826041E+00 0.25975609E+04</pdfrwt>
<pdfrwt beam="2">  1       -1 0.22397001E+00 0.25975609E+04</pdfrwt>
<totfact> 0.20936414E+00</totfact>
</mgrwt>
</event>
<event>
11    6  0.1663299E-008  0.2258137E+04  0.7818608E-02  0.8494612E-01
          2   -1    0    0  501    0  0.00000000000E+00  0.00000000000E+00  0.27663323975E+04  0.27663323975E+04  0.00000000000E+00 0. -1.
         -1   -1    0    0    0  501 -0.00000000000E+00 -0.00000000000E+00 -0.46082531732E+03  0.46082531732E+03  0.00000000000E+00 0.  1.
         24    2    1    2    0    0 -0.85926911698E+03 -0.94530966879E+02  0.42759887530E+03  0.96778482045E+03  0.80542792595E+02 0.  0.
        254    2    1    2    0    0  0.85926911698E+03  0.94530966879E+02  0.18779082048E+04  0.22593728943E+04  0.91156301523E+03 0.  0.
         23    2    4    4    0    0  0.65810584778E+02  0.34721283188E+03  0.40966312500E+03  0.54899565280E+03  0.93191024864E+02 0.  0.
          4    1    3    3  502    0 -0.68285805193E+03 -0.62388053063E+02  0.37165350790E+03  0.77994468918E+03  0.00000000000E+00 0. -1.
         -3    1    3    3    0  502 -0.17641106505E+03 -0.32142913816E+02  0.55945367404E+02  0.18784013127E+03  0.00000000000E+00 0.  1.
         11    1    4    4    0    0  0.69317999982E+02 -0.98003743609E+02  0.10718719659E+03  0.16093108462E+03  0.00000000000E+00 0. -1.
        -11    1    4    4    0    0  0.72414053222E+03 -0.15467812139E+03  0.13610578832E+04  0.15494461569E+04  0.00000000000E+00 0.  1.
          1    1    5    5  503    0  0.22177379288E+02  0.22657292310E+03  0.19913461267E+03  0.30245945116E+03  0.00000000000E+00 0.  1.
         -1    1    5    5    0  503  0.43633205490E+02  0.12063990877E+03  0.21052851233E+03  0.24653620163E+03  0.00000000000E+00 0. -1.
<mgrwt>
<rscale>  0 0.22581373E+04</rscale>
<asrwt>0</asrwt>
<pdfrwt beam="1">  1        2 0.42558959E+00 0.22581373E+04</pdfrwt>
<pdfrwt beam="2">  1       -1 0.70896204E-01 0.22581373E+04</pdfrwt>
<totfact> 0.50431589E+00</totfact>
</mgrwt>
</event>
<event>
12    6  0.1663299E-008  0.1496041E+04  0.7818608E-02  0.8887090E-01
          2   -1    0    0  501    0  0.00000000000E+00  0.00000000000E+00  0.68983403020E+03  0.68983403020E+03  0.00000000000E+00 0. -1.
         -1   -1    0    0    0  501 -0.00000000000E+00 -0.00000000000E+00 -0.81111482266E+03  0.81111482266E+03  0.00000000000E+00 0.  1.
         24    2    1    2    0    0  0.10712053852E+03 -0.21016087555E+03  0.37712299880E+03  0.45108662536E+03  0.74933196696E+02 0.  0.
        254    2    1    2    0    0 -0.10712053852E+03  0.21016087555E+03 -0.49840379126E+03  0.10498622275E+04  0.89339910130E+03 0.  0.
         23    2    4    4    0    0  0.23783258304E+03  0.35736208097E+03 -0.50020576356E+03  0.66379500665E+03  0.78396495333E+02 0.  0.
         23    2    4    4    0    0 -0.34495312157E+03 -0.14720120542E+03  0.18019722951E+01  0.38606722085E+03  0.91563098205E+02 0.  0.
          2    1    3    3  502    0  0.59711623326E+02 -0.16826799891E+03  0.23183182523E+03  0.29261851036E+03  0.00000000000E+00 0. -1.
         -1    1    3    3    0  502  0.47408915198E+02 -0.41892876649E+02  0.14529117357E+03  0.15846811500E+03  0.00000000000E+00 0.  1.
         11    1    5    5    0    0  0.23515629250E+03  0.35315249578E+03 -0.50302525801E+03  0.65806502519E+03  0.00000000000E+00 0. -1.
        -11    1    5    5    0    0  0.26762905428E+01  0.42095851946E+01  0.28194944531E+01  0.57299814616E+01  0.00000000000E+00 0.  1.
          4    1    6    6  503    0 -0.15334237091E+02 -0.33741377363E+02  0.53692958919E+01  0.37449281861E+02  0.00000000000E+00 0.  1.
         -4    1    6    6    0  503 -0.32961888448E+03 -0.11345982806E+03 -0.35673235968E+01  0.34861793899E+03  0.00000000000E+00 0. -1.
<mgrwt>
<rscale>  0 0.14960409E+04</rscale>
<asrwt>0</asrwt>
<pdfrwt beam="1">  1        2 0.10612831E+00 0.14960409E+04</pdfrwt>
<pdfrwt beam="2">  1       -1 0.12478690E+00 0.14960409E+04</pdfrwt>
<totfact> 0.25902804E+01</totfact>
</mgrwt>
</event>
<event>
12    6  0.1663299E-008  0.3451867E+04  0.7818608E-02  0.8125293E-01
         -1   -1    0    0    0  501 -0.00000000000E+00  0.00000000000E+00  0.12159948301E+04  0.12159948301E+04  0.00000000000E+00 0.  1.
          2   -1    0    0  501    0  0.00000000000E+00 -0.00000000000E+00 -0.24497193499E+04  0.24497193499E+04  0.00000000000E+00 0. -1.
         24    2    1    2    0    0  0.70094407308E+03 -0.13545114340E+04 -0.11121504865E+04  0.18892213642E+04  0.79087545662E+02 0.  0.
        254    2    1    2    0    0 -0.70094407308E+03  0.13545114340E+04 -0.12157403333E+03  0.17764928158E+04  0.90284143719E+03 0.  0.
         23    2    4    4    0    0 -0.76298499746E+03  0.54485778966E+03  0.32516520172E+02  0.94497975267E+03  0.11363666475E+03 0.  0.
         23    2    4    4    0    0  0.62040924375E+02  0.80965364432E+03 -0.15409055350E+03  0.83151306315E+03  0.91005359451E+02 0.  0.
          4    1    3    3  502    0  0.69466000020E+03 -0.13497567866E+04 -0.11112385445E+04  0.18812886546E+04  0.00000000000E+00 0. -1.
         -3    1    3    3    0  502  0.62840728887E+01 -0.47546473412E+01 -0.91194193525E+00  0.79327095940E+01  0.00000000000E+00 0.  1.
         11    1    5    5    0    0 -0.33325782179E+03  0.27373607308E+03  0.63554693538E+02  0.43592592554E+03  0.00000000000E+00 0. -1.
        -11    1    5    5    0    0 -0.42972717567E+03  0.27112171658E+03 -0.31038173365E+02  0.50905382713E+03  0.00000000000E+00 0.  1.
          3    1    6    6  503    0 -0.72901045887E+01  0.12756301273E+03 -0.53699520788E+02  0.13859692051E+03  0.00000000000E+00 0. -1.
         -3    1    6    6    0  503  0.69331028963E+02  0.68209063159E+03 -0.10039103271E+03  0.69291614264E+03  0.00000000000E+00 0.  1.
<mgrwt>
<rscale>  0 0.34518668E+04</rscale>
<asrwt>0</asrwt>
<pdfrwt beam="1">  1        2 0.37687990E+00 0.34518668E+04</pdfrwt>
<pdfrwt beam="2">  1       -1 0.18707613E+00 0.34518668E+04</pdfrwt>
<totfact> 0.64653464E-01</totfact>
</mgrwt>
</event>
<event>
11    6  0.1663299E-008  0.1928855E+04  0.7818608E-02  0.8640625E-01
          2   -1    0    0  501    0  0.00000000000E+00  0.00000000000E+00  0.92597037958E+03  0.92597037958E+03  0.00000000000E+00 0. -1.
         -1   -1    0    0    0  501 -0.00000000000E+00 -0.00000000000E+00 -0.10044813765E+04  0.10044813765E+04  0.00000000000E+00 0.  1.
         24    2    1    2    0    0 -0.33233547242E+03  0.48980810463E+02 -0.71006734716E+03  0.78965363417E+03  0.80692245205E+02 0.  0.
        254    2    1    2    0    0  0.33233547242E+03 -0.48980810463E+02  0.63155635019E+03  0.11407981220E+04  0.88865682103E+03 0.  0.
         23    2    4    4    0    0  0.56559929658E+03 -0.46850550145E+02  0.65153875515E+03  0.86889387055E+03  0.91521967193E+02 0.  0.
          4    1    3    3  502    0 -0.53771707277E+01 -0.10275036109E+02 -0.12887614672E+02  0.17337270374E+02  0.00000000000E+00 0. -1.
         -3    1    3    3    0  502 -0.32695830169E+03  0.59255846572E+02 -0.69717973249E+03  0.77231636380E+03  0.00000000000E+00 0.  1.
         11    1    4    4    0    0 -0.57117745300E+02  0.27744151296E+02  0.49186036658E+02  0.80320862554E+02  0.00000000000E+00 0. -1.
        -11    1    4    4    0    0 -0.17614607886E+03 -0.29874411613E+02 -0.69168441614E+02  0.19158338885E+03  0.00000000000E+00 0.  1.
          2    1    5    5  503    0  0.44021823927E+03 -0.53966844376E+02  0.45296443243E+03  0.63394108206E+03  0.00000000000E+00 0.  1.
         -2    1    5    5    0  503  0.12538105731E+03  0.71162942309E+01  0.19857432272E+03  0.23495278849E+03  0.00000000000E+00 0. -1.
<mgrwt>
<rscale>  0 0.19288546E+04</rscale>
<asrwt>0</asrwt>
<pdfrwt beam="1">  1        2 0.14245698E+00 0.19288546E+04</pdfrwt>
<pdfrwt beam="2">  1       -1 0.15453560E+00 0.19288546E+04</pdfrwt>
<totfact> 0.96622023E+00</totfact>
</mgrwt>
</event>
<event>
12    6  0.1663299E-008  0.1362825E+04  0.7818608E-02  0.8981176E-01
         -1   -1    0    0    0  501 -0.00000000000E+00  0.00000000000E+00  0.54499619054E+03  0.54499619054E+03  0.00000000000E+00 0.  1.
          2   -1    0    0  501    0  0.00000000000E+00 -0.00000000000E+00 -0.85197431471E+03  0.85197431471E+03  0.00000000000E+00 0. -1.
         24    2    1    2    0    0 -0.30494299128E+03 -0.80093002690E+02 -0.31088170818E+03  0.45001165352E+03  0.80361276832E+02 0.  0.
        254    2    1    2    0    0  0.30494299128E+03  0.80093002690E+02  0.39035840121E+01  0.94695885173E+03  0.89292256769E+03 0.  0.
         23    2    4    4    0    0  0.21164517413E+03  0.41321090548E+03 -0.22653113051E+03  0.52168072153E+03  0.72783857989E+02 0.  0.
         23    2    4    4    0    0  0.93297817151E+02 -0.33311790279E+03  0.23043471453E+03  0.42527813020E+03  0.89940594405E+02 0.  0.
          2    1    3    3  502    0 -0.24388108611E+03 -0.52771161334E+02 -0.19692698598E+03  0.31787264343E+03  0.00000000000E+00 0. -1.
         -1    1    3    3    0  502 -0.61061905168E+02 -0.27321841356E+02 -0.11395472219E+03  0.13213901009E+03  0.00000000000E+00 0.  1.
         11    1    5    5    0    0  0.13312696719E+03  0.27456010005E+03 -0.11031527432E+03  0.32446185859E+03  0.00000000000E+00 0. -1.
        -11    1    5    5    0    0  0.78518206932E+02  0.13865080543E+03 -0.11621585620E+03  0.19721886294E+03  0.00000000000E+00 0.  1.
          2    1    6    6  503    0  0.10364494440E+03 -0.21563323229E+03  0.14682897385E+03  0.28071108444E+03  0.00000000000E+00 0. -1.
         -2    1    6    6    0  503 -0.10347127245E+02 -0.11748467050E+03  0.83605740677E+02  0.14456704576E+03  0.00000000000E+00 0.  1.
<mgrwt>
<rscale>  0 0.13628246E+04</rscale>
<asrwt>0</asrwt>
<pdfrwt beam="1">  1        2 0.13107297E+00 0.13628246E+04</pdfrwt>
<pdfrwt beam="2">  1       -1 0.83845568E-01 0.13628246E+04</pdfrwt>
<totfact> 0.49721899E+01</totfact>
</mgrwt>
</event>
<event>
12    6  0.1663299E-008  0.1502687E+04  0.7818608E-02  0.8882668E-01
         -1   -1    0    0    0  501 -0.00000000000E+00  0.00000000000E+00  0.78135775030E+03  0.78135775030E+03  0.00000000000E+00 0.  1.
          2   -1    0    0  501    0  0.00000000000E+00 -0.00000000000E+00 -0.72248237874E+03  0.72248237874E+03  0.00000000000E+00 0. -1.
         24    2    1    2    0    0  0.41032648855E+03 -0.95458900325E+02 -0.20713716088E+03  0.47539154782E+03  0.74907219056E+02 0.  0.
        254    2    1    2    0    0 -0.41032648855E+03  0.95458900325E+02  0.26601253244E+03  0.10284485812E+04  0.89970194394E+03 0.  0.
         23    2    4    4    0    0 -0.70668525668E+02  0.21013828145E+02  0.55060224561E+03  0.56956143664E+03  0.12570511425E+03 0.  0.
         23    2    4    4    0    0 -0.33965796288E+03  0.74445072180E+02 -0.28458971317E+03  0.45888714458E+03  0.93147764830E+02 0.  0.
          2    1    3    3  502    0  0.37521865253E+03 -0.90320327348E+02 -0.16347755013E+03  0.41913208912E+03  0.00000000000E+00 0. -1.
         -1    1    3    3    0  502  0.35107836025E+02 -0.51385729769E+01 -0.43659610748E+02  0.56259458700E+02  0.00000000000E+00 0.  1.
         11    1    5    5    0    0 -0.58659987440E+02  0.12851326513E+02  0.55173863361E+03  0.55499700047E+03  0.00000000000E+00 0. -1.
        -11    1    5    5    0    0 -0.12008538227E+02  0.81625016320E+01 -0.11363880001E+01  0.14564436170E+02  0.00000000000E+00 0.  1.
          3    1    6    6  503    0 -0.28966752946E+03  0.85350025564E+02 -0.27147473432E+03  0.40606703370E+03  0.00000000000E+00 0. -1.
         -3    1    6    6    0  503 -0.49990433425E+02 -0.10904953384E+02 -0.13114978849E+02  0.52820110872E+02  0.00000000000E+00 0.  1.
<mgrwt>
<rscale>  0 0.15026872E+04</rscale>
<asrwt>0</asrwt>
<pdfrwt beam="1">  1        2 0.11115113E+00 0.15026872E+04</pdfrwt>
<pdfrwt beam="2">  1       -1 0.12020889E+00 0.15026872E+04</pdfrwt>
<totfact> 0.26771652E+01</totfact>
</mgrwt>
</event>
<event>
11    6  0.1663299E-008  0.1275125E+04  0.7818608E-02  0.9049527E-01
         -1   -1    0    0    0  501 -0.00000000000E+00  0.00000000000E+00  0.32373490801E+03  0.32373490801E+03  0.00000000000E+00 0.  1.
          2   -1    0    0  501    0  0.00000000000E+00 -0.00000000000E+00 -0.12556139406E+04  0.12556139406E+04  0.00000000000E+00 0. -1.
         24    2    1    2    0    0 -0.31798321731E+03 -0.49301304984E+02 -0.18013939113E+03  0.37741170677E+03  0.80283566211E+02 0.  0.
        254    2    1    2    0    0  0.31798321731E+03  0.49301304984E+02 -0.75173964144E+03  0.12019371418E+04  0.88090661208E+03 0.  0.
         23    2    4    4    0    0  0.32620960824E+03  0.12215040238E+03 -0.77488879602E+03  0.85448998864E+03  0.91471663207E+02 0.  0.
          4    1    3    3  502    0 -0.22537443427E+03 -0.45483614660E+02 -0.16616212408E+03  0.28367630550E+03  0.00000000000E+00 0. -1.
         -3    1    3    3    0  502 -0.92608783048E+02 -0.38176903244E+01 -0.13977267051E+02  0.93735401270E+02  0.00000000000E+00 0.  1.
         11    1    4    4    0    0  0.44149273982E+02 -0.20214965717E+03  0.72909043516E+01  0.20704298967E+03  0.00000000000E+00 0.  1.
        -11    1    4    4    0    0 -0.52375664912E+02  0.12930055977E+03  0.15858250227E+02  0.14040416351E+03  0.00000000000E+00 0. -1.
          2    1    5    5  503    0  0.24835440755E+03  0.49699485240E+02 -0.52453584818E+03  0.58248416855E+03  0.00000000000E+00 0. -1.
         -2    1    5    5    0  503  0.77855200693E+02  0.72450917145E+02 -0.25035294784E+03  0.27200582009E+03  0.00000000000E+00 0.  1.
<mgrwt>
<rscale>  0 0.12751252E+04</rscale>
<asrwt>0</asrwt>
<pdfrwt beam="1">  1        2 0.19317138E+00 0.12751252E+04</pdfrwt>
<pdfrwt beam="2">  1       -1 0.49805370E-01 0.12751252E+04</pdfrwt>
<totfact> 0.79424922E+01</totfact>
</mgrwt>
</event>
<event>
12    6  0.1663299E-008  0.1233639E+04  0.7818608E-02  0.9083911E-01
         -1   -1    0    0    0  501 -0.00000000000E+00  0.00000000000E+00  0.14004412123E+03  0.14004412123E+03  0.00000000000E+00 0.  1.
          2   -1    0    0  501    0  0.00000000000E+00 -0.00000000000E+00 -0.27167601863E+04  0.27167601863E+04  0.00000000000E+00 0. -1.
         24    2    1    2    0    0  0.11468284284E+03  0.27115718096E+02 -0.13200379588E+02  0.14337961797E+03  0.80598065841E+02 0.  0.
        254    2    1    2    0    0 -0.11468284284E+03 -0.27115718096E+02 -0.25635156855E+04  0.27134246895E+04  0.88157442088E+03 0.  0.
         23    2    4    4    0    0  0.22140341248E+02 -0.34060426666E+03 -0.20974795100E+04  0.21281649275E+04  0.11473535897E+03 0.  0.
         23    2    4    4    0    0 -0.13682318409E+03  0.31348854856E+03 -0.46603617544E+03  0.58525976201E+03  0.91343409310E+02 0.  0.
          4    1    3    3  502    0  0.19748329001E+02  0.34064260494E+02 -0.26218363835E+02  0.47305104836E+02  0.00000000000E+00 0. -1.
         -3    1    3    3    0  502  0.94934513844E+02 -0.69485423980E+01  0.13017984247E+02  0.96074513135E+02  0.00000000000E+00 0.  1.
         11    1    5    5    0    0  0.93023663344E+01 -0.16602152215E+03 -0.68568938344E+03  0.70556332841E+03  0.00000000000E+00 0. -1.
        -11    1    5    5    0    0  0.12837974913E+02 -0.17458274451E+03 -0.14117901266E+04  0.14226015991E+04  0.00000000000E+00 0.  1.
          2    1    6    6  503    0 -0.47792425825E+02  0.14991060752E+03 -0.28490542097E+03  0.32546644238E+03  0.00000000000E+00 0. -1.
         -2    1    6    6    0  503 -0.89030758268E+02  0.16357794104E+03 -0.18113075447E+03  0.25979331964E+03  0.00000000000E+00 0.  1.
<mgrwt>
<rscale>  0 0.12336390E+04</rscale>
<asrwt>0</asrwt>
<pdfrwt beam="1">  1        2 0.41796310E+00 0.12336390E+04</pdfrwt>
<pdfrwt beam="2">  1       -1 0.21545250E-01 0.12336390E+04</pdfrwt>
<totfact> 0.52975913E+01</totfact>
</mgrwt>
</event>
<event>
12    6  0.1663299E-008  0.1574085E+04  0.7818608E-02  0.8836629E-01
          2   -1    0    0  501    0  0.00000000000E+00  0.00000000000E+00  0.18361588743E+04  0.18361588743E+04  0.00000000000E+00 0. -1.
         -1   -1    0    0    0  501 -0.00000000000E+00 -0.00000000000E+00 -0.33735412338E+03  0.33735412338E+03  0.00000000000E+00 0.  1.
         24    2    1    2    0    0  0.73475172886E+02 -0.37124612974E+03  0.88463326605E+03  0.96534856648E+03  0.78099612753E+02 0.  0.
        254    2    1    2    0    0 -0.73475172886E+02  0.37124612974E+03  0.61417148490E+03  0.12081644312E+04  0.96914002608E+03 0.  0.
         23    2    4    4    0    0  0.35319323900E+03  0.32014736042E+03  0.60021359659E+03  0.76842282081E+03  0.54566230979E+02 0.  0.
         23    2    4    4    0    0 -0.42666841188E+03  0.51098769320E+02  0.13957888316E+02  0.43974161042E+03  0.92308414385E+02 0.  0.
          4    1    3    3  502    0  0.72399912964E+02 -0.37034738187E+03  0.88622939846E+03  0.96322452074E+03  0.00000000000E+00 0. -1.
         -3    1    3    3    0  502  0.10752599220E+01 -0.89874787368E+00 -0.15961324076E+01  0.21240457394E+01  0.00000000000E+00 0.  1.
         11    1    5    5    0    0  0.70210973754E+02  0.95284426916E+02  0.14979112455E+03  0.19090857456E+03  0.00000000000E+00 0. -1.
        -11    1    5    5    0    0  0.28298226524E+03  0.22486293351E+03  0.45042247204E+03  0.57751424625E+03  0.00000000000E+00 0.  1.
          4    1    6    6  503    0 -0.26270499137E+03  0.59966665253E+02 -0.26099117966E+02  0.27072324871E+03  0.00000000000E+00 0. -1.
         -4    1    6    6    0  503 -0.16396342051E+03 -0.88678959323E+01  0.40057006282E+02  0.16901836171E+03  0.00000000000E+00 0.  1.
<mgrwt>
<rscale>  0 0.15740848E+04</rscale>
<asrwt>0</asrwt>
<pdfrwt beam="1">  1        2 0.28248597E+00 0.15740848E+04</pdfrwt>
<pdfrwt beam="2">  1       -1 0.51900636E-01 0.15740848E+04</pdfrwt>
<totfact> 0.33702504E+01</totfact>
</mgrwt>
</event>
<event>
12    6  0.1663299E-008  0.1457670E+04  0.7818608E-02  0.8913100E-01
         -1   -1    0    0    0  501 -0.00000000000E+00  0.00000000000E+00  0.43164158871E+03  0.43164158871E+03  0.00000000000E+00 0.  1.
          2   -1    0    0  501    0  0.00000000000E+00 -0.00000000000E+00 -0.12306519341E+04  0.12306519341E+04  0.00000000000E+00 0. -1.
         24    2    1    2    0    0  0.70800764268E+02  0.38406762144E+03 -0.12368096947E+02  0.39771682088E+03  0.74195779726E+02 0.  0.
        254    2    1    2    0    0 -0.70800764268E+02 -0.38406762144E+03 -0.78664224840E+03  0.12645767019E+04  0.90985027445E+03 0.  0.
         23    2    4    4    0    0 -0.22299395026E+03 -0.19950639065E+03 -0.92133272671E+03  0.97514181734E+03  0.11188596357E+03 0.  0.
         23    2    4    4    0    0  0.15219318599E+03 -0.18456123080E+03  0.13469047831E+03  0.28943488455E+03  0.91681043131E+02 0.  0.
          4    1    3    3  502    0  0.41083203622E+02  0.66602091572E+02 -0.96955212871E+01  0.78852212110E+02  0.00000000000E+00 0. -1.
         -3    1    3    3    0  502  0.29717560645E+02  0.31746552987E+03 -0.26725756603E+01  0.31886460877E+03  0.00000000000E+00 0.  1.
         11    1    5    5    0    0 -0.82341310878E+02 -0.11210441036E+03 -0.27824095103E+03  0.31107156272E+03  0.00000000000E+00 0. -1.
        -11    1    5    5    0    0 -0.14065263938E+03 -0.87401980283E+02 -0.64309177568E+03  0.66407025462E+03  0.00000000000E+00 0.  1.
          3    1    6    6  503    0  0.25804725792E+02  0.41789869831E+00 -0.37476354844E+01  0.26078789931E+02  0.00000000000E+00 0. -1.
         -3    1    6    6    0  503  0.12638846020E+03 -0.18497912950E+03  0.13843811379E+03  0.26335609462E+03  0.00000000000E+00 0.  1.
<mgrwt>
<rscale>  0 0.14576701E+04</rscale>
<asrwt>0</asrwt>
<pdfrwt beam="1">  1        2 0.18933107E+00 0.14576701E+04</pdfrwt>
<pdfrwt beam="2">  1       -1 0.66406398E-01 0.14576701E+04</pdfrwt>
<totfact> 0.46116745E+01</totfact>
</mgrwt>
</event>
<event>
12    6  0.2228371E-008  0.2805623E+04  0.7818608E-02  0.8301525E-01
          2   -1    0    0  501    0  0.00000000000E+00  0.00000000000E+00  0.11049103981E+04  0.11049103981E+04  0.00000000000E+00 0. -1.
         -1   -1    0    0    0  501 -0.00000000000E+00 -0.00000000000E+00 -0.17810315568E+04  0.17810315568E+04  0.00000000000E+00 0.  1.
         24    2    1    2    0    0 -0.52690158561E+03  0.86698897402E+03 -0.10785192197E+04  0.14841551692E+04  0.10108262417E+03 0.  0.
        254    2    1    2    0    0  0.52690158561E+03 -0.86698897402E+03  0.40239806102E+03  0.14017867857E+04  0.87965153959E+03 0.  0.
         23    2    4    4    0    0 -0.12727988214E+03 -0.16085066547E+03 -0.17034165643E+03  0.27797146143E+03  0.78605015586E+02 0.  0.
         23    2    4    4    0    0  0.65418146774E+03 -0.70613830855E+03  0.57273971745E+03  0.11238153243E+04  0.91353136861E+02 0.  0.
          4    1    3    3  502    0 -0.65812087014E+02  0.15245882568E+03 -0.22143169336E+03  0.27677954973E+03  0.00000000000E+00 0. -1.
         -3    1    3    3    0  502 -0.46108949859E+03  0.71453014834E+03 -0.85708752639E+03  0.12073756195E+04  0.00000000000E+00 0.  1.
         11    1    5    5    0    0 -0.80567434741E+02 -0.65129314377E+02 -0.43555033274E+02  0.11238318404E+03  0.00000000000E+00 0.  1.
        -11    1    5    5    0    0 -0.46712447395E+02 -0.95721351096E+02 -0.12678662316E+03  0.16558827739E+03  0.00000000000E+00 0. -1.
          2    1    6    6  503    0  0.50758463956E+02 -0.35873983594E+02  0.16894788835E+02  0.64411165583E+02  0.00000000000E+00 0.  1.
         -2    1    6    6    0  503  0.60342300379E+03 -0.67026432495E+03  0.55584492861E+03  0.10594041587E+04  0.00000000000E+00 0. -1.
<mgrwt>
<rscale>  0 0.28056231E+04</rscale>
<asrwt>0</asrwt>
<pdfrwt beam="1">  1        2 0.16998621E+00 0.28056231E+04</pdfrwt>
<pdfrwt beam="2">  1       -1 0.27400486E+00 0.28056231E+04</pdfrwt>
<totfact> 0.10435970E+00</totfact>
</mgrwt>
</event>
<event>
11    6  0.1663299E-008  0.1527459E+04  0.7818608E-02  0.8866396E-01
          2   -1    0    0  501    0  0.00000000000E+00  0.00000000000E+00  0.29209807430E+04  0.29209807430E+04  0.00000000000E+00 0. -1.
         -1   -1    0    0    0  501 -0.00000000000E+00 -0.00000000000E+00 -0.19968719366E+03  0.19968719366E+03  0.00000000000E+00 0.  1.
         24    2    1    2    0    0 -0.29649968563E+02 -0.13855676918E+03  0.18681650363E+04  0.18752405700E+04  0.80059312987E+02 0.  0.
        254    2    1    2    0    0  0.29649968563E+02  0.13855676918E+03  0.85312851303E+03  0.12454273667E+04  0.89620531517E+03 0.  0.
         23    2    4    4    0    0  0.34358208344E+03 -0.82135786856E+02  0.86464312986E+02  0.37487342164E+03  0.90879421683E+02 0.  0.
          4    1    3    3  502    0 -0.48953677152E+02 -0.13427097079E+03  0.16244363878E+04  0.16307111130E+04  0.00000000000E+00 0. -1.
         -3    1    3    3    0  502  0.19303708589E+02 -0.42857983894E+01  0.24372864853E+03  0.24452945701E+03  0.00000000000E+00 0.  1.
         11    1    4    4    0    0 -0.19432422412E+03  0.21684186440E+03  0.50755687257E+03  0.58514637240E+03  0.00000000000E+00 0.  1.
        -11    1    4    4    0    0 -0.11960789075E+03  0.38506916334E+01  0.25910732748E+03  0.28540757262E+03  0.00000000000E+00 0. -1.
          1    1    5    5  503    0  0.26833441400E+03 -0.99373519990E+02  0.54334048097E+02  0.29125700506E+03  0.00000000000E+00 0. -1.
         -1    1    5    5    0  503  0.75247669441E+02  0.17237733134E+02  0.32130264889E+02  0.83616416580E+02  0.00000000000E+00 0.  1.
<mgrwt>
<rscale>  0 0.15274586E+04</rscale>
<asrwt>0</asrwt>
<pdfrwt beam="1">  1        2 0.44938162E+00 0.15274586E+04</pdfrwt>
<pdfrwt beam="2">  1       -1 0.30721109E-01 0.15274586E+04</pdfrwt>
<totfact> 0.21080663E+01</totfact>
</mgrwt>
</event>
<event>
12    6  0.1663299E-008  0.1925817E+04  0.7818608E-02  0.8642111E-01
          2   -1    0    0  501    0  0.00000000000E+00  0.00000000000E+00  0.28740655358E+04  0.28740655358E+04  0.00000000000E+00 0. -1.
         -1   -1    0    0    0  501 -0.00000000000E+00 -0.00000000000E+00 -0.32260674957E+03  0.32260674957E+03  0.00000000000E+00 0.  1.
         24    2    1    2    0    0  0.36229234264E+03  0.38133980332E+03  0.18872228201E+04  0.19607504740E+04  0.79099059836E+02 0.  0.
        254    2    1    2    0    0 -0.36229234264E+03 -0.38133980332E+03  0.66423596609E+03  0.12359218114E+04  0.89978748494E+03 0.  0.
         23    2    4    4    0    0 -0.49296769487E+03 -0.52690225155E+03  0.70619925326E+03  0.10162236815E+04  0.11554243689E+03 0.  0.
         23    2    4    4    0    0  0.13067535224E+03  0.14556244823E+03 -0.41963287170E+02  0.21969812985E+03  0.90784782708E+02 0.  0.
          4    1    3    3  502    0  0.33865871723E+03  0.32002075208E+03  0.16332804562E+04  0.16984428331E+04  0.00000000000E+00 0. -1.
         -3    1    3    3    0  502  0.23633625404E+02  0.61319051240E+02  0.25394236387E+03  0.26230764088E+03  0.00000000000E+00 0.  1.
         11    1    5    5    0    0 -0.17806324540E+03 -0.13898346802E+03  0.27797181746E+03  0.35817768642E+03  0.00000000000E+00 0.  1.
        -11    1    5    5    0    0 -0.31490444947E+03 -0.38791878353E+03  0.42822743579E+03  0.65804599511E+03  0.00000000000E+00 0. -1.
          2    1    6    6  503    0  0.42630464560E+02  0.44197299286E+02 -0.58015392810E+02  0.84478065648E+02  0.00000000000E+00 0.  1.
         -2    1    6    6    0  503  0.88044887676E+02  0.10136514894E+03  0.16052105640E+02  0.13522006420E+03  0.00000000000E+00 0. -1.
<mgrwt>
<rscale>  0 0.19258172E+04</rscale>
<asrwt>0</asrwt>
<pdfrwt beam="1">  1        2 0.44216391E+00 0.19258172E+04</pdfrwt>
<pdfrwt beam="2">  1       -1 0.49631809E-01 0.19258172E+04</pdfrwt>
<totfact> 0.90467039E+00</totfact>
</mgrwt>
</event>
<event>
11    6  0.1663299E-008  0.1077976E+04  0.7818608E-02  0.9226927E-01
         -1   -1    0    0    0  501 -0.00000000000E+00  0.00000000000E+00  0.26344634244E+03  0.26344634244E+03  0.00000000000E+00 0.  1.
          2   -1    0    0  501    0  0.00000000000E+00 -0.00000000000E+00 -0.11027227757E+04  0.11027227757E+04  0.00000000000E+00 0. -1.
         24    2    1    2    0    0 -0.28606769555E+02  0.15005739710E+03 -0.12191246934E+03  0.20994959088E+03  0.76685140938E+02 0.  0.
        254    2    1    2    0    0  0.28606769555E+02 -0.15005739710E+03 -0.71736396397E+03  0.11562195273E+04  0.89381036515E+03 0.  0.
         23    2    4    4    0    0 -0.14513338817E+03  0.32005059875E+03 -0.39153219902E+03  0.53430833699E+03  0.93230091628E+02 0.  0.
          2    1    3    3  502    0  0.16028354172E+02  0.22618432080E+02  0.45022479415E+00  0.27725517301E+02  0.00000000000E+00 0. -1.
         -1    1    3    3    0  502 -0.44635123727E+02  0.12743896502E+03 -0.12236269414E+03  0.18222407358E+03  0.00000000000E+00 0.  1.
         11    1    4    4    0    0  0.17931399603E+03 -0.28151989161E+03 -0.25632861946E+03  0.42084595721E+03  0.00000000000E+00 0.  1.
        -11    1    4    4    0    0 -0.55738383022E+01 -0.18858810424E+03 -0.69503145482E+02  0.20106523311E+03  0.00000000000E+00 0. -1.
          3    1    5    5  503    0  0.44911539040E+01  0.76122136481E+02 -0.65690530922E+02  0.10064788114E+03  0.00000000000E+00 0. -1.
         -3    1    5    5    0  503 -0.14962454207E+03  0.24392846227E+03 -0.32584166810E+03  0.43366045585E+03  0.00000000000E+00 0.  1.
<mgrwt>
<rscale>  0 0.10779764E+04</rscale>
<asrwt>0</asrwt>
<pdfrwt beam="1">  1        2 0.16964966E+00 0.10779764E+04</pdfrwt>
<pdfrwt beam="2">  1       -1 0.40530205E-01 0.10779764E+04</pdfrwt>
<totfact> 0.14611930E+02</totfact>
</mgrwt>
</event>
<event>
11    6  0.1663299E-008  0.1872620E+04  0.7818608E-02  0.8668607E-01
         -1   -1    0    0    0  501 -0.00000000000E+00  0.00000000000E+00  0.49749103564E+03  0.49749103564E+03  0.00000000000E+00 0.  1.
          2   -1    0    0  501    0  0.00000000000E+00 -0.00000000000E+00 -0.17621946531E+04  0.17621946531E+04  0.00000000000E+00 0. -1.
         24    2    1    2    0    0  0.14393842109E+03 -0.39505351466E+03  0.17077930331E+03  0.46046796479E+03  0.77971967067E+02 0.  0.
        254    2    1    2    0    0 -0.14393842109E+03  0.39505351466E+03 -0.14354829207E+04  0.17992177239E+04  0.99989382129E+03 0.  0.
         23    2    4    4    0    0 -0.15044316233E+03 -0.12153470710E+03  0.48892636330E+02  0.21958577076E+03  0.91780121527E+02 0.  0.
          4    1    3    3  502    0  0.63065277349E+01 -0.91626523449E+02  0.58425624138E+02  0.10885194370E+03  0.00000000000E+00 0. -1.
         -3    1    3    3    0  502  0.13763189335E+03 -0.30342699121E+03  0.11235367917E+03  0.35161602109E+03  0.00000000000E+00 0.  1.
         11    1    4    4    0    0  0.11832037980E+02 -0.65693711551E+01 -0.76501578259E+02  0.77689415214E+02  0.00000000000E+00 0. -1.
        -11    1    4    4    0    0 -0.53272967346E+01  0.52315759292E+03 -0.14078739788E+04  0.15019425380E+04  0.00000000000E+00 0.  1.
          2    1    5    5  503    0 -0.29798237643E+02 -0.80992038814E+02  0.27129684493E+02  0.90463612014E+02  0.00000000000E+00 0.  1.
         -2    1    5    5    0  503 -0.12064492469E+03 -0.40542668289E+02  0.21762951837E+02  0.12912215874E+03  0.00000000000E+00 0. -1.
<mgrwt>
<rscale>  0 0.18726196E+04</rscale>
<asrwt>0</asrwt>
<pdfrwt beam="1">  1        2 0.27110687E+00 0.18726196E+04</pdfrwt>
<pdfrwt beam="2">  1       -1 0.76537082E-01 0.18726196E+04</pdfrwt>
<totfact> 0.16586390E+01</totfact>
</mgrwt>
</event>
<event>
12    6  0.1663299E-008  0.1259602E+04  0.7818608E-02  0.9062229E-01
          2   -1    0    0  501    0  0.00000000000E+00  0.00000000000E+00  0.98719019657E+03  0.98719019657E+03  0.00000000000E+00 0. -1.
         -1   -1    0    0    0  501 -0.00000000000E+00 -0.00000000000E+00 -0.40179618658E+03  0.40179618658E+03  0.00000000000E+00 0.  1.
         24    2    1    2    0    0  0.18501131771E+03  0.12087342165E+03  0.35503389582E+03  0.42436690073E+03  0.72101508411E+02 0.  0.
        254    2    1    2    0    0 -0.18501131771E+03 -0.12087342165E+03  0.23036011417E+03  0.96461948243E+03  0.91026665979E+03 0.  0.
         23    2    4    4    0    0 -0.27491797459E+03 -0.25852050946E+03  0.50034981870E+03  0.63585331477E+03  0.10745580612E+03 0.  0.
         23    2    4    4    0    0  0.89906656882E+02  0.13764708781E+03 -0.26998970453E+03  0.32876616765E+03  0.90348351978E+02 0.  0.
          2    1    3    3  502    0  0.17251451975E+03  0.10180362706E+03  0.26916102395E+03  0.33551884420E+03  0.00000000000E+00 0. -1.
         -1    1    3    3    0  502  0.12496797965E+02  0.19069794595E+02  0.85872871871E+02  0.88848056527E+02  0.00000000000E+00 0.  1.
         11    1    5    5    0    0 -0.27298831209E+03 -0.22234196517E+03  0.42237061278E+03  0.54986862299E+03  0.00000000000E+00 0.  1.
        -11    1    5    5    0    0 -0.19296625033E+01 -0.36178544288E+02  0.77979205923E+02  0.85984691780E+02  0.00000000000E+00 0. -1.
          3    1    6    6  503    0  0.46130879224E+02  0.32649755689E+01 -0.68570636079E+02  0.82708223386E+02  0.00000000000E+00 0. -1.
         -3    1    6    6    0  503  0.43775777658E+02  0.13438211224E+03 -0.20141906845E+03  0.24605794426E+03  0.00000000000E+00 0.  1.
<mgrwt>
<rscale>  0 0.12596019E+04</rscale>
<asrwt>0</asrwt>
<pdfrwt beam="1">  1        2 0.15187541E+00 0.12596019E+04</pdfrwt>
<pdfrwt beam="2">  1       -1 0.61814799E-01 0.12596019E+04</pdfrwt>
<totfact> 0.76414499E+01</totfact>
</mgrwt>
</event>
<event>
11    6  0.1663299E-008  0.4267981E+04  0.7818608E-02  0.7952565E-01
         -1   -1    0    0    0  501 -0.00000000000E+00  0.00000000000E+00  0.13026788165E+04  0.13026788165E+04  0.00000000000E+00 0.  1.
          2   -1    0    0  501    0  0.00000000000E+00 -0.00000000000E+00 -0.34958089453E+04  0.34958089453E+04  0.00000000000E+00 0. -1.
         24    2    1    2    0    0  0.78223032107E+03  0.13710206823E+04  0.40333002505E+03  0.16315272783E+04  0.87316459305E+02 0.  0.
        254    2    1    2    0    0 -0.78223032107E+03 -0.13710206823E+04 -0.25964601538E+04  0.31669604835E+04  0.89244125132E+03 0.  0.
         23    2    4    4    0    0 -0.45982152886E+03 -0.74174177577E+03 -0.65589569919E+03  0.10955343198E+04  0.91540030724E+02 0.  0.
          2    1    3    3  502    0  0.54139218476E+02  0.13193941492E+03  0.19106284976E+02  0.14388924322E+03  0.00000000000E+00 0. -1.
         -1    1    3    3    0  502  0.72809110260E+03  0.12390812674E+04  0.38422374007E+03  0.14876380351E+04  0.00000000000E+00 0.  1.
         11    1    4    4    0    0 -0.71769274868E+02 -0.29114423886E+03 -0.70430754816E+03  0.76548345445E+03  0.00000000000E+00 0. -1.
        -11    1    4    4    0    0 -0.25063951735E+03 -0.33813466770E+03 -0.12362569065E+04  0.13059427093E+04  0.00000000000E+00 0.  1.
          2    1    5    5  503    0  0.23702859666E+01 -0.21661971043E+02 -0.18210413279E+02  0.28398563288E+02  0.00000000000E+00 0. -1.
         -2    1    5    5    0  503 -0.46219181482E+03 -0.72007980473E+03 -0.63768528591E+03  0.10671357565E+04  0.00000000000E+00 0.  1.
<mgrwt>
<rscale>  0 0.42679814E+04</rscale>
<asrwt>0</asrwt>
<pdfrwt beam="1">  1        2 0.53781677E+00 0.42679814E+04</pdfrwt>
<pdfrwt beam="2">  1       -1 0.20041212E+00 0.42679814E+04</pdfrwt>
<totfact> 0.10703689E-01</totfact>
</mgrwt>
</event>
<event>
11    6  0.1663299E-008  0.1930449E+04  0.7818608E-02  0.8639847E-01
          2   -1    0    0  501    0  0.00000000000E+00  0.00000000000E+00  0.10341772756E+04  0.10341772756E+04  0.00000000000E+00 0. -1.
         -1   -1    0    0    0  501 -0.00000000000E+00 -0.00000000000E+00 -0.90086939076E+03  0.90086939076E+03  0.00000000000E+00 0.  1.
         24    2    1    2    0    0 -0.54377507852E+03 -0.30940848320E+03 -0.36569886907E+03  0.73033994980E+03  0.90751495520E+02 0.  0.
        254    2    1    2    0    0  0.54377507852E+03  0.30940848320E+03  0.49900675388E+03  0.12047067165E+04  0.90049185835E+03 0.  0.
         23    2    4    4    0    0  0.64378042881E+03  0.65376707681E+02  0.95501663725E+02  0.66019739046E+03  0.89513530653E+02 0.  0.
          2    1    3    3  502    0 -0.20432753212E+01 -0.10419732788E+02 -0.17122633847E+02  0.20147714393E+02  0.00000000000E+00 0. -1.
         -1    1    3    3    0  502 -0.54173180320E+03 -0.29898875041E+03 -0.34857623522E+03  0.71019223540E+03  0.00000000000E+00 0.  1.
         11    1    4    4    0    0 -0.83111171787E+02  0.25385107546E+03  0.43321872007E+03  0.50894625926E+03  0.00000000000E+00 0.  1.
        -11    1    4    4    0    0 -0.16894178505E+02 -0.98192999464E+01 -0.29713629913E+02  0.35563066817E+02  0.00000000000E+00 0. -1.
          4    1    5    5  503    0  0.25609519896E+03 -0.15405443217E+02  0.22823032489E+02  0.25757128999E+03  0.00000000000E+00 0. -1.
         -4    1    5    5    0  503  0.38768522985E+03  0.80782150898E+02  0.72678631236E+02  0.40262610047E+03  0.00000000000E+00 0.  1.
<mgrwt>
<rscale>  0 0.19304493E+04</rscale>
<asrwt>0</asrwt>
<pdfrwt beam="1">  1        2 0.15910420E+00 0.19304493E+04</pdfrwt>
<pdfrwt beam="2">  1       -1 0.13859529E+00 0.19304493E+04</pdfrwt>
<totfact> 0.10986805E+01</totfact>
</mgrwt>
</event>
<event>
12    6  0.1663299E-008  0.1916722E+04  0.7818608E-02  0.8646577E-01
         -1   -1    0    0    0  501 -0.00000000000E+00  0.00000000000E+00  0.67960508878E+03  0.67960508878E+03  0.00000000000E+00 0.  1.
          2   -1    0    0  501    0  0.00000000000E+00 -0.00000000000E+00 -0.13514558620E+04  0.13514558620E+04  0.00000000000E+00 0. -1.
         24    2    1    2    0    0 -0.18638342629E+03  0.24207215044E+03  0.45777328806E+03  0.55607486347E+03  0.79530892788E+02 0.  0.
        254    2    1    2    0    0  0.18638342629E+03 -0.24207215044E+03 -0.11296240613E+04  0.14749860873E+04  0.89788402945E+03 0.  0.
         23    2    4    4    0    0 -0.15956523222E+03  0.14343986553E+03 -0.14277972305E+02  0.24178642347E+03  0.11054752700E+03 0.  0.
         23    2    4    4    0    0  0.34594865851E+03 -0.38551201596E+03 -0.11153460890E+04  0.12331996639E+04  0.92111475555E+02 0.  0.
          2    1    3    3  502    0 -0.12880168062E+03  0.20945785168E+03  0.32313930056E+03  0.40605599630E+03  0.00000000000E+00 0. -1.
         -1    1    3    3    0  502 -0.57581745666E+02  0.32614298757E+02  0.13463398750E+03  0.15001886717E+03  0.00000000000E+00 0.  1.
         11    1    5    5    0    0 -0.27359791014E+02 -0.77938755145E+01 -0.28682287525E+02  0.40397726143E+02  0.00000000000E+00 0. -1.
        -11    1    5    5    0    0 -0.13220544121E+03  0.15123374104E+03  0.14404315220E+02  0.20138869733E+03  0.00000000000E+00 0.  1.
          4    1    6    6  503    0  0.50513719709E+02 -0.23779975005E+02 -0.16698210586E+03  0.17606858541E+03  0.00000000000E+00 0. -1.
         -4    1    6    6    0  503  0.29543493880E+03 -0.36173204096E+03 -0.94836398314E+03  0.10571310785E+04  0.00000000000E+00 0.  1.
<mgrwt>
<rscale>  0 0.19167225E+04</rscale>
<asrwt>0</asrwt>
<pdfrwt beam="1">  1        2 0.20791628E+00 0.19167225E+04</pdfrwt>
<pdfrwt beam="2">  1       -1 0.10455463E+00 0.19167225E+04</pdfrwt>
<totfact> 0.14146346E+01</totfact>
</mgrwt>
</event>
<event>
12    6  0.1663299E-008  0.2058693E+04  0.7818608E-02  0.8579661E-01
          2   -1    0    0  501    0  0.00000000000E+00  0.00000000000E+00  0.84875291605E+03  0.84875291605E+03  0.00000000000E+00 0. -1.
         -1   -1    0    0    0  501 -0.00000000000E+00 -0.00000000000E+00 -0.12483664892E+04  0.12483664892E+04  0.00000000000E+00 0.  1.
         24    2    1    2    0    0 -0.56130107200E+03 -0.42646942837E+03 -0.60709373819E+03  0.93404736315E+03  0.83346283060E+02 0.  0.
        254    2    1    2    0    0  0.56130107200E+03  0.42646942837E+03  0.20748016500E+03  0.11630720421E+04  0.90152841861E+03 0.  0.
         23    2    4    4    0    0 -0.23283406619E+03  0.97491259672E+02  0.10519363974E+03  0.29255072449E+03  0.10394217847E+03 0.  0.
         23    2    4    4    0    0  0.79413513819E+03  0.32897816870E+03  0.10228652526E+03  0.87052131764E+03  0.92019443806E+02 0.  0.
          2    1    3    3  502    0 -0.14454387320E+03 -0.15583237835E+03 -0.19594560483E+03  0.28908708285E+03  0.00000000000E+00 0. -1.
         -1    1    3    3    0  502 -0.41675719880E+03 -0.27063705002E+03 -0.41114813336E+03  0.64496028030E+03  0.00000000000E+00 0.  1.
         11    1    5    5    0    0 -0.23454949003E+03  0.93337065151E+02  0.76884861787E+02  0.26388738692E+03  0.00000000000E+00 0.  1.
        -11    1    5    5    0    0  0.17154238387E+01  0.41541945211E+01  0.28308777958E+02  0.28663337568E+02  0.00000000000E+00 0. -1.
          2    1    6    6  503    0  0.44481616459E+03  0.22971718052E+03  0.41832419955E+02  0.50237571067E+03  0.00000000000E+00 0. -1.
         -2    1    6    6    0  503  0.34931897359E+03  0.99260988174E+02  0.60454105306E+02  0.36814560697E+03  0.00000000000E+00 0.  1.
<mgrwt>
<rscale>  0 0.20586935E+04</rscale>
<asrwt>0</asrwt>
<pdfrwt beam="1">  1        2 0.13057737E+00 0.20586935E+04</pdfrwt>
<pdfrwt beam="2">  1       -1 0.19205638E+00 0.20586935E+04</pdfrwt>
<totfact> 0.57348625E+00</totfact>
</mgrwt>
</event>
<event>
11    6  0.1663299E-008  0.2561512E+04  0.7818608E-02  0.8381393E-01
         -1   -1    0    0    0  501 -0.00000000000E+00  0.00000000000E+00  0.83520590974E+03  0.83520590974E+03  0.00000000000E+00 0.  1.
          2   -1    0    0  501    0  0.00000000000E+00 -0.00000000000E+00 -0.19639899854E+04  0.19639899854E+04  0.00000000000E+00 0. -1.
         24    2    1    2    0    0 -0.64267769560E+02 -0.10323221147E+04 -0.21981310423E+02  0.10378144357E+04  0.82196899578E+02 0.  0.
        254    2    1    2    0    0  0.64267769560E+02  0.10323221147E+04 -0.11068027652E+04  0.17613814594E+04  0.89868403224E+03 0.  0.
         23    2    4    4    0    0  0.24415081596E+03  0.80083598395E+03 -0.11533304786E+04  0.14280170413E+04  0.90075431680E+02 0.  0.
          4    1    3    3  502    0 -0.56039192231E+02 -0.43676265992E+03  0.19330664612E+02  0.44076715708E+03  0.00000000000E+00 0. -1.
         -3    1    3    3    0  502 -0.82285773292E+01 -0.59555945476E+03 -0.41311975035E+02  0.59704727863E+03  0.00000000000E+00 0.  1.
         11    1    4    4    0    0 -0.14642993932E+03  0.10064674169E+03 -0.26798746455E+02  0.17969325684E+03  0.00000000000E+00 0. -1.
        -11    1    4    4    0    0 -0.33453107081E+02  0.13083938905E+03  0.73326459788E+02  0.15367116127E+03  0.00000000000E+00 0.  1.
          1    1    5    5  503    0  0.14485549988E+03  0.49208536642E+03 -0.77908149767E+03  0.93279102896E+03  0.00000000000E+00 0. -1.
         -1    1    5    5    0  503  0.99295316083E+02  0.30875061753E+03 -0.37424898089E+03  0.49522601236E+03  0.00000000000E+00 0.  1.
<mgrwt>
<rscale>  0 0.25615121E+04</rscale>
<asrwt>0</asrwt>
<pdfrwt beam="1">  1        2 0.30215230E+00 0.25615121E+04</pdfrwt>
<pdfrwt beam="2">  1       -1 0.12849322E+00 0.25615121E+04</pdfrwt>
<totfact> 0.36896799E+00</totfact>
</mgrwt>
</event>
<event>
12    6  0.1663299E-008  0.1581371E+04  0.7818608E-02  0.8832075E-01
          2   -1    0    0  501    0  0.00000000000E+00  0.00000000000E+00  0.36200541165E+04  0.36200541165E+04  0.00000000000E+00 0. -1.
         -1   -1    0    0    0  501 -0.00000000000E+00 -0.00000000000E+00 -0.17270013089E+03  0.17270013089E+03  0.00000000000E+00 0.  1.
         24    2    1    2    0    0 -0.27517986623E+03  0.82974362333E+02  0.10409900534E+03  0.31593333907E+03  0.79803309703E+02 0.  0.
        254    2    1    2    0    0  0.27517986623E+03 -0.82974362333E+02  0.33432549802E+04  0.34768209083E+04  0.91012145443E+03 0.  0.
         23    2    4    4    0    0 -0.12674872299E+03 -0.32195669580E+03  0.23124899668E+04  0.23413328495E+04  0.12045045753E+03 0.  0.
         23    2    4    4    0    0  0.40192858922E+03  0.23898233346E+03  0.10307650134E+04  0.11354880588E+04  0.90539893099E+02 0.  0.
          4    1    3    3  502    0 -0.10286053459E+03  0.31002100739E+02  0.80843068801E+02  0.13445081480E+03  0.00000000000E+00 0. -1.
         -1    1    3    3    0  502 -0.17231933164E+03  0.51972261594E+02  0.23255936542E+02  0.18148252427E+03  0.00000000000E+00 0.  1.
         11    1    5    5    0    0 -0.57289170007E+02 -0.27083827827E+03  0.16184127725E+04  0.16419181843E+04  0.00000000000E+00 0. -1.
        -11    1    5    5    0    0 -0.69459552982E+02 -0.51118417523E+02  0.69407719433E+03  0.69941466513E+03  0.00000000000E+00 0.  1.
          1    1    6    6  503    0  0.18187635233E+03  0.63874215480E+02  0.36530047766E+03  0.41304159829E+03  0.00000000000E+00 0. -1.
         -1    1    6    6    0  503  0.22005223689E+03  0.17510811798E+03  0.66546453579E+03  0.72244646053E+03  0.00000000000E+00 0.  1.
<mgrwt>
<rscale>  0 0.15813713E+04</rscale>
<asrwt>0</asrwt>
<pdfrwt beam="1">  1        2 0.55693135E+00 0.15813713E+04</pdfrwt>
<pdfrwt beam="2">  1       -1 0.26569254E-01 0.15813713E+04</pdfrwt>
<totfact> 0.93392793E+00</totfact>
</mgrwt>
</event>
<event>
11    6  0.1663299E-008  0.1320282E+04  0.7818608E-02  0.9013634E-01
          2   -1    0    0  501    0  0.00000000000E+00  0.00000000000E+00  0.70731305951E+03  0.70731305951E+03  0.00000000000E+00 0. -1.
         -1   -1    0    0    0  501 -0.00000000000E+00 -0.00000000000E+00 -0.61611522475E+03  0.61611522475E+03  0.00000000000E+00 0.  1.
         24    2    1    2    0    0  0.19023564934E+03 -0.25101877786E+03 -0.11732160776E+03  0.34391284977E+03  0.72881132514E+02 0.  0.
        254    2    1    2    0    0 -0.19023564934E+03  0.25101877786E+03  0.20851944252E+03  0.97951543448E+03  0.90375333989E+03 0.  0.
         23    2    4    4    0    0  0.20787407623E+03 -0.22275288521E+03  0.96290819881E+02  0.33225043884E+03  0.91038193506E+02 0.  0.
          2    1    3    3  502    0  0.15729825343E+02 -0.23125012205E+02 -0.35990707440E+02  0.45579870742E+02  0.00000000000E+00 0. -1.
         -1    1    3    3    0  502  0.17450582400E+03 -0.22789376565E+03 -0.81330900316E+02  0.29833297903E+03  0.00000000000E+00 0.  1.
         11    1    4    4    0    0 -0.21441490913E+03  0.26849660446E+03 -0.14793905317E+02  0.34392301391E+03  0.00000000000E+00 0. -1.
        -11    1    4    4    0    0 -0.18369481644E+03  0.20527505861E+03  0.12702252795E+03  0.30334198173E+03  0.00000000000E+00 0.  1.
          3    1    5    5  503    0  0.21095795574E+03 -0.20683184653E+03  0.10537034206E+03  0.31366475864E+03  0.00000000000E+00 0. -1.
         -3    1    5    5    0  503 -0.30838795084E+01 -0.15921038683E+02 -0.90795221738E+01  0.18585680199E+02  0.00000000000E+00 0.  1.
<mgrwt>
<rscale>  0 0.13202823E+04</rscale>
<asrwt>0</asrwt>
<pdfrwt beam="1">  1        2 0.10881739E+00 0.13202823E+04</pdfrwt>
<pdfrwt beam="2">  1       -1 0.94786958E-01 0.13202823E+04</pdfrwt>
<totfact> 0.48673369E+01</totfact>
</mgrwt>
</event>
<event>
12    6  0.1663299E-008  0.2569243E+04  0.7818608E-02  0.8378724E-01
          2   -1    0    0  501    0  0.00000000000E+00  0.00000000000E+00  0.19536007385E+04  0.19536007385E+04  0.00000000000E+00 0. -1.
         -1   -1    0    0    0  501 -0.00000000000E+00 -0.00000000000E+00 -0.84472375767E+03  0.84472375767E+03  0.00000000000E+00 0.  1.
         24    2    1    2    0    0 -0.90742096389E+03 -0.37861658159E+03  0.10450091473E+04  0.14371200382E+04  0.80663280516E+02 0.  0.
        254    2    1    2    0    0  0.90742096389E+03  0.37861658159E+03  0.63867833578E+02  0.13612044580E+04  0.93916726661E+03 0.  0.
         23    2    4    4    0    0  0.96132345279E+03  0.78933011391E+02  0.24255899030E+03  0.99640300395E+03  0.60090609466E+02 0.  0.
         23    2    4    4    0    0 -0.53902488899E+02  0.29968357020E+03 -0.17869115672E+03  0.36480145402E+03  0.91835999530E+02 0.  0.
          4    1    3    3  502    0 -0.31402862208E+03 -0.98765783326E+02  0.38410323815E+03  0.50586950195E+03  0.00000000000E+00 0. -1.
         -3    1    3    3    0  502 -0.59339234181E+03 -0.27985079826E+03  0.66090590911E+03  0.93125053627E+03  0.00000000000E+00 0.  1.
         11    1    5    5    0    0  0.74272773155E+03  0.40344270618E+02  0.17158337491E+03  0.76335640295E+03  0.00000000000E+00 0.  1.
        -11    1    5    5    0    0  0.21859572124E+03  0.38588740773E+02  0.70975615385E+02  0.23304660100E+03  0.00000000000E+00 0. -1.
          1    1    6    6  503    0 -0.12711698354E+01  0.19132774253E+03 -0.14393211555E+03  0.23942509230E+03  0.00000000000E+00 0. -1.
         -1    1    6    6    0  503 -0.52631319063E+02  0.10835582766E+03 -0.34759041165E+02  0.12537636172E+03  0.00000000000E+00 0.  1.
<mgrwt>
<rscale>  0 0.25692434E+04</rscale>
<asrwt>0</asrwt>
<pdfrwt beam="1">  1        2 0.30055396E+00 0.25692434E+04</pdfrwt>
<pdfrwt beam="2">  1       -1 0.12995750E+00 0.25692434E+04</pdfrwt>
<totfact> 0.36314018E+00</totfact>
</mgrwt>
</event>
<event>
12    6  0.1663299E-008  0.2238972E+04  0.7818608E-02  0.8502380E-01
          2   -1    0    0  501    0  0.00000000000E+00  0.00000000000E+00  0.21767448264E+04  0.21767448264E+04  0.00000000000E+00 0. -1.
         -1   -1    0    0    0  501 -0.00000000000E+00 -0.00000000000E+00 -0.57574460187E+03  0.57574460187E+03  0.00000000000E+00 0.  1.
         24    2    1    2    0    0  0.81672776625E+03  0.47282710402E+03  0.67684727874E+03  0.11634890732E+04  0.70532759740E+02 0.  0.
        254    2    1    2    0    0 -0.81672776625E+03 -0.47282710402E+03  0.92415294583E+03  0.15890003551E+04  0.88331973082E+03 0.  0.
         23    2    4    4    0    0 -0.34472523958E+03  0.62088780932E+02  0.77754798051E+03  0.85508851957E+03  0.62490053533E+02 0.  0.
         23    2    4    4    0    0 -0.47200252667E+03 -0.53491588495E+03  0.14660496532E+03  0.73391183556E+03  0.90621064661E+02 0.  0.
          4    1    3    3  502    0  0.10763742757E+03  0.79034900011E+02  0.12101316880E+03  0.18021242536E+03  0.00000000000E+00 0. -1.
         -3    1    3    3    0  502  0.70909033868E+03  0.39379220401E+03  0.55583410994E+03  0.98327664781E+03  0.00000000000E+00 0.  1.
         11    1    5    5    0    0 -0.28608985159E+03  0.56668890262E+02  0.69478364741E+03  0.75351382404E+03  0.00000000000E+00 0.  1.
        -11    1    5    5    0    0 -0.58635387996E+02  0.54198906700E+01  0.82764333096E+02  0.10157469554E+03  0.00000000000E+00 0. -1.
          4    1    6    6  503    0  0.26494396748E+01 -0.14387706463E+02  0.18386047653E+01  0.14744697194E+02  0.00000000000E+00 0. -1.
         -4    1    6    6    0  503 -0.47465196634E+03 -0.52052817849E+03  0.14476636056E+03  0.71916713836E+03  0.00000000000E+00 0.  1.
<mgrwt>
<rscale>  0 0.22389722E+04</rscale>
<asrwt>0</asrwt>
<pdfrwt beam="1">  1        2 0.33488382E+00 0.22389722E+04</pdfrwt>
<pdfrwt beam="2">  1       -1 0.88576094E-01 0.22389722E+04</pdfrwt>
<totfact> 0.69032998E+00</totfact>
</mgrwt>
</event>
<event>
12    6  0.1663299E-008  0.1689069E+04  0.7818608E-02  0.8767623E-01
         -1   -1    0    0    0  501 -0.00000000000E+00  0.00000000000E+00  0.46838708969E+03  0.46838708969E+03  0.00000000000E+00 0.  1.
          2   -1    0    0  501    0  0.00000000000E+00 -0.00000000000E+00 -0.15227545147E+04  0.15227545147E+04  0.00000000000E+00 0. -1.
         24    2    1    2    0    0 -0.32812061082E+03 -0.48872178534E+03 -0.48181548422E+03  0.76474654326E+03  0.78606589304E+02 0.  0.
        254    2    1    2    0    0  0.32812061082E+03  0.48872178534E+03 -0.57255194082E+03  0.12263950612E+04  0.91088802958E+03 0.  0.
         23    2    4    4    0    0  0.82763851260E+02  0.40600641394E+03  0.14762117373E+03  0.45537840085E+03  0.11784062879E+03 0.  0.
         23    2    4    4    0    0  0.24535675956E+03  0.82715371398E+02 -0.72017311455E+03  0.77101666032E+03  0.93678190835E+02 0.  0.
          4    1    3    3  502    0 -0.55877158225E+01 -0.17194731754E+02 -0.35320532579E+02  0.39678979194E+02  0.00000000000E+00 0. -1.
         -3    1    3    3    0  502 -0.32253289499E+03 -0.47152705358E+03 -0.44649495165E+03  0.72506756406E+03  0.00000000000E+00 0.  1.
         11    1    5    5    0    0 -0.21101653615E+02  0.14480246493E+02  0.62036358111E+01  0.26333294915E+02  0.00000000000E+00 0.  1.
        -11    1    5    5    0    0  0.10386550488E+03  0.39152616745E+03  0.14141753792E+03  0.42904510594E+03  0.00000000000E+00 0. -1.
          4    1    6    6  503    0  0.18546607374E+03  0.28198216445E+02 -0.57438100428E+03  0.60424030153E+03  0.00000000000E+00 0. -1.
         -4    1    6    6    0  503  0.59890685818E+02  0.54517154953E+02 -0.14579211027E+03  0.16677635878E+03  0.00000000000E+00 0.  1.
<mgrwt>
<rscale>  0 0.16890690E+04</rscale>
<asrwt>0</asrwt>
<pdfrwt beam="1">  1        2 0.23426992E+00 0.16890690E+04</pdfrwt>
<pdfrwt beam="2">  1       -1 0.72059554E-01 0.16890690E+04</pdfrwt>
<totfact> 0.25988435E+01</totfact>
</mgrwt>
</event>
<event>
11    6  0.1663299E-008  0.1398304E+04  0.7818608E-02  0.8955047E-01
         -3   -1    0    0    0  501 -0.00000000000E+00  0.00000000000E+00  0.13696024648E+04  0.13696024648E+04  0.00000000000E+00 0.  1.
          4   -1    0    0  501    0  0.00000000000E+00 -0.00000000000E+00 -0.35690186063E+03  0.35690186063E+03  0.00000000000E+00 0. -1.
         24    2    1    2    0    0 -0.33765000003E+03  0.23166329568E+03  0.38247854615E+03  0.56595102017E+03  0.79594685007E+02 0.  0.
        254    2    1    2    0    0  0.33765000003E+03 -0.23166329568E+03  0.63022205805E+03  0.11605533053E+04  0.88432388122E+03 0.  0.
         23    2    4    4    0    0 -0.22295282074E+03 -0.29956510938E+03  0.33286406320E+03  0.50783435699E+03  0.87464475880E+02 0.  0.
          4    1    3    3  502    0 -0.12661636974E+03  0.98060238706E+02  0.99641166352E+02  0.18861568740E+03  0.00000000000E+00 0. -1.
         -3    1    3    3    0  502 -0.21103363029E+03  0.13360305697E+03  0.28283737980E+03  0.37733533278E+03  0.00000000000E+00 0.  1.
         11    1    4    4    0    0  0.13385181070E+03  0.14080329553E+02  0.14132776638E+03  0.19516172898E+03  0.00000000000E+00 0. -1.
        -11    1    4    4    0    0  0.42675101008E+03  0.53821484148E+02  0.15603022847E+03  0.45755721932E+03  0.00000000000E+00 0.  1.
          2    1    5    5  503    0 -0.14751251747E+03 -0.24217208586E+03  0.28344835133E+03  0.40093669058E+03  0.00000000000E+00 0.  1.
         -2    1    5    5    0  503 -0.75440303265E+02 -0.57393023521E+02  0.49415711871E+02  0.10689766642E+03  0.00000000000E+00 0. -1.
<mgrwt>
<rscale>  0 0.13983042E+04</rscale>
<asrwt>0</asrwt>
<pdfrwt beam="1">  1        4 0.54907979E-01 0.13983042E+04</pdfrwt>
<pdfrwt beam="2">  1       -3 0.21070807E+00 0.13983042E+04</pdfrwt>
<totfact> 0.88730407E-01</totfact>
</mgrwt>
</event>
<event>
12    6  0.1663299E-008  0.1539109E+04  0.7818608E-02  0.8858855E-01
         -1   -1    0    0    0  501 -0.00000000000E+00  0.00000000000E+00  0.29303977027E+03  0.29303977027E+03  0.00000000000E+00 0.  1.
          2   -1    0    0  501    0  0.00000000000E+00 -0.00000000000E+00 -0.20209333204E+04  0.20209333204E+04  0.00000000000E+00 0. -1.
         24    2    1    2    0    0  0.28960124705E+03 -0.37407121332E+03 -0.80400972695E+03  0.93625923529E+03  0.79696673135E+02 0.  0.
        254    2    1    2    0    0 -0.28960124705E+03  0.37407121332E+03 -0.92388382317E+03  0.13777138554E+04  0.90594480715E+03 0.  0.
         23    2    4    4    0    0 -0.18651583268E+03  0.46825598448E+03 -0.90186610856E+02  0.52744569514E+03  0.12654451272E+03 0.  0.
         23    2    4    4    0    0 -0.10308541436E+03 -0.94184771161E+02 -0.83369721232E+03  0.85026816022E+03  0.91692577064E+02 0.  0.
          4    1    3    3  502    0  0.27259673251E+03 -0.31165626401E+03 -0.71483091410E+03  0.82608827690E+03  0.00000000000E+00 0. -1.
         -3    1    3    3    0  502  0.17004514534E+02 -0.62414949309E+02 -0.89178812853E+02  0.11017095839E+03  0.00000000000E+00 0.  1.
         11    1    5    5    0    0 -0.89628877940E+02  0.15108736891E+03 -0.86441227988E+02  0.19578767760E+03  0.00000000000E+00 0. -1.
        -11    1    5    5    0    0 -0.96886954744E+02  0.31716861558E+03 -0.37453828677E+01  0.33165801754E+03  0.00000000000E+00 0.  1.
          3    1    6    6  503    0 -0.81910431714E+01 -0.53069674982E+01 -0.32733721029E+03  0.32748268097E+03  0.00000000000E+00 0. -1.
         -3    1    6    6    0  503 -0.94894371192E+02 -0.88877803663E+02 -0.50636000202E+03  0.52278547925E+03  0.00000000000E+00 0.  1.
<mgrwt>
<rscale>  0 0.15391086E+04</rscale>
<asrwt>0</asrwt>
<pdfrwt beam="1">  1        2 0.31091282E+00 0.15391086E+04</pdfrwt>
<pdfrwt beam="2">  1       -1 0.45083041E-01 0.15391086E+04</pdfrwt>
<totfact> 0.34846502E+01</totfact>
</mgrwt>
</event>
<event>
11    6  0.1663299E-008  0.1427996E+04  0.7818608E-02  0.8933799E-01
          2   -1    0    0  501    0  0.00000000000E+00  0.00000000000E+00  0.33664828874E+04  0.33664828874E+04  0.00000000000E+00 0. -1.
         -1   -1    0    0    0  501 -0.00000000000E+00 -0.00000000000E+00 -0.15143193816E+03  0.15143193816E+03  0.00000000000E+00 0.  1.
         24    2    1    2    0    0  0.58629837785E+02  0.39901924610E+03  0.12983111680E+04  0.13618003716E+04  0.78959144767E+02 0.  0.
        254    2    1    2    0    0 -0.58629837785E+02 -0.39901924610E+03  0.19167397813E+04  0.21561144540E+04  0.90126818033E+03 0.  0.
         23    2    4    4    0    0 -0.46428029541E+03 -0.23174894136E+03  0.82839458101E+03  0.98194932646E+03  0.93397716006E+02 0.  0.
          4    1    3    3  502    0  0.59296954552E+02  0.34380335330E+03  0.11919536283E+04  0.12419622888E+04  0.00000000000E+00 0. -1.
         -1    1    3    3    0  502 -0.66711676695E+00  0.55215892795E+02  0.10635753962E+03  0.11983808283E+03  0.00000000000E+00 0.  1.
         11    1    4    4    0    0  0.77624399575E+02 -0.26333600300E+02  0.16606374898E+03  0.18519226398E+03  0.00000000000E+00 0.  1.
        -11    1    4    4    0    0  0.32802605805E+03 -0.14093670444E+03  0.92228145129E+03  0.98897286354E+03  0.00000000000E+00 0. -1.
          4    1    5    5  503    0 -0.33513078500E+03 -0.17570127906E+03  0.67435781180E+03  0.77326712128E+03  0.00000000000E+00 0.  1.
         -4    1    5    5    0  503 -0.12914951042E+03 -0.56047662299E+02  0.15403676921E+03  0.20868220518E+03  0.00000000000E+00 0. -1.
<mgrwt>
<rscale>  0 0.14279958E+04</rscale>
<asrwt>0</asrwt>
<pdfrwt beam="1">  1        2 0.51792039E+00 0.14279958E+04</pdfrwt>
<pdfrwt beam="2">  1       -1 0.23297224E-01 0.14279958E+04</pdfrwt>
<totfact> 0.17814099E+01</totfact>
</mgrwt>
</event>
<event>
12    6  0.1663299E-008  0.1240427E+04  0.7818608E-02  0.9078189E-01
         -1   -1    0    0    0  501 -0.00000000000E+00  0.00000000000E+00  0.44925164323E+03  0.44925164323E+03  0.00000000000E+00 0.  1.
          2   -1    0    0  501    0  0.00000000000E+00 -0.00000000000E+00 -0.85623443539E+03  0.85623443539E+03  0.00000000000E+00 0. -1.
         24    2    1    2    0    0 -0.45507076742E+02  0.18311452604E+03 -0.32396680948E+03  0.38360591841E+03  0.81223046684E+02 0.  0.
        254    2    1    2    0    0  0.45507076742E+02 -0.18311452604E+03 -0.83015982681E+02  0.92188016022E+03  0.89853745206E+03 0.  0.
         23    2    4    4    0    0 -0.17320258255E+03 -0.43374248929E+03  0.16232796851E+03  0.49839905494E+03  0.62606445219E+02 0.  0.
         23    2    4    4    0    0  0.21870965930E+03  0.25062796325E+03 -0.24534395119E+03  0.42348110528E+03  0.92164532825E+02 0.  0.
          4    1    3    3  502    0 -0.15515231851E+02  0.91840520882E+02 -0.23451668975E+03  0.25233604868E+03  0.00000000000E+00 0. -1.
         -3    1    3    3    0  502 -0.29991844891E+02  0.91274005155E+02 -0.89450119734E+02  0.13126986972E+03  0.00000000000E+00 0.  1.
         11    1    5    5    0    0 -0.21380116542E+02 -0.12374295938E+03  0.33573646011E+02  0.12998699584E+03  0.00000000000E+00 0.  1.
        -11    1    5    5    0    0 -0.15182246601E+03 -0.30999952991E+03  0.12875432250E+03  0.36841205910E+03  0.00000000000E+00 0. -1.
          1    1    6    6  503    0  0.45255818479E+02  0.11478726146E+02 -0.15573377431E+02  0.49217683253E+02  0.00000000000E+00 0. -1.
         -1    1    6    6    0  503  0.17345384082E+03  0.23914923711E+03 -0.22977057376E+03  0.37426342203E+03  0.00000000000E+00 0.  1.
<mgrwt>
<rscale>  0 0.12404269E+04</rscale>
<asrwt>0</asrwt>
<pdfrwt beam="1">  1        2 0.13172837E+00 0.12404269E+04</pdfrwt>
<pdfrwt beam="2">  1       -1 0.69115638E-01 0.12404269E+04</pdfrwt>
<totfact> 0.74769814E+01</totfact>
</mgrwt>
</event>
<event>
11    6  0.1663299E-008  0.2827133E+04  0.7818608E-02  0.8294894E-01
          2   -1    0    0  501    0  0.00000000000E+00  0.00000000000E+00  0.22433079418E+04  0.22433079418E+04  0.00000000000E+00 0. -1.
         -1   -1    0    0    0  501 -0.00000000000E+00 -0.00000000000E+00 -0.89072471022E+03  0.89072471022E+03  0.00000000000E+00 0.  1.
         24    2    1    2    0    0 -0.42083319271E+03 -0.78559170466E+03  0.16281956522E+04  0.18576528801E+04  0.74821376262E+02 0.  0.
        254    2    1    2    0    0  0.42083319271E+03  0.78559170466E+03 -0.27561242069E+03  0.12763797719E+04  0.87116485994E+03 0.  0.
         23    2    4    4    0    0  0.17651297971E+03  0.78167423178E+03 -0.43574344832E+03  0.91657632484E+03  0.89824105096E+02 0.  0.
          2    1    3    3  502    0 -0.20082940809E+03 -0.44101017062E+03  0.92529652584E+03  0.10445075789E+04  0.00000000000E+00 0. -1.
         -1    1    3    3    0  502 -0.22000378462E+03 -0.34458153404E+03  0.70289912641E+03  0.81314530113E+03  0.00000000000E+00 0.  1.
         11    1    4    4    0    0  0.10605822124E+03 -0.86852722899E+02  0.13520353114E+03  0.19254022073E+03  0.00000000000E+00 0. -1.
        -11    1    4    4    0    0  0.13826199176E+03  0.90770195776E+02  0.24927496496E+02  0.16726322635E+03  0.00000000000E+00 0.  1.
          2    1    5    5  503    0  0.18051533421E+03  0.78112374072E+03 -0.43586582171E+03  0.91253443701E+03  0.00000000000E+00 0. -1.
         -2    1    5    5    0  503 -0.40023544981E+01  0.55049105978E+00  0.12237338139E+00  0.40418878238E+01  0.00000000000E+00 0.  1.
<mgrwt>
<rscale>  0 0.28271327E+04</rscale>
<asrwt>0</asrwt>
<pdfrwt beam="1">  1        2 0.34512430E+00 0.28271327E+04</pdfrwt>
<pdfrwt beam="2">  1       -1 0.13703457E+00 0.28271327E+04</pdfrwt>
<totfact> 0.21358791E+00</totfact>
</mgrwt>
</event>
<event>
11    6  0.1663299E-008  0.1328069E+04  0.7818608E-02  0.9007597E-01
          2   -1    0    0  501    0  0.00000000000E+00  0.00000000000E+00  0.22905894110E+04  0.22905894110E+04  0.00000000000E+00 0. -1.
         -1   -1    0    0    0  501 -0.00000000000E+00 -0.00000000000E+00 -0.19250155229E+03  0.19250155229E+03  0.00000000000E+00 0.  1.
         24    2    1    2    0    0  0.12248257131E+03  0.20909601405E+03  0.89892725953E+02  0.27169265165E+03  0.83744082874E+02 0.  0.
        254    2    1    2    0    0 -0.12248257131E+03 -0.20909601405E+03  0.20081951328E+04  0.22113983117E+04  0.89370670699E+03 0.  0.
         23    2    4    4    0    0  0.59465272703E+01 -0.14013192762E+03 -0.28295917184E+02  0.16904703405E+03  0.90021788837E+02 0.  0.
          2    1    3    3  502    0  0.37910345519E+02  0.59797067666E+02 -0.12469068982E+02  0.71891315749E+02  0.00000000000E+00 0. -1.
         -1    1    3    3    0  502  0.84572225789E+02  0.14929894638E+03  0.10236179493E+03  0.19980133590E+03  0.00000000000E+00 0.  1.
         11    1    4    4    0    0  0.33364544409E+01  0.83607947934E+00  0.16001323738E+02  0.16366835934E+02  0.00000000000E+00 0. -1.
        -11    1    4    4    0    0 -0.13176555302E+03 -0.69800165909E+02  0.20204897263E+04  0.20259844417E+04  0.00000000000E+00 0.  1.
          2    1    5    5  503    0 -0.24363148369E+02 -0.55332614181E+02  0.23841449900E+02  0.64989814001E+02  0.00000000000E+00 0. -1.
         -2    1    5    5    0  503  0.30309675640E+02 -0.84799313440E+02 -0.52137367084E+02  0.10405722005E+03  0.00000000000E+00 0.  1.
<mgrwt>
<rscale>  0 0.13280693E+04</rscale>
<asrwt>0</asrwt>
<pdfrwt beam="1">  1        2 0.35239835E+00 0.13280693E+04</pdfrwt>
<pdfrwt beam="2">  1       -1 0.29615625E-01 0.13280693E+04</pdfrwt>
<totfact> 0.53517779E+01</totfact>
</mgrwt>
</event>
<event>
12    6  0.1663299E-008  0.1408761E+04  0.7818608E-02  0.8947501E-01
         -1   -1    0    0    0  501 -0.00000000000E+00  0.00000000000E+00  0.32069591200E+03  0.32069591200E+03  0.00000000000E+00 0.  1.
          2   -1    0    0  501    0  0.00000000000E+00 -0.00000000000E+00 -0.15471097125E+04  0.15471097125E+04  0.00000000000E+00 0. -1.
         24    2    1    2    0    0  0.84942592577E+02  0.41678484083E+03 -0.53204662776E+03  0.68585763961E+03  0.80013999547E+02 0.  0.
        254    2    1    2    0    0 -0.84942592577E+02 -0.41678484083E+03 -0.69436717274E+03  0.11819479849E+04  0.85669739164E+03 0.  0.
         23    2    4    4    0    0 -0.36809318345E+02 -0.64804602459E+03 -0.65631104778E+03  0.92585544268E+03  0.71732373455E+02 0.  0.
         23    2    4    4    0    0 -0.48133274232E+02  0.23126118376E+03 -0.38056124958E+02  0.25609254221E+03  0.91304842839E+02 0.  0.
          4    1    3    3  502    0 -0.37531834837E+01  0.10821706139E+03 -0.98558020066E+02  0.14641960962E+03  0.00000000000E+00 0. -1.
         -3    1    3    3    0  502  0.88695776060E+02  0.30856777944E+03 -0.43348860770E+03  0.53943802999E+03  0.00000000000E+00 0.  1.
         11    1    5    5    0    0 -0.34016766656E+02 -0.64914846312E+03 -0.65319596497E+03  0.92152907509E+03  0.00000000000E+00 0.  1.
        -11    1    5    5    0    0 -0.27925516888E+01  0.11024385265E+01 -0.31150828126E+01  0.43263675952E+01  0.00000000000E+00 0. -1.
          4    1    6    6  503    0 -0.61236119281E+01  0.10524159837E+02  0.20541057773E+02  0.23878685428E+02  0.00000000000E+00 0. -1.
         -4    1    6    6    0  503 -0.42009662304E+02  0.22073702392E+03 -0.58597182731E+02  0.23221385678E+03  0.00000000000E+00 0.  1.
<mgrwt>
<rscale>  0 0.14087608E+04</rscale>
<asrwt>0</asrwt>
<pdfrwt beam="1">  1        2 0.23801688E+00 0.14087608E+04</pdfrwt>
<pdfrwt beam="2">  1       -1 0.49337833E-01 0.14087608E+04</pdfrwt>
<totfact> 0.54478993E+01</totfact>
</mgrwt>
</event>
<event>
12    6  0.1663299E-008  0.1575574E+04  0.7818608E-02  0.8835696E-01
         -1   -1    0    0    0  501 -0.00000000000E+00  0.00000000000E+00  0.39682280128E+03  0.39682280128E+03  0.00000000000E+00 0.  1.
          2   -1    0    0  501    0  0.00000000000E+00 -0.00000000000E+00 -0.15639442154E+04  0.15639442154E+04  0.00000000000E+00 0. -1.
         24    2    1    2    0    0  0.69247228640E+02  0.35912223949E+03  0.78747942260E+02  0.38183144068E+03  0.76354758271E+02 0.  0.
        254    2    1    2    0    0 -0.69247228640E+02 -0.35912223949E+03 -0.12458693564E+04  0.15789355760E+04  0.89837805986E+03 0.  0.
         23    2    4    4    0    0 -0.63861216262E+02  0.92972383722E+02  0.91238279739E+02  0.16440734128E+03  0.77351348393E+02 0.  0.
         23    2    4    4    0    0 -0.53860123780E+01 -0.45209462322E+03 -0.13371076362E+04  0.14145282348E+04  0.92815617166E+02 0.  0.
          2    1    3    3  502    0 -0.22038463524E+00  0.19979087876E+03  0.40395651893E+02  0.20383388457E+03  0.00000000000E+00 0. -1.
         -3    1    3    3    0  502  0.69467613275E+02  0.15933136073E+03  0.38352290367E+02  0.17799755611E+03  0.00000000000E+00 0.  1.
         11    1    5    5    0    0 -0.54495555085E+02  0.91758531430E+02  0.42679665053E+02  0.11493888560E+03  0.00000000000E+00 0.  1.
        -11    1    5    5    0    0 -0.93656611773E+01  0.12138522927E+01  0.48558614686E+02  0.49468455675E+02  0.00000000000E+00 0. -1.
          2    1    6    6  503    0  0.34042214236E+02 -0.28061950487E+03 -0.74477130118E+03  0.79661186906E+03  0.00000000000E+00 0.  1.
         -2    1    6    6    0  503 -0.39428226614E+02 -0.17147511834E+03 -0.59233633498E+03  0.61791636570E+03  0.00000000000E+00 0. -1.
<mgrwt>
<rscale>  0 0.15755745E+04</rscale>
<asrwt>0</asrwt>
<pdfrwt beam="1">  1        2 0.24060680E+00 0.15755745E+04</pdfrwt>
<pdfrwt beam="2">  1       -1 0.61049661E-01 0.15755745E+04</pdfrwt>
<totfact> 0.34799307E+01</totfact>
</mgrwt>
</event>
<event>
11    6  0.1663299E-008  0.3531393E+04  0.7818608E-02  0.8106390E-01
          2   -1    0    0  501    0  0.00000000000E+00  0.00000000000E+00  0.16057807073E+04  0.16057807073E+04  0.00000000000E+00 0. -1.
         -1   -1    0    0    0  501 -0.00000000000E+00 -0.00000000000E+00 -0.19415379871E+04  0.19415379871E+04  0.00000000000E+00 0.  1.
         24    2    1    2    0    0  0.35511214937E+03 -0.49601825274E+02 -0.17758383491E+04  0.18134005558E+04  0.79087001996E+02 0.  0.
        254    2    1    2    0    0 -0.35511214937E+03  0.49601825274E+02  0.14400810693E+04  0.17339181387E+04  0.89670153660E+03 0.  0.
         23    2    4    4    0    0 -0.29074291262E+03 -0.11108849752E+03  0.14674881116E+04  0.15025605202E+04  0.85408802671E+02 0.  0.
          4    1    3    3  502    0  0.10330370570E+01 -0.30460338333E+01 -0.16289363396E+01  0.36054016799E+01  0.00000000000E+00 0. -1.
         -3    1    3    3    0  502  0.35407911231E+03 -0.46555791440E+02 -0.17742094128E+04  0.18097951541E+04  0.00000000000E+00 0.  1.
         11    1    4    4    0    0  0.99456752184E+01  0.13885842072E+03  0.19852930636E+02  0.14062260243E+03  0.00000000000E+00 0. -1.
        -11    1    4    4    0    0 -0.74314911964E+02  0.21831902076E+02 -0.47259972966E+02  0.90735016026E+02  0.00000000000E+00 0.  1.
          1    1    5    5  503    0 -0.16131169748E+03 -0.73925518116E+02  0.63814268672E+03  0.66235378355E+03  0.00000000000E+00 0. -1.
         -1    1    5    5    0  503 -0.12943121514E+03 -0.37162979408E+02  0.82934542492E+03  0.84020673666E+03  0.00000000000E+00 0.  1.
<mgrwt>
<rscale>  0 0.35313931E+04</rscale>
<asrwt>0</asrwt>
<pdfrwt beam="1">  1        2 0.24704319E+00 0.35313931E+04</pdfrwt>
<pdfrwt beam="2">  1       -1 0.29869815E+00 0.35313931E+04</pdfrwt>
<totfact> 0.34771644E-01</totfact>
</mgrwt>
</event>
<event>
12    6  0.1663299E-008  0.2178241E+04  0.7818608E-02  0.8527540E-01
          2   -1    0    0  501    0  0.00000000000E+00  0.00000000000E+00  0.35788458759E+04  0.35788458759E+04  0.00000000000E+00 0. -1.
         -1   -1    0    0    0  501 -0.00000000000E+00 -0.00000000000E+00 -0.33144303027E+03  0.33144303027E+03  0.00000000000E+00 0.  1.
         24    2    1    2    0    0 -0.99614776227E+02 -0.63317493645E+03  0.24866886466E+04  0.25692333325E+04  0.80659083966E+02 0.  0.
        254    2    1    2    0    0  0.99614776227E+02  0.63317493645E+03  0.76071419905E+03  0.13410555737E+04  0.89939443814E+03 0.  0.
         23    2    4    4    0    0  0.39785458260E+03  0.65649729819E+03  0.43108956496E+03  0.88686046330E+03  0.10680026648E+03 0.  0.
         23    2    4    4    0    0 -0.29823980637E+03 -0.23322361736E+02  0.32962463408E+03  0.45419511041E+03  0.90276709414E+02 0.  0.
          2    1    3    3  502    0 -0.57926262739E+02 -0.46537683556E+03  0.16802815269E+04  0.17444990858E+04  0.00000000000E+00 0. -1.
         -1    1    3    3    0  502 -0.41688513487E+02 -0.16779810089E+03  0.80640711976E+03  0.82473424666E+03  0.00000000000E+00 0.  1.
         11    1    5    5    0    0  0.10391054067E+03  0.93765924345E+02  0.85644347432E+02  0.16408657251E+03  0.00000000000E+00 0.  1.
        -11    1    5    5    0    0  0.29394404193E+03  0.56273137384E+03  0.34544521753E+03  0.72277389079E+03  0.00000000000E+00 0. -1.
          4    1    6    6  503    0 -0.24387894686E+03  0.15793603956E+02  0.24228430045E+03  0.34413378342E+03  0.00000000000E+00 0. -1.
         -4    1    6    6    0  503 -0.54360859510E+02 -0.39115965692E+02  0.87340333632E+02  0.11006132698E+03  0.00000000000E+00 0.  1.
<mgrwt>
<rscale>  0 0.21782411E+04</rscale>
<asrwt>0</asrwt>
<pdfrwt beam="1">  1        2 0.55059165E+00 0.21782411E+04</pdfrwt>
<pdfrwt beam="2">  1       -1 0.50991238E-01 0.21782411E+04</pdfrwt>
<totfact> 0.28921826E+00</totfact>
</mgrwt>
</event>
<event>
12    6  0.1663299E-008  0.1793579E+04  0.7818608E-02  0.8709722E-01
         -1   -1    0    0    0  501 -0.00000000000E+00  0.00000000000E+00  0.61979871666E+03  0.61979871666E+03  0.00000000000E+00 0.  1.
          2   -1    0    0  501    0  0.00000000000E+00 -0.00000000000E+00 -0.12975683258E+04  0.12975683258E+04  0.00000000000E+00 0. -1.
         24    2    1    2    0    0 -0.50606055986E+03 -0.38071513800E+03 -0.45244139652E+02  0.64001238445E+03  0.80793028937E+02 0.  0.
        254    2    1    2    0    0  0.50606055986E+03  0.38071513800E+03 -0.63252546950E+03  0.12773546580E+04  0.91132055077E+03 0.  0.
         23    2    4    4    0    0  0.48113351740E+03 -0.41248160536E+02  0.18774316433E+02  0.49541106395E+03  0.10903565933E+03 0.  0.
         23    2    4    4    0    0  0.24927042460E+02  0.42196329853E+03 -0.65129978594E+03  0.78194359408E+03  0.92574242657E+02 0.  0.
          2    1    3    3  502    0 -0.14845549515E+02 -0.29240685070E+02 -0.12572028039E+02  0.35120704617E+02  0.00000000000E+00 0. -1.
         -1    1    3    3    0  502 -0.49121501035E+03 -0.35147445293E+03 -0.32672111613E+02  0.60489167983E+03  0.00000000000E+00 0.  1.
         11    1    5    5    0    0  0.27391169020E+03  0.31386885366E+01  0.57707329535E+02  0.27994213916E+03  0.00000000000E+00 0.  1.
        -11    1    5    5    0    0  0.20722182720E+03 -0.44386849073E+02 -0.38933013102E+02  0.21546892478E+03  0.00000000000E+00 0. -1.
          4    1    6    6  503    0  0.25093482216E+02  0.65858365621E+02 -0.64460669546E+02  0.95510130826E+02  0.00000000000E+00 0. -1.
         -4    1    6    6    0  503 -0.16643975604E+00  0.35610493291E+03 -0.58683911639E+03  0.68643346325E+03  0.00000000000E+00 0.  1.
<mgrwt>
<rscale>  0 0.17935788E+04</rscale>
<asrwt>0</asrwt>
<pdfrwt beam="1">  1        2 0.19962589E+00 0.17935788E+04</pdfrwt>
<pdfrwt beam="2">  1       -1 0.95353649E-01 0.17935788E+04</pdfrwt>
<totfact> 0.18964657E+01</totfact>
</mgrwt>
</event>
<event>
12    6  0.1663299E-008  0.2878495E+04  0.7818608E-02  0.8279305E-01
         -1   -1    0    0    0  501 -0.00000000000E+00  0.00000000000E+00  0.11940796524E+04  0.11940796524E+04  0.00000000000E+00 0.  1.
          2   -1    0    0  501    0  0.00000000000E+00 -0.00000000000E+00 -0.17347536124E+04  0.17347536124E+04  0.00000000000E+00 0. -1.
         24    2    1    2    0    0  0.67705100925E+03  0.14090006921E+03  0.87493276761E+03  0.11180084628E+04  0.78642713667E+02 0.  0.
        254    2    1    2    0    0 -0.67705100925E+03 -0.14090006921E+03 -0.14156067276E+04  0.18108248020E+04  0.89268872386E+03 0.  0.
         23    2    4    4    0    0 -0.79591162748E+03 -0.28155906458E+03 -0.82540173040E+03  0.11854312676E+04  0.10586995875E+03 0.  0.
         23    2    4    4    0    0  0.11886061822E+03  0.14065899537E+03 -0.59020499720E+03  0.62539353436E+03  0.94139973221E+02 0.  0.
          2    1    3    3  502    0  0.22919187617E+03  0.10629131664E+02  0.27745349176E+03  0.36003101899E+03  0.00000000000E+00 0. -1.
         -1    1    3    3    0  502  0.44785913308E+03  0.13027093754E+03  0.59747927586E+03  0.75797744381E+03  0.00000000000E+00 0.  1.
         11    1    5    5    0    0 -0.16391120770E+03 -0.68140677182E+02 -0.11818769259E+03  0.21325657452E+03  0.00000000000E+00 0. -1.
        -11    1    5    5    0    0 -0.63200041978E+03 -0.21341838739E+03 -0.70721403781E+03  0.97217469313E+03  0.00000000000E+00 0.  1.
          2    1    6    6  503    0  0.92792143432E+02  0.42033185711E+02 -0.24235985367E+03  0.26289821082E+03  0.00000000000E+00 0. -1.
         -2    1    6    6    0  503  0.26068474793E+02  0.98625809656E+02 -0.34784514353E+03  0.36249532354E+03  0.00000000000E+00 0.  1.
<mgrwt>
<rscale>  0 0.28784954E+04</rscale>
<asrwt>0</asrwt>
<pdfrwt beam="1">  1        2 0.26688517E+00 0.28784954E+04</pdfrwt>
<pdfrwt beam="2">  1       -1 0.18370456E+00 0.28784954E+04</pdfrwt>
<totfact> 0.18072236E+00</totfact>
</mgrwt>
</event>
<event>
12    6  0.1663299E-008  0.1703500E+04  0.7818608E-02  0.8759371E-01
         -1   -1    0    0    0  501 -0.00000000000E+00  0.00000000000E+00  0.14482438136E+04  0.14482438136E+04  0.00000000000E+00 0.  1.
          2   -1    0    0  501    0  0.00000000000E+00 -0.00000000000E+00 -0.50093639187E+03  0.50093639187E+03  0.00000000000E+00 0. -1.
         24    2    1    2    0    0 -0.18122913336E+03 -0.53646508881E+03  0.69578314378E+02  0.57594682983E+03  0.78960867978E+02 0.  0.
        254    2    1    2    0    0  0.18122913336E+03  0.53646508881E+03  0.87772910732E+03  0.13732333756E+04  0.89147222491E+03 0.  0.
         23    2    4    4    0    0 -0.74888707810E+02  0.71801459555E+03  0.55901882416E+03  0.91632991433E+03  0.77493149065E+02 0.  0.
         23    2    4    4    0    0  0.25611784117E+03 -0.18154950674E+03  0.31871028316E+03  0.45690346128E+03  0.92886793339E+02 0.  0.
          4    1    3    3  502    0 -0.71065766692E+02 -0.25061744775E+03 -0.54354380872E+01  0.26055516172E+03  0.00000000000E+00 0. -1.
         -3    1    3    3    0  502 -0.11016336667E+03 -0.28584764106E+03  0.75013752466E+02  0.31539166811E+03  0.00000000000E+00 0.  1.
         11    1    5    5    0    0  0.10049249979E+02  0.32351352142E+02  0.38575235410E+02  0.51338544950E+02  0.00000000000E+00 0. -1.
        -11    1    5    5    0    0 -0.84937957788E+02  0.68566324341E+03  0.52044358875E+03  0.86499136938E+03  0.00000000000E+00 0.  1.
          1    1    6    6  503    0  0.70543987798E+02 -0.41648879004E+01  0.70108537848E+02  0.99543998236E+02  0.00000000000E+00 0. -1.
         -1    1    6    6    0  503  0.18557385337E+03 -0.17738461884E+03  0.24860174531E+03  0.35735946305E+03  0.00000000000E+00 0.  1.
<mgrwt>
<rscale>  0 0.17035000E+04</rscale>
<asrwt>0</asrwt>
<pdfrwt beam="1">  1        2 0.77067137E-01 0.17035000E+04</pdfrwt>
<pdfrwt beam="2">  1       -1 0.22280674E+00 0.17035000E+04</pdfrwt>
<totfact> 0.70402668E+00</totfact>
</mgrwt>
</event>
<event>
12    6  0.1663299E-008  0.2285780E+04  0.7818608E-02  0.8483549E-01
         -1   -1    0    0    0  501 -0.00000000000E+00  0.00000000000E+00  0.12205700749E+04  0.12205700749E+04  0.00000000000E+00 0.  1.
          2   -1    0    0  501    0  0.00000000000E+00 -0.00000000000E+00 -0.10701539012E+04  0.10701539012E+04  0.00000000000E+00 0. -1.
         24    2    1    2    0    0 -0.31220954891E+03  0.22415210987E+03 -0.82267035296E+03  0.91139069761E+03  0.78278498073E+02 0.  0.
        254    2    1    2    0    0  0.31220954891E+03 -0.22415210987E+03  0.97308652674E+03  0.13793332785E+04  0.89885701522E+03 0.  0.
         23    2    4    4    0    0  0.52629686154E+03  0.59330275195E+02  0.81831642024E+03  0.98124288732E+03  0.11263823623E+03 0.  0.
         23    2    4    4    0    0 -0.21408731263E+03 -0.28348238507E+03  0.15477010650E+03  0.39809039116E+03  0.91249841631E+02 0.  0.
          4    1    3    3  502    0 -0.22956573152E+03  0.16838632391E+03 -0.68137774975E+03  0.73846463492E+03  0.00000000000E+00 0. -1.
         -3    1    3    3    0  502 -0.82643817389E+02  0.55765785964E+02 -0.14129260321E+03  0.17292606269E+03  0.00000000000E+00 0.  1.
         11    1    5    5    0    0  0.12438389889E+03 -0.29064406346E+02  0.23341963010E+03  0.26608423053E+03  0.00000000000E+00 0. -1.
        -11    1    5    5    0    0  0.40191296264E+03  0.88394681541E+02  0.58489679014E+03  0.71515865679E+03  0.00000000000E+00 0.  1.
          1    1    6    6  503    0 -0.10323810703E+03 -0.10083729057E+03  0.10568560343E+03  0.17887345439E+03  0.00000000000E+00 0. -1.
         -1    1    6    6    0  503 -0.11084920560E+03 -0.18264509450E+03  0.49084503063E+02  0.21921693677E+03  0.00000000000E+00 0.  1.
<mgrwt>
<rscale>  0 0.22857802E+04</rscale>
<asrwt>0</asrwt>
<pdfrwt beam="1">  1        2 0.16463906E+00 0.22857802E+04</pdfrwt>
<pdfrwt beam="2">  1       -1 0.18778001E+00 0.22857802E+04</pdfrwt>
<totfact> 0.43102528E+00</totfact>
</mgrwt>
</event>
<event>
12    6  0.1663299E-008  0.1617954E+04  0.7818608E-02  0.8809594E-01
         -1   -1    0    0    0  501 -0.00000000000E+00  0.00000000000E+00  0.84963750081E+03  0.84963750081E+03  0.00000000000E+00 0.  1.
          2   -1    0    0  501    0  0.00000000000E+00 -0.00000000000E+00 -0.77026229652E+03  0.77026229652E+03  0.00000000000E+00 0. -1.
         24    2    1    2    0    0  0.61407000153E+02  0.45079152972E+03  0.36169668238E+03  0.58665194469E+03  0.79700635105E+02 0.  0.
        254    2    1    2    0    0 -0.61407000153E+02 -0.45079152972E+03 -0.28232147808E+03  0.10332478526E+04  0.88369218910E+03 0.  0.
         23    2    4    4    0    0 -0.35845222298E+03 -0.40640085064E+03  0.81060730952E+02  0.55296204545E+03  0.74475056469E+02 0.  0.
         23    2    4    4    0    0  0.29704522283E+03 -0.44390679072E+02 -0.36338220904E+03  0.48028580720E+03  0.91768349431E+02 0.  0.
          4    1    3    3  502    0  0.29492144846E+02  0.24055228283E+03  0.24264790563E+03  0.34294779994E+03  0.00000000000E+00 0. -1.
         -3    1    3    3    0  502  0.31914855307E+02  0.21023924689E+03  0.11904877675E+03  0.24370414475E+03  0.00000000000E+00 0.  1.
         11    1    5    5    0    0 -0.35995772638E+03 -0.40812514114E+03  0.82279739125E+02  0.55036865016E+03  0.00000000000E+00 0. -1.
        -11    1    5    5    0    0  0.15055033938E+01  0.17242904957E+01 -0.12190081733E+01  0.25933952860E+01  0.00000000000E+00 0.  1.
          2    1    6    6  503    0  0.27430265671E+03 -0.59812230326E+02 -0.35272056341E+03  0.45081176363E+03  0.00000000000E+00 0. -1.
         -2    1    6    6    0  503  0.22742566117E+02  0.15421551254E+02 -0.10661645624E+02  0.29474043565E+02  0.00000000000E+00 0.  1.
<mgrwt>
<rscale>  0 0.16179539E+04</rscale>
<asrwt>0</asrwt>
<pdfrwt beam="1">  1        2 0.11850189E+00 0.16179539E+04</pdfrwt>
<pdfrwt beam="2">  1       -1 0.13071346E+00 0.16179539E+04</pdfrwt>
<totfact> 0.19809632E+01</totfact>
</mgrwt>
</event>
<event>
12    6  0.1663299E-008  0.1491358E+04  0.7818608E-02  0.8890220E-01
         -1   -1    0    0    0  501 -0.00000000000E+00  0.00000000000E+00  0.17632255727E+04  0.17632255727E+04  0.00000000000E+00 0.  1.
          2   -1    0    0  501    0  0.00000000000E+00 -0.00000000000E+00 -0.31535229656E+03  0.31535229656E+03  0.00000000000E+00 0. -1.
         24    2    1    2    0    0 -0.45038064964E+02  0.24447669682E+03  0.10124985088E+04  0.10456491108E+04  0.80196944488E+02 0.  0.
        254    2    1    2    0    0  0.45038064964E+02 -0.24447669682E+03  0.43537476728E+03  0.10329287584E+04  0.90310207034E+03 0.  0.
         23    2    4    4    0    0 -0.93691674898E+02 -0.55687137530E+03  0.20248739859E+03  0.60889012178E+03  0.10422175995E+03 0.  0.
         23    2    4    4    0    0  0.13872973986E+03  0.31239467847E+03  0.23288736869E+03  0.42403863666E+03  0.93465838821E+02 0.  0.
          2    1    3    3  502    0  0.22713734332E+02  0.47903230154E+02  0.18721839624E+03  0.19457996063E+03  0.00000000000E+00 0. -1.
         -1    1    3    3    0  502 -0.67751799296E+02  0.19657346667E+03  0.82528011258E+03  0.85106915015E+03  0.00000000000E+00 0.  1.
         11    1    5    5    0    0  0.35663968623E+01 -0.93173537783E+02 -0.10137665513E+01  0.93247279061E+02  0.00000000000E+00 0. -1.
        -11    1    5    5    0    0 -0.97258071760E+02 -0.46369783751E+03  0.20350116514E+03  0.51564284272E+03  0.00000000000E+00 0.  1.
          3    1    6    6  503    0  0.76317545095E+02  0.72595115710E+02  0.53548443028E+02  0.11816029056E+03  0.00000000000E+00 0. -1.
         -3    1    6    6    0  503  0.62412194767E+02  0.23979956276E+03  0.17933892567E+03  0.30587834610E+03  0.00000000000E+00 0.  1.
<mgrwt>
<rscale>  0 0.14913581E+04</rscale>
<asrwt>0</asrwt>
<pdfrwt beam="1">  1        2 0.48515739E-01 0.14913581E+04</pdfrwt>
<pdfrwt beam="2">  1       -1 0.27126547E+00 0.14913581E+04</pdfrwt>
<totfact> 0.58358570E+00</totfact>
</mgrwt>
</event>
<event>
12    6  0.1663299E-008  0.2181682E+04  0.7818608E-02  0.8526091E-01
          2   -1    0    0  501    0  0.00000000000E+00  0.00000000000E+00  0.15570653853E+04  0.15570653853E+04  0.00000000000E+00 0. -1.
         -1   -1    0    0    0  501 -0.00000000000E+00 -0.00000000000E+00 -0.76421587973E+03  0.76421587973E+03  0.00000000000E+00 0.  1.
         24    2    1    2    0    0 -0.11199549680E+03  0.79486519865E+03 -0.11553654449E+03  0.81500702945E+03  0.80833715745E+02 0.  0.
        254    2    1    2    0    0  0.11199549680E+03 -0.79486519865E+03  0.90838605005E+03  0.15062742356E+04  0.89405994291E+03 0.  0.
         23    2    4    4    0    0 -0.25437496214E+03  0.39816861531E+02  0.16018599849E+03  0.32371591345E+03  0.11331564184E+03 0.  0.
         23    2    4    4    0    0  0.36637045893E+03 -0.83468206018E+03  0.74820005156E+03  0.11825583221E+04  0.87860191822E+02 0.  0.
          2    1    3    3  502    0 -0.10533746465E+03  0.76608343541E+03 -0.95171836254E+02  0.77912610654E+03  0.00000000000E+00 0. -1.
         -1    1    3    3    0  502 -0.66580321518E+01  0.28781763239E+02 -0.20364708232E+02  0.35880922907E+02  0.00000000000E+00 0.  1.
         11    1    5    5    0    0 -0.24978426897E+03  0.35489227830E+02  0.11357247417E+03  0.27667738108E+03  0.00000000000E+00 0.  1.
        -11    1    5    5    0    0 -0.45906931679E+01  0.43276337005E+01  0.46613524326E+02  0.47038532368E+02  0.00000000000E+00 0. -1.
          2    1    6    6  503    0  0.22489800108E+03 -0.60338393108E+03  0.50507458761E+03  0.81838353980E+03  0.00000000000E+00 0.  1.
         -2    1    6    6    0  503  0.14147245786E+03 -0.23129812910E+03  0.24312546395E+03  0.36417478232E+03  0.00000000000E+00 0. -1.
<mgrwt>
<rscale>  0 0.21816820E+04</rscale>
<asrwt>0</asrwt>
<pdfrwt beam="1">  1        2 0.23954852E+00 0.21816820E+04</pdfrwt>
<pdfrwt beam="2">  1       -1 0.11757167E+00 0.21816820E+04</pdfrwt>
<totfact> 0.79989767E+00</totfact>
</mgrwt>
</event>
<event>
12    6  0.1663299E-008  0.1454496E+04  0.7818608E-02  0.8915289E-01
          2   -1    0    0  501    0  0.00000000000E+00  0.00000000000E+00  0.96498858865E+03  0.96498858865E+03  0.00000000000E+00 0. -1.
         -3   -1    0    0    0  501 -0.00000000000E+00 -0.00000000000E+00 -0.54807887111E+03  0.54807887111E+03  0.00000000000E+00 0.  1.
         24    2    1    2    0    0  0.27229554973E+03 -0.21822778789E+03 -0.15057635529E+03  0.39267209628E+03  0.98741595146E+02 0.  0.
        254    2    1    2    0    0 -0.27229554973E+03  0.21822778789E+03  0.56748607282E+03  0.11203953635E+04  0.90082023392E+03 0.  0.
         23    2    4    4    0    0  0.20720771885E+03 -0.74719942811E+02  0.49019031579E+03  0.54737454585E+03  0.10399153401E+03 0.  0.
         23    2    4    4    0    0 -0.47950326858E+03  0.29294773070E+03  0.77295757032E+02  0.57302081763E+03  0.81464506815E+02 0.  0.
          4    1    3    3  502    0  0.24787104836E+03 -0.15905740706E+03 -0.99798198409E+02  0.31096462140E+03  0.00000000000E+00 0. -1.
         -3    1    3    3    0  502  0.24424501370E+02 -0.59170380832E+02 -0.50778156879E+02  0.81707474878E+02  0.00000000000E+00 0.  1.
         11    1    5    5    0    0  0.59007177176E+02  0.20633156951E+01  0.52758775066E+02  0.79180758877E+02  0.00000000000E+00 0. -1.
        -11    1    5    5    0    0  0.14820054168E+03 -0.76783258506E+02  0.43743154073E+03  0.46819378697E+03  0.00000000000E+00 0.  1.
          3    1    6    6  503    0 -0.19571795264E+03  0.11521436197E+03  0.71575875818E+02  0.23812385892E+03  0.00000000000E+00 0. -1.
         -3    1    6    6    0  503 -0.28378531595E+03  0.17773336873E+03  0.57198812142E+01  0.33489695870E+03  0.00000000000E+00 0.  1.
<mgrwt>
<rscale>  0 0.14544963E+04</rscale>
<asrwt>0</asrwt>
<pdfrwt beam="1">  1        2 0.14845978E+00 0.14544963E+04</pdfrwt>
<pdfrwt beam="2">  1       -3 0.84319826E-01 0.14544963E+04</pdfrwt>
<totfact> 0.21104518E+01</totfact>
</mgrwt>
</event>
<event>
12    6  0.1663299E-008  0.3041224E+04  0.7818608E-02  0.8232056E-01
          2   -1    0    0  501    0  0.00000000000E+00  0.00000000000E+00  0.98112026853E+03  0.98112026853E+03  0.00000000000E+00 0. -1.
         -1   -1    0    0    0  501 -0.00000000000E+00 -0.00000000000E+00 -0.23567561606E+04  0.23567561606E+04  0.00000000000E+00 0.  1.
         24    2    1    2    0    0  0.34188324299E+03 -0.36770499364E+03 -0.20404324041E+04  0.21027654807E+04  0.78531248489E+02 0.  0.
        254    2    1    2    0    0 -0.34188324299E+03  0.36770499364E+03  0.66479651208E+03  0.12351109484E+04  0.91184074163E+03 0.  0.
         23    2    4    4    0    0  0.23629046736E+03  0.37249194368E+03  0.31934825480E+03  0.55519864521E+03  0.10806847240E+03 0.  0.
         23    2    4    4    0    0 -0.57817371035E+03 -0.47869500483E+01  0.34544825729E+03  0.67991230314E+03  0.92943462791E+02 0.  0.
          4    1    3    3  502    0  0.71919412305E+02 -0.91223790518E+02 -0.61551140152E+03  0.62637725631E+03  0.00000000000E+00 0. -1.
         -3    1    3    3    0  502  0.26996383068E+03 -0.27648120312E+03 -0.14249210026E+04  0.14763882244E+04  0.00000000000E+00 0.  1.
         11    1    5    5    0    0  0.15739552454E+03  0.28993569725E+03  0.28497847183E+03  0.43594585569E+03  0.00000000000E+00 0. -1.
        -11    1    5    5    0    0  0.78894942820E+02  0.82556246439E+02  0.34369782968E+02  0.11925278953E+03  0.00000000000E+00 0.  1.
          2    1    6    6  503    0 -0.54841704569E+03  0.16444157902E+02  0.32974561226E+03  0.64012798340E+03  0.00000000000E+00 0. -1.
         -2    1    6    6    0  503 -0.29756664662E+02 -0.21231107950E+02  0.15702645029E+02  0.39784319744E+02  0.00000000000E+00 0.  1.
<mgrwt>
<rscale>  0 0.30412243E+04</rscale>
<asrwt>0</asrwt>
<pdfrwt beam="1">  1        2 0.15094158E+00 0.30412243E+04</pdfrwt>
<pdfrwt beam="2">  1       -1 0.36257787E+00 0.30412243E+04</pdfrwt>
<totfact> 0.32259422E-01</totfact>
</mgrwt>
</event>
<event>
12    6  0.1663299E-008  0.1481197E+04  0.7818608E-02  0.8897054E-01
         -1   -1    0    0    0  501 -0.00000000000E+00  0.00000000000E+00  0.46561995296E+03  0.46561995296E+03  0.00000000000E+00 0.  1.
          2   -1    0    0  501    0  0.00000000000E+00 -0.00000000000E+00 -0.11779702378E+04  0.11779702378E+04  0.00000000000E+00 0. -1.
         24    2    1    2    0    0 -0.29479075236E+03 -0.19665588649E+03 -0.55472797876E+03  0.66307097408E+03  0.79780078145E+02 0.  0.
        254    2    1    2    0    0  0.29479075236E+03  0.19665588649E+03 -0.15762230608E+03  0.98051921670E+03  0.90055428352E+03 0.  0.
         23    2    4    4    0    0  0.24541389156E+03  0.52777576691E+03  0.10398860964E+02  0.59504020575E+03  0.12324557533E+03 0.  0.
         23    2    4    4    0    0  0.49376860810E+02 -0.33111988042E+03 -0.16802116705E+03  0.38547901095E+03  0.91019260114E+02 0.  0.
          4    1    3    3  502    0 -0.10983692227E+03 -0.82008555329E+02 -0.28707209339E+03  0.31811937923E+03  0.00000000000E+00 0. -1.
         -3    1    3    3    0  502 -0.18495383010E+03 -0.11464733116E+03 -0.26765588538E+03  0.34495159485E+03  0.00000000000E+00 0.  1.
         11    1    5    5    0    0  0.80216161256E+02  0.65700090356E+02 -0.78369361432E+01  0.10398342160E+03  0.00000000000E+00 0.  1.
        -11    1    5    5    0    0  0.16519773030E+03  0.46207567656E+03  0.18235797107E+02  0.49105678415E+03  0.00000000000E+00 0. -1.
          3    1    6    6  503    0  0.75312171018E+02 -0.26382395029E+03 -0.14089525675E+03  0.30842579857E+03  0.00000000000E+00 0. -1.
         -3    1    6    6    0  503 -0.25935310209E+02 -0.67295930136E+02 -0.27125910292E+02  0.77053212377E+02  0.00000000000E+00 0.  1.
<mgrwt>
<rscale>  0 0.14811974E+04</rscale>
<asrwt>0</asrwt>
<pdfrwt beam="1">  1        2 0.18122619E+00 0.14811974E+04</pdfrwt>
<pdfrwt beam="2">  1       -1 0.71633839E-01 0.14811974E+04</pdfrwt>
<totfact> 0.42387208E+01</totfact>
</mgrwt>
</event>
<event>
12    6  0.1663299E-008  0.2369157E+04  0.7818608E-02  0.8451142E-01
          2   -1    0    0  501    0  0.00000000000E+00  0.00000000000E+00  0.24384340519E+04  0.24384340519E+04  0.00000000000E+00 0. -1.
         -1   -1    0    0    0  501 -0.00000000000E+00 -0.00000000000E+00 -0.57546209183E+03  0.57546209183E+03  0.00000000000E+00 0.  1.
         24    2    1    2    0    0  0.17602543080E+03  0.51422869232E+03  0.19293992386E+04  0.20060893999E+04  0.79982236184E+02 0.  0.
        254    2    1    2    0    0 -0.17602543080E+03 -0.51422869232E+03 -0.66427278490E+02  0.10078067439E+04  0.84607668058E+03 0.  0.
         23    2    4    4    0    0  0.21892992893E+03 -0.55192474500E+03 -0.47532090265E+02  0.60025272782E+03  0.74113424736E+02 0.  0.
         23    2    4    4    0    0 -0.39495535972E+03  0.37696052680E+02 -0.18895188225E+02  0.40755401607E+03  0.91282634244E+02 0.  0.
          4    1    3    3  502    0  0.14347361547E+03  0.37751656399E+03  0.13046382525E+04  0.13657175419E+04  0.00000000000E+00 0. -1.
         -3    1    3    3    0  502  0.32551815330E+02  0.13671212834E+03  0.62476098610E+03  0.64037185796E+03  0.00000000000E+00 0.  1.
         11    1    5    5    0    0  0.14717764893E+03 -0.31001812150E+03 -0.56347750247E+02  0.34777516438E+03  0.00000000000E+00 0. -1.
        -11    1    5    5    0    0  0.71752279995E+02 -0.24190662351E+03  0.88156599820E+01  0.25247756344E+03  0.00000000000E+00 0.  1.
          3    1    6    6  503    0 -0.36077423572E+03  0.93157923855E+01 -0.47381590532E+01  0.36092559247E+03  0.00000000000E+00 0. -1.
         -3    1    6    6    0  503 -0.34181124000E+02  0.28380260295E+02 -0.14157029172E+02  0.46628423599E+02  0.00000000000E+00 0.  1.
<mgrwt>
<rscale>  0 0.23691571E+04</rscale>
<asrwt>0</asrwt>
<pdfrwt beam="1">  1        2 0.37514370E+00 0.23691571E+04</pdfrwt>
<pdfrwt beam="2">  1       -1 0.88532631E-01 0.23691571E+04</pdfrwt>
<totfact> 0.48530990E+00</totfact>
</mgrwt>
</event>
<event>
11    6  0.1663299E-008  0.1863728E+04  0.7818608E-02  0.8673125E-01
          2   -1    0    0  501    0  0.00000000000E+00  0.00000000000E+00  0.23962875510E+04  0.23962875510E+04  0.00000000000E+00 0. -1.
         -1   -1    0    0    0  501 -0.00000000000E+00 -0.00000000000E+00 -0.36238170768E+03  0.36238170768E+03  0.00000000000E+00 0.  1.
         24    2    1    2    0    0  0.43880627087E+03  0.16980297281E+03  0.15915311557E+04  0.16616422554E+04  0.81850916330E+02 0.  0.
        254    2    1    2    0    0 -0.43880627087E+03 -0.16980297281E+03  0.44237468761E+03  0.10970270032E+04  0.88678570618E+03 0.  0.
         23    2    4    4    0    0  0.24005867496E+03 -0.47969353896E+02  0.24434741989E+03  0.35905960373E+03  0.96378997136E+02 0.  0.
          4    1    3    3  502    0  0.15713922857E+03  0.31567534989E+02  0.63756998581E+03  0.65740758531E+03  0.00000000000E+00 0. -1.
         -3    1    3    3    0  502  0.28166704230E+03  0.13823543783E+03  0.95396116988E+03  0.10042346701E+04  0.00000000000E+00 0.  1.
         11    1    4    4    0    0 -0.48453027703E+03 -0.16143610636E+03  0.16634674707E+03  0.53712423708E+03  0.00000000000E+00 0. -1.
        -11    1    4    4    0    0 -0.19433466879E+03  0.39602487440E+02  0.31680520642E+02  0.20084316243E+03  0.00000000000E+00 0.  1.
          3    1    5    5  503    0  0.16475556028E+03 -0.77336730673E+02  0.16170716320E+03  0.24346369582E+03  0.00000000000E+00 0. -1.
         -3    1    5    5    0  503  0.75303114682E+02  0.29367376777E+02  0.82640256693E+02  0.11559590791E+03  0.00000000000E+00 0.  1.
<mgrwt>
<rscale>  0 0.18637283E+04</rscale>
<asrwt>0</asrwt>
<pdfrwt beam="1">  1        2 0.36865961E+00 0.18637283E+04</pdfrwt>
<pdfrwt beam="2">  1       -1 0.55751033E-01 0.18637283E+04</pdfrwt>
<totfact> 0.13911109E+01</totfact>
</mgrwt>
</event>
<event>
11    6  0.1663299E-008  0.1579367E+04  0.7818608E-02  0.8833325E-01
         -1   -1    0    0    0  501 -0.00000000000E+00  0.00000000000E+00  0.15224393370E+04  0.15224393370E+04  0.00000000000E+00 0.  1.
          2   -1    0    0  501    0  0.00000000000E+00 -0.00000000000E+00 -0.40960598102E+03  0.40960598102E+03  0.00000000000E+00 0. -1.
         24    2    1    2    0    0  0.28777767235E+02  0.47539677096E+03  0.65744842400E+03  0.81640864708E+03  0.86338862034E+02 0.  0.
        254    2    1    2    0    0 -0.28777767235E+02 -0.47539677096E+03  0.45538493202E+03  0.11156366710E+04  0.90024413109E+03 0.  0.
         23    2    4    4    0    0  0.25301513558E+03 -0.20254524955E+03 -0.14088608410E+03  0.36483934279E+03  0.90651091597E+02 0.  0.
          2    1    3    3  502    0 -0.12760133895E+02  0.32956001276E+03  0.40990160367E+03  0.52611020492E+03  0.00000000000E+00 0. -1.
         -1    1    3    3    0  502  0.41537901129E+02  0.14583675820E+03  0.24754682032E+03  0.29029844217E+03  0.00000000000E+00 0.  1.
         11    1    4    4    0    0 -0.19402257213E+03 -0.20493163676E+03  0.21806037575E+03  0.35663996090E+03  0.00000000000E+00 0.  1.
        -11    1    4    4    0    0 -0.87770330689E+02 -0.67919884652E+02  0.37821064038E+03  0.39415736727E+03  0.00000000000E+00 0. -1.
          3    1    5    5  503    0  0.22078539363E+01 -0.31161356857E+02 -0.34659781702E+01  0.31431159458E+02  0.00000000000E+00 0. -1.
         -3    1    5    5    0  503  0.25080728165E+03 -0.17138389269E+03 -0.13742010593E+03  0.33340818334E+03  0.00000000000E+00 0.  1.
<mgrwt>
<rscale>  0 0.15793673E+04</rscale>
<asrwt>0</asrwt>
<pdfrwt beam="1">  1        2 0.63016306E-01 0.15793673E+04</pdfrwt>
<pdfrwt beam="2">  1       -1 0.23422143E+00 0.15793673E+04</pdfrwt>
<totfact> 0.75276700E+00</totfact>
</mgrwt>
</event>
<event>
11    6  0.1663299E-008  0.1354941E+04  0.7818608E-02  0.8987097E-01
         -1   -1    0    0    0  501 -0.00000000000E+00  0.00000000000E+00  0.40185623544E+03  0.40185623544E+03  0.00000000000E+00 0.  1.
          2   -1    0    0  501    0  0.00000000000E+00 -0.00000000000E+00 -0.11421147736E+04  0.11421147736E+04  0.00000000000E+00 0. -1.
         24    2    1    2    0    0 -0.11385646587E+03 -0.26625896521E+03  0.54195099520E+02  0.30534649781E+03  0.80263587876E+02 0.  0.
        254    2    1    2    0    0  0.11385646587E+03  0.26625896521E+03 -0.79445363770E+03  0.12386245113E+04  0.90508395524E+03 0.  0.
         23    2    4    4    0    0  0.14426514013E+03  0.48968450121E+03 -0.34795743253E+03  0.62452051118E+03  0.91368225623E+02 0.  0.
          2    1    3    3  502    0 -0.68250024311E+02 -0.19554608945E+03  0.35663256136E+01  0.20714501586E+03  0.00000000000E+00 0. -1.
         -3    1    3    3    0  502 -0.45606441555E+02 -0.70712875753E+02  0.50628773906E+02  0.98201481943E+02  0.00000000000E+00 0.  1.
         11    1    4    4    0    0 -0.15657119280E+03 -0.35463176838E+02 -0.31175514209E+03  0.35066143777E+03  0.00000000000E+00 0.  1.
        -11    1    4    4    0    0  0.12616251853E+03 -0.18796235917E+03 -0.13474106309E+03  0.26344256229E+03  0.00000000000E+00 0. -1.
          3    1    5    5  503    0 -0.37247231187E+01  0.84414617186E+02 -0.81677438249E+02  0.11751980716E+03  0.00000000000E+00 0. -1.
         -3    1    5    5    0  503  0.14798986325E+03  0.40526988402E+03 -0.26627999428E+03  0.50700070402E+03  0.00000000000E+00 0.  1.
<mgrwt>
<rscale>  0 0.13549405E+04</rscale>
<asrwt>0</asrwt>
<pdfrwt beam="1">  1        2 0.17570996E+00 0.13549405E+04</pdfrwt>
<pdfrwt beam="2">  1       -1 0.61824037E-01 0.13549405E+04</pdfrwt>
<totfact> 0.60655803E+01</totfact>
</mgrwt>
</event>
<event>
12    6  0.1663299E-008  0.1664908E+04  0.7818608E-02  0.8781636E-01
          2   -1    0    0  501    0  0.00000000000E+00  0.00000000000E+00  0.10355320870E+04  0.10355320870E+04  0.00000000000E+00 0. -1.
         -1   -1    0    0    0  501 -0.00000000000E+00 -0.00000000000E+00 -0.66920130907E+03  0.66920130907E+03  0.00000000000E+00 0.  1.
         24    2    1    2    0    0 -0.51976015163E+03  0.24048999429E+03  0.23935218434E+03  0.62589100319E+03  0.80399173850E+02 0.  0.
        254    2    1    2    0    0  0.51976015163E+03 -0.24048999429E+03  0.12697859360E+03  0.10788423929E+04  0.90542326725E+03 0.  0.
         23    2    4    4    0    0  0.45297373630E+03  0.19095033818E+03 -0.18161491380E+03  0.53669146781E+03  0.11578651596E+03 0.  0.
         23    2    4    4    0    0  0.66786415326E+02 -0.43144033247E+03  0.30859350739E+03  0.54215092507E+03  0.89980481227E+02 0.  0.
          2    1    3    3  502    0 -0.51325756680E+03  0.24359807115E+03  0.22743527527E+03  0.61196417753E+03  0.00000000000E+00 0. -1.
         -1    1    3    3    0  502 -0.65025848286E+01 -0.31080768592E+01  0.11916909071E+02  0.13926825662E+02  0.00000000000E+00 0.  1.
         11    1    5    5    0    0  0.14416158633E+03  0.18155103510E+02 -0.16620569010E+02  0.14624778313E+03  0.00000000000E+00 0. -1.
        -11    1    5    5    0    0  0.30881214997E+03  0.17279523466E+03 -0.16499434479E+03  0.39044368468E+03  0.00000000000E+00 0.  1.
          4    1    6    6  503    0 -0.15802357830E+02 -0.49031558051E+02  0.17125060917E+02  0.54286977346E+02  0.00000000000E+00 0. -1.
         -4    1    6    6    0  503  0.82588773156E+02 -0.38240877442E+03  0.29146844647E+03  0.48786394773E+03  0.00000000000E+00 0.  1.
<mgrwt>
<rscale>  0 0.16649077E+04</rscale>
<asrwt>0</asrwt>
<pdfrwt beam="1">  1        2 0.15931263E+00 0.16649077E+04</pdfrwt>
<pdfrwt beam="2">  1       -1 0.10295405E+00 0.16649077E+04</pdfrwt>
<totfact> 0.23195701E+01</totfact>
</mgrwt>
</event>
<event>
11    6  0.1663299E-008  0.2935161E+04  0.7818608E-02  0.8262492E-01
          2   -1    0    0  501    0  0.00000000000E+00  0.00000000000E+00  0.17709664148E+04  0.17709664148E+04  0.00000000000E+00 0. -1.
         -1   -1    0    0    0  501 -0.00000000000E+00 -0.00000000000E+00 -0.12161680653E+04  0.12161680653E+04  0.00000000000E+00 0.  1.
         24    2    1    2    0    0  0.49372698899E+03  0.68549167212E+03  0.12998418294E+04  0.15523870255E+04  0.81556872629E+02 0.  0.
        254    2    1    2    0    0 -0.49372698899E+03 -0.68549167212E+03 -0.74504347990E+03  0.14347474545E+04  0.88867614968E+03 0.  0.
         23    2    4    4    0    0 -0.27842690210E+03 -0.12711419093E+03 -0.73587524242E+03  0.80195517235E+03  0.89107624210E+02 0.  0.
          4    1    3    3  502    0  0.35096271285E+03  0.44406673794E+03  0.92089253040E+03  0.10809316103E+04  0.00000000000E+00 0. -1.
         -3    1    3    3    0  502  0.14276427614E+03  0.24142493419E+03  0.37894929898E+03  0.47145541527E+03  0.00000000000E+00 0.  1.
         11    1    4    4    0    0 -0.97926335262E+02 -0.14650667301E+03  0.82888196008E+02  0.19474143219E+03  0.00000000000E+00 0.  1.
        -11    1    4    4    0    0 -0.11737375163E+03 -0.41187080818E+03 -0.92056433491E+02  0.43805084996E+03  0.00000000000E+00 0. -1.
          1    1    5    5  503    0 -0.19389195370E+03 -0.41968351905E+02 -0.43852556801E+03  0.48131082065E+03  0.00000000000E+00 0. -1.
         -1    1    5    5    0  503 -0.84534948402E+02 -0.85145839030E+02 -0.29734967441E+03  0.32064435170E+03  0.00000000000E+00 0.  1.
<mgrwt>
<rscale>  0 0.29351612E+04</rscale>
<asrwt>0</asrwt>
<pdfrwt beam="1">  1        2 0.27245637E+00 0.29351612E+04</pdfrwt>
<pdfrwt beam="2">  1       -1 0.18710278E+00 0.29351612E+04</pdfrwt>
<totfact> 0.16244521E+00</totfact>
</mgrwt>
</event>
<event>
11    6  0.1663299E-008  0.2006406E+04  0.7818608E-02  0.8603632E-01
         -1   -1    0    0    0  501 -0.00000000000E+00  0.00000000000E+00  0.24711490855E+03  0.24711490855E+03  0.00000000000E+00 0.  1.
          2   -1    0    0  501    0  0.00000000000E+00 -0.00000000000E+00 -0.40726645422E+04  0.40726645422E+04  0.00000000000E+00 0. -1.
         24    2    1    2    0    0  0.18024958000E+03 -0.50440636754E+03 -0.25756593799E+03  0.59983305271E+03  0.80893658578E+02 0.  0.
        254    2    1    2    0    0 -0.18024958000E+03  0.50440636754E+03 -0.35679836957E+04  0.37199463981E+04  0.90585752583E+03 0.  0.
         23    2    4    4    0    0 -0.19941570169E+03  0.25776019125E+03 -0.34413202717E+03  0.48356839753E+03  0.95940631087E+02 0.  0.
          2    1    3    3  502    0  0.37782832559E+02 -0.39122855772E+02 -0.16824154280E+02  0.56931471500E+02  0.00000000000E+00 0. -1.
         -1    1    3    3    0  502  0.14246674744E+03 -0.46528351177E+03 -0.24074178371E+03  0.54290158121E+03  0.00000000000E+00 0.  1.
         11    1    4    4    0    0 -0.38506935400E+02  0.88001584673E+01 -0.40470786311E+03  0.40663089077E+03  0.00000000000E+00 0.  1.
        -11    1    4    4    0    0  0.57673057084E+02  0.23784601783E+03 -0.28191438054E+04  0.28297471098E+04  0.00000000000E+00 0. -1.
          3    1    5    5  503    0 -0.14718717494E+03  0.21797964026E+03 -0.21899369554E+03  0.34225345392E+03  0.00000000000E+00 0. -1.
         -3    1    5    5    0  503 -0.52228526742E+02  0.39780550983E+02 -0.12513833163E+03  0.14131494361E+03  0.00000000000E+00 0.  1.
<mgrwt>
<rscale>  0 0.20064059E+04</rscale>
<asrwt>0</asrwt>
<pdfrwt beam="1">  1        2 0.62656373E+00 0.20064059E+04</pdfrwt>
<pdfrwt beam="2">  1       -1 0.38017681E-01 0.20064059E+04</pdfrwt>
<totfact> 0.21304615E+00</totfact>
</mgrwt>
</event>
<event>
12    6  0.1663299E-008  0.1264218E+04  0.7818608E-02  0.9058432E-01
         -3   -1    0    0    0  501 -0.00000000000E+00  0.00000000000E+00  0.13549486634E+04  0.13549486634E+04  0.00000000000E+00 0.  1.
          2   -1    0    0  501    0  0.00000000000E+00 -0.00000000000E+00 -0.29489085659E+03  0.29489085659E+03  0.00000000000E+00 0. -1.
         24    2    1    2    0    0 -0.64460507661E+02  0.12478555900E+03  0.59699784939E+03  0.61819544777E+03  0.77669728195E+02 0.  0.
        254    2    1    2    0    0  0.64460507661E+02 -0.12478555900E+03  0.46305995737E+03  0.10316440722E+04  0.91111929776E+03 0.  0.
         23    2    4    4    0    0  0.25576564839E+03  0.15079168524E+02  0.65888577349E+03  0.71096047848E+03  0.75437995971E+02 0.  0.
         23    2    4    4    0    0 -0.19130514073E+03 -0.13986472752E+03 -0.19582581611E+03  0.32068359370E+03  0.91271124311E+02 0.  0.
          2    1    3    3  502    0 -0.19276229677E+02  0.87649902845E+00  0.27306760186E+02  0.33436513469E+02  0.00000000000E+00 0. -1.
         -1    1    3    3    0  502 -0.45184277984E+02  0.12390905997E+03  0.56969108921E+03  0.58475893430E+03  0.00000000000E+00 0.  1.
         11    1    5    5    0    0  0.46847264399E+01  0.14755204638E+02  0.49875210376E+02  0.52222594112E+02  0.00000000000E+00 0.  1.
        -11    1    5    5    0    0  0.25108092195E+03  0.32396388590E+00  0.60901056311E+03  0.65873788437E+03  0.00000000000E+00 0. -1.
          3    1    6    6  503    0 -0.12625234116E+03 -0.63093044066E+02 -0.16122235133E+03  0.21427326577E+03  0.00000000000E+00 0. -1.
         -3    1    6    6    0  503 -0.65052799572E+02 -0.76771683459E+02 -0.34603464787E+02  0.10641032792E+03  0.00000000000E+00 0.  1.
<mgrwt>
<rscale>  0 0.12642183E+04</rscale>
<asrwt>0</asrwt>
<pdfrwt beam="1">  1        2 0.45367825E-01 0.12642183E+04</pdfrwt>
<pdfrwt beam="2">  1       -3 0.20845364E+00 0.12642183E+04</pdfrwt>
<totfact> 0.88826802E+00</totfact>
</mgrwt>
</event>
<event>
12    6  0.1663299E-008  0.3430079E+04  0.7818608E-02  0.8130563E-01
          2   -1    0    0  501    0  0.00000000000E+00  0.00000000000E+00  0.26445731191E+04  0.26445731191E+04  0.00000000000E+00 0. -1.
         -1   -1    0    0    0  501 -0.00000000000E+00 -0.00000000000E+00 -0.11122251618E+04  0.11122251618E+04  0.00000000000E+00 0.  1.
         24    2    1    2    0    0 -0.15602997620E+04 -0.33255221188E+03  0.72622685614E+03  0.17547369149E+04  0.81054752161E+02 0.  0.
        254    2    1    2    0    0  0.15602997620E+04  0.33255221188E+03  0.80612110118E+03  0.20020613660E+04  0.90182712456E+03 0.  0.
         23    2    4    4    0    0  0.13502949213E+04  0.51550244077E+03  0.88561988723E+03  0.16986304843E+04  0.10947052828E+03 0.  0.
         23    2    4    4    0    0  0.21000484076E+03 -0.18295022889E+03 -0.79498786047E+02  0.30343088177E+03  0.90429108355E+02 0.  0.
          4    1    3    3  502    0 -0.78894666015E+02 -0.10120335321E+01  0.45106617343E+02  0.90884539201E+02  0.00000000000E+00 0. -1.
         -3    1    3    3    0  502 -0.14814050960E+04 -0.33154017835E+03  0.68112023880E+03  0.16638523757E+04  0.00000000000E+00 0.  1.
         11    1    5    5    0    0  0.13086535311E+04  0.47729565073E+03  0.85119998593E+03  0.16324602962E+04  0.00000000000E+00 0.  1.
        -11    1    5    5    0    0  0.41641390153E+02  0.38206790044E+02  0.34419901304E+02  0.66170188039E+02  0.00000000000E+00 0. -1.
          2    1    6    6  503    0  0.11599182518E+03 -0.93197654631E+02  0.41688715642E+01  0.14885323587E+03  0.00000000000E+00 0. -1.
         -2    1    6    6    0  503  0.94013015576E+02 -0.89752574259E+02 -0.83667657611E+02  0.15457764591E+03  0.00000000000E+00 0.  1.
<mgrwt>
<rscale>  0 0.34300792E+04</rscale>
<asrwt>0</asrwt>
<pdfrwt beam="1">  1        2 0.40685740E+00 0.34300792E+04</pdfrwt>
<pdfrwt beam="2">  1       -1 0.17111156E+00 0.34300792E+04</pdfrwt>
<totfact> 0.64931334E-01</totfact>
</mgrwt>
</event>
<event>
11    6  0.1663299E-008  0.1948168E+04  0.7818608E-02  0.8631245E-01
         -1   -1    0    0    0  501 -0.00000000000E+00  0.00000000000E+00  0.10178111795E+04  0.10178111795E+04  0.00000000000E+00 0.  1.
          2   -1    0    0  501    0  0.00000000000E+00 -0.00000000000E+00 -0.93223558944E+03  0.93223558944E+03  0.00000000000E+00 0. -1.
         24    2    1    2    0    0 -0.28187957033E+03 -0.17927051008E+03  0.71900434213E+03  0.79695264410E+03  0.81069507066E+02 0.  0.
        254    2    1    2    0    0  0.28187957033E+03  0.17927051008E+03 -0.63342875205E+03  0.11530941249E+04  0.90376992034E+03 0.  0.
         23    2    4    4    0    0  0.50148517350E+03 -0.25682694459E+02 -0.46171997183E+03  0.68898350975E+03  0.96777912247E+02 0.  0.
          4    1    3    3  502    0 -0.15357213180E+03 -0.50149546320E+02  0.35060262121E+03  0.38603312638E+03  0.00000000000E+00 0. -1.
         -3    1    3    3    0  502 -0.12830743853E+03 -0.12912096376E+03  0.36840172092E+03  0.41091951772E+03  0.00000000000E+00 0.  1.
         11    1    4    4    0    0 -0.25320171780E+03  0.48243233030E+02 -0.49271448882E+02  0.26242369387E+03  0.00000000000E+00 0. -1.
        -11    1    4    4    0    0  0.33596114641E+02  0.15670997151E+03 -0.12243733134E+03  0.20168692124E+03  0.00000000000E+00 0.  1.
          4    1    5    5  503    0  0.15729425125E+03 -0.49938129184E+02 -0.17284638205E+03  0.23897943429E+03  0.00000000000E+00 0.  1.
         -4    1    5    5    0  503  0.34419092224E+03  0.24255434725E+02 -0.28887358978E+03  0.45000407547E+03  0.00000000000E+00 0. -1.
<mgrwt>
<rscale>  0 0.19481682E+04</rscale>
<asrwt>0</asrwt>
<pdfrwt beam="1">  1        2 0.14342086E+00 0.19481682E+04</pdfrwt>
<pdfrwt beam="2">  1       -1 0.15658634E+00 0.19481682E+04</pdfrwt>
<totfact> 0.92139667E+00</totfact>
</mgrwt>
</event>
<event>
12    6  0.1663299E-008  0.2028772E+04  0.7818608E-02  0.8593286E-01
          2   -1    0    0  501    0  0.00000000000E+00  0.00000000000E+00  0.27893056531E+04  0.27893056531E+04  0.00000000000E+00 0. -1.
         -1   -1    0    0    0  501 -0.00000000000E+00 -0.00000000000E+00 -0.36890151806E+03  0.36890151806E+03  0.00000000000E+00 0.  1.
         24    2    1    2    0    0 -0.15050301135E+03 -0.64138752742E+03  0.18360466200E+04  0.19523003415E+04  0.79876879985E+02 0.  0.
        254    2    1    2    0    0  0.15050301135E+03  0.64138752742E+03  0.58435751511E+03  0.12059068297E+04  0.82383764158E+03 0.  0.
         23    2    4    4    0    0  0.20115471249E+03  0.11422121055E+03  0.61621091710E+03  0.66745134402E+03  0.11075061618E+03 0.  0.
         23    2    4    4    0    0 -0.50651701134E+02  0.52716631687E+03 -0.31853401992E+02  0.53845548567E+03  0.91922523666E+02 0.  0.
          2    1    3    3  502    0 -0.88445487050E+02 -0.23819199315E+03  0.63964887530E+03  0.68826500235E+03  0.00000000000E+00 0. -1.
         -1    1    3    3    0  502 -0.62057524302E+02 -0.40319553427E+03  0.11963977447E+04  0.12640353391E+04  0.00000000000E+00 0.  1.
         11    1    5    5    0    0  0.17006803609E+03  0.90357052293E+02  0.58914793749E+03  0.61982483497E+03  0.00000000000E+00 0.  1.
        -11    1    5    5    0    0  0.31086676399E+02  0.23864158254E+02  0.27062979612E+02  0.47626509049E+02  0.00000000000E+00 0. -1.
          1    1    6    6  503    0  0.19499778452E+02  0.63978367983E+02  0.11945209448E+02  0.67942335537E+02  0.00000000000E+00 0. -1.
         -1    1    6    6    0  503 -0.70151479585E+02  0.46318794889E+03 -0.43798611440E+02  0.47051315013E+03  0.00000000000E+00 0.  1.
<mgrwt>
<rscale>  0 0.20287721E+04</rscale>
<asrwt>0</asrwt>
<pdfrwt beam="1">  1        2 0.42912393E+00 0.20287721E+04</pdfrwt>
<pdfrwt beam="2">  1       -1 0.56754082E-01 0.20287721E+04</pdfrwt>
<totfact> 0.77923348E+00</totfact>
</mgrwt>
</event>
<event>
12    6  0.1663299E-008  0.2216204E+04  0.7818608E-02  0.8511714E-01
          2   -1    0    0  501    0  0.00000000000E+00  0.00000000000E+00  0.18013967442E+04  0.18013967442E+04  0.00000000000E+00 0. -1.
         -1   -1    0    0    0  501 -0.00000000000E+00 -0.00000000000E+00 -0.68163241956E+03  0.68163241956E+03  0.00000000000E+00 0.  1.
         24    2    1    2    0    0  0.15531579395E+03  0.84219116237E+03  0.85359517040E+03  0.12118113333E+04  0.80330833896E+02 0.  0.
        254    2    1    2    0    0 -0.15531579395E+03 -0.84219116237E+03  0.26616915424E+03  0.12712178304E+04  0.90096603926E+03 0.  0.
         23    2    4    4    0    0 -0.39733684127E+03 -0.15011406868E+03  0.31178885056E+03  0.53099474425E+03  0.65820453092E+02 0.  0.
         23    2    4    4    0    0  0.24202104732E+03 -0.69207709369E+03 -0.45619696322E+02  0.74022308617E+03  0.91127216844E+02 0.  0.
          2    1    3    3  502    0  0.95488163057E+02  0.64814740021E+03  0.61590708747E+03  0.89919663149E+03  0.00000000000E+00 0. -1.
         -1    1    3    3    0  502  0.59827630895E+02  0.19404376216E+03  0.23768808294E+03  0.31261470186E+03  0.00000000000E+00 0.  1.
         11    1    5    5    0    0 -0.33617623201E+03 -0.10256597996E+03  0.26811351523E+03  0.44206232170E+03  0.00000000000E+00 0.  1.
        -11    1    5    5    0    0 -0.61160609254E+02 -0.47548088717E+02  0.43675335331E+02  0.88932422554E+02  0.00000000000E+00 0. -1.
          2    1    6    6  503    0  0.24768581343E+03 -0.68905732659E+03 -0.43706771816E+02  0.73352473946E+03  0.00000000000E+00 0.  1.
         -2    1    6    6    0  503 -0.56647661120E+01 -0.30197671023E+01 -0.19129245059E+01  0.66983467080E+01  0.00000000000E+00 0. -1.
<mgrwt>
<rscale>  0 0.22162043E+04</rscale>
<asrwt>0</asrwt>
<pdfrwt beam="1">  1        2 0.27713796E+00 0.22162043E+04</pdfrwt>
<pdfrwt beam="2">  1       -1 0.10486653E+00 0.22162043E+04</pdfrwt>
<totfact> 0.76435390E+00</totfact>
</mgrwt>
</event>
<event>
12    6  0.1663299E-008  0.1448984E+04  0.7818608E-02  0.8919105E-01
          2   -1    0    0  501    0  0.00000000000E+00  0.00000000000E+00  0.18643562625E+04  0.18643562625E+04  0.00000000000E+00 0. -1.
         -1   -1    0    0    0  501 -0.00000000000E+00 -0.00000000000E+00 -0.28153865147E+03  0.28153865147E+03  0.00000000000E+00 0.  1.
         24    2    1    2    0    0 -0.22488569496E+03 -0.17551469442E+03  0.98585713407E+03  0.10294395757E+04  0.80327874461E+02 0.  0.
        254    2    1    2    0    0  0.22488569496E+03  0.17551469442E+03  0.59696047691E+03  0.11164553382E+04  0.89929512817E+03 0.  0.
         23    2    4    4    0    0 -0.39662413066E+02 -0.12318664111E+03  0.67906233018E+03  0.69931405653E+03  0.10567140495E+03 0.  0.
         23    2    4    4    0    0  0.26454810803E+03  0.29870133554E+03 -0.82101853273E+02  0.41714128172E+03  0.89766058702E+02 0.  0.
          2    1    3    3  502    0 -0.19690823003E+03 -0.18017162654E+03  0.91452960384E+03  0.95267993701E+03  0.00000000000E+00 0. -1.
         -1    1    3    3    0  502 -0.27977464934E+02  0.46569321203E+01  0.71327530224E+02  0.76759638670E+02  0.00000000000E+00 0.  1.
         11    1    5    5    0    0 -0.94142014702E+01 -0.10074320652E+03  0.26691983350E+03  0.28545405649E+03  0.00000000000E+00 0. -1.
        -11    1    5    5    0    0 -0.30248211596E+02 -0.22443434593E+02  0.41214249668E+03  0.41386000004E+03  0.00000000000E+00 0.  1.
          1    1    6    6  503    0  0.28400479676E+02  0.54510814458E+02  0.16089711764E+02  0.63536563987E+02  0.00000000000E+00 0. -1.
         -1    1    6    6    0  503  0.23614762835E+03  0.24419052108E+03 -0.98191565037E+02  0.35360471774E+03  0.00000000000E+00 0.  1.
<mgrwt>
<rscale>  0 0.14489836E+04</rscale>
<asrwt>0</asrwt>
<pdfrwt beam="1">  1        2 0.28682403E+00 0.14489836E+04</pdfrwt>
<pdfrwt beam="2">  1       -1 0.43313640E-01 0.14489836E+04</pdfrwt>
<totfact> 0.46182504E+01</totfact>
</mgrwt>
</event>
<event>
11    6  0.1663299E-008  0.1396532E+04  0.7818608E-02  0.8956333E-01
         -1   -1    0    0    0  501 -0.00000000000E+00  0.00000000000E+00  0.37024541157E+03  0.37024541157E+03  0.00000000000E+00 0.  1.
          2   -1    0    0  501    0  0.00000000000E+00 -0.00000000000E+00 -0.13168978744E+04  0.13168978744E+04  0.00000000000E+00 0. -1.
         24    2    1    2    0    0 -0.47817874914E+02  0.13133389273E+01  0.20753854599E+03  0.22607623188E+03  0.75828362308E+02 0.  0.
        254    2    1    2    0    0  0.47817874914E+02 -0.13133389273E+01 -0.11541910088E+04  0.14610670541E+04  0.89457910643E+03 0.  0.
         23    2    4    4    0    0  0.16342224563E+02 -0.96388706627E+01  0.94641412969E+02  0.13268849343E+03  0.91045390379E+02 0.  0.
          4    1    3    3  502    0 -0.49819293784E+02  0.12003619014E+02  0.63366576242E+02  0.81494612627E+02  0.00000000000E+00 0. -1.
         -3    1    3    3    0  502  0.20014188699E+01 -0.10690280087E+02  0.14417196974E+03  0.14458161925E+03  0.00000000000E+00 0.  1.
         11    1    4    4    0    0 -0.14681779730E+03 -0.41599479103E+02 -0.10321340404E+04  0.10433535641E+04  0.00000000000E+00 0. -1.
        -11    1    4    4    0    0  0.17829344765E+03  0.49925010839E+02 -0.21669838133E+03  0.28502499654E+03  0.00000000000E+00 0.  1.
          1    1    5    5  503    0  0.51492919570E+02 -0.73067341655E+01  0.32712889817E+02  0.61441372789E+02  0.00000000000E+00 0. -1.
         -1    1    5    5    0  503 -0.35150695007E+02 -0.23321364972E+01  0.61928523152E+02  0.71247120643E+02  0.00000000000E+00 0.  1.
<mgrwt>
<rscale>  0 0.13965320E+04</rscale>
<asrwt>0</asrwt>
<pdfrwt beam="1">  1        2 0.20259967E+00 0.13965320E+04</pdfrwt>
<pdfrwt beam="2">  1       -1 0.56960833E-01 0.13965320E+04</pdfrwt>
<totfact> 0.55956345E+01</totfact>
</mgrwt>
</event>
<event>
11    6  0.1663299E-008  0.2038614E+04  0.7818608E-02  0.8588777E-01
          2   -1    0    0  501    0  0.00000000000E+00  0.00000000000E+00  0.20702246985E+04  0.20702246985E+04  0.00000000000E+00 0. -1.
         -1   -1    0    0    0  501 -0.00000000000E+00 -0.00000000000E+00 -0.50187127287E+03  0.50187127287E+03  0.00000000000E+00 0.  1.
         24    2    1    2    0    0 -0.14395636762E+03  0.12913305665E+03 -0.35341789563E+03  0.41675902393E+03  0.10670095116E+03 0.  0.
        254    2    1    2    0    0  0.14395636762E+03 -0.12913305665E+03  0.19217713213E+04  0.21553369475E+04  0.95649023189E+03 0.  0.
         23    2    4    4    0    0  0.30483955959E+03 -0.39484636766E+03  0.73147996629E+03  0.88981885379E+03  0.88790992388E+02 0.  0.
          4    1    3    3  502    0  0.37179737317E+01  0.55491749635E+02 -0.97661636968E+02  0.11238751239E+03  0.00000000000E+00 0. -1.
         -3    1    3    3    0  502 -0.14767434135E+03  0.73641307018E+02 -0.25575625866E+03  0.30437151154E+03  0.00000000000E+00 0.  1.
         11    1    4    4    0    0 -0.42353685090E+02  0.27157051153E+03  0.10302166623E+04  0.10662507907E+04  0.00000000000E+00 0. -1.
        -11    1    4    4    0    0 -0.11852950688E+03 -0.58572005256E+01  0.16007469272E+03  0.19926730301E+03  0.00000000000E+00 0.  1.
          1    1    5    5  503    0  0.29529847330E+03 -0.39251974191E+03  0.73002393587E+03  0.87989083588E+03  0.00000000000E+00 0. -1.
         -1    1    5    5    0  503  0.95410862879E+01 -0.23266257488E+01  0.14560304153E+01  0.99280179038E+01  0.00000000000E+00 0.  1.
<mgrwt>
<rscale>  0 0.20386136E+04</rscale>
<asrwt>0</asrwt>
<pdfrwt beam="1">  1        2 0.31849610E+00 0.20386136E+04</pdfrwt>
<pdfrwt beam="2">  1       -1 0.77210966E-01 0.20386136E+04</pdfrwt>
<totfact> 0.10826630E+01</totfact>
</mgrwt>
</event>
<event>
11    6  0.1663299E-008  0.1205236E+04  0.7818608E-02  0.9108286E-01
          2   -1    0    0  501    0  0.00000000000E+00  0.00000000000E+00  0.79792292744E+03  0.79792292744E+03  0.00000000000E+00 0. -1.
         -1   -1    0    0    0  501 -0.00000000000E+00 -0.00000000000E+00 -0.45511738780E+03  0.45511738780E+03  0.00000000000E+00 0.  1.
         24    2    1    2    0    0  0.11651245407E+03  0.22075725293E+03  0.39419789886E+01  0.26201891340E+03  0.79557872685E+02 0.  0.
        254    2    1    2    0    0 -0.11651245407E+03 -0.22075725293E+03  0.33886356065E+03  0.99102140184E+03  0.89721011446E+03 0.  0.
         23    2    4    4    0    0 -0.33232549114E+03  0.21816743793E+03  0.89627346451E+02  0.41730689439E+03  0.89859444940E+02 0.  0.
          4    1    3    3  502    0  0.16715833263E+02 -0.25584502827E+01  0.41763778580E+01  0.17418578631E+02  0.00000000000E+00 0. -1.
         -3    1    3    3    0  502  0.99796620808E+02  0.22331570321E+03 -0.23439886942E+00  0.24460033477E+03  0.00000000000E+00 0.  1.
         11    1    4    4    0    0 -0.17509066107E+02 -0.70622583897E+02  0.74143214261E+02  0.10388134083E+03  0.00000000000E+00 0. -1.
        -11    1    4    4    0    0  0.23332210317E+03 -0.36830210696E+03  0.17509299994E+03  0.46983316661E+03  0.00000000000E+00 0.  1.
          3    1    5    5  503    0 -0.24982605503E+02 -0.61001516523E+01  0.14399066609E+02  0.29473302277E+02  0.00000000000E+00 0. -1.
         -3    1    5    5    0  503 -0.30734288563E+03  0.22426758958E+03  0.75228279842E+02  0.38783359212E+03  0.00000000000E+00 0.  1.
<mgrwt>
<rscale>  0 0.12052362E+04</rscale>
<asrwt>0</asrwt>
<pdfrwt beam="1">  1        2 0.12275737E+00 0.12052362E+04</pdfrwt>
<pdfrwt beam="2">  1       -1 0.70018060E-01 0.12052362E+04</pdfrwt>
<totfact> 0.80294195E+01</totfact>
</mgrwt>
</event>
<event>
12    6  0.1663299E-008  0.3515617E+04  0.7818608E-02  0.8110099E-01
         -1   -1    0    0    0  501 -0.00000000000E+00  0.00000000000E+00  0.12840467384E+04  0.12840467384E+04  0.00000000000E+00 0.  1.
          2   -1    0    0  501    0  0.00000000000E+00 -0.00000000000E+00 -0.24063698967E+04  0.24063698967E+04  0.00000000000E+00 0. -1.
         24    2    1    2    0    0  0.53441957015E+03 -0.15153222825E+04 -0.17840617770E+03  0.16189836720E+04  0.86449229402E+02 0.  0.
        254    2    1    2    0    0 -0.53441957015E+03  0.15153222825E+04 -0.94391698054E+03  0.20714329631E+04  0.90446081046E+03 0.  0.
         23    2    4    4    0    0 -0.13147663962E+03  0.11038468749E+04 -0.21691299955E+03  0.11394626027E+04  0.12473870111E+03 0.  0.
         23    2    4    4    0    0 -0.40294293054E+03  0.41147540755E+03 -0.72700398099E+03  0.93197036037E+03  0.91427282305E+02 0.  0.
          4    1    3    3  502    0  0.46074493569E+03 -0.13631305129E+04 -0.14079205575E+03  0.14457638444E+04  0.00000000000E+00 0. -1.
         -3    1    3    3    0  502  0.73674634460E+02 -0.15219176960E+03 -0.37614121950E+02  0.17321982758E+03  0.00000000000E+00 0.  1.
         11    1    5    5    0    0 -0.39297850098E+02  0.69405960497E+03 -0.91853363128E+02  0.70121330321E+03  0.00000000000E+00 0.  1.
        -11    1    5    5    0    0 -0.92178789519E+02  0.40978726994E+03 -0.12505963642E+03  0.43824929949E+03  0.00000000000E+00 0. -1.
          3    1    6    6  503    0 -0.10174690423E+03  0.10349145458E+03 -0.25133080691E+03  0.29022420332E+03  0.00000000000E+00 0. -1.
         -3    1    6    6    0  503 -0.30119602631E+03  0.30798395297E+03 -0.47567317408E+03  0.64174615705E+03  0.00000000000E+00 0.  1.
<mgrwt>
<rscale>  0 0.35156174E+04</rscale>
<asrwt>0</asrwt>
<pdfrwt beam="1">  1        2 0.37021075E+00 0.35156174E+04</pdfrwt>
<pdfrwt beam="2">  1       -1 0.19754565E+00 0.35156174E+04</pdfrwt>
<totfact> 0.57546012E-01</totfact>
</mgrwt>
</event>
<event>
11    6  0.1663299E-008  0.2578988E+04  0.7818608E-02  0.8375374E-01
         -1   -1    0    0    0  501 -0.00000000000E+00  0.00000000000E+00  0.62573768927E+03  0.62573768927E+03  0.00000000000E+00 0.  1.
          2   -1    0    0  501    0  0.00000000000E+00 -0.00000000000E+00 -0.26573361410E+04  0.26573361410E+04  0.00000000000E+00 0. -1.
         24    2    1    2    0    0 -0.77020883775E+03  0.69100566825E+03 -0.13841356155E+04  0.17300061256E+04  0.79870551963E+02 0.  0.
        254    2    1    2    0    0  0.77020883775E+03 -0.69100566825E+03 -0.64746283629E+03  0.15530677048E+04  0.96026073746E+03 0.  0.
         23    2    4    4    0    0  0.43093899078E+03  0.10252363721E+03 -0.39304184059E+03  0.59850362492E+03  0.86632503299E+02 0.  0.
          4    1    3    3  502    0 -0.39642242816E+03  0.37508742844E+03 -0.79148646185E+03  0.96140113367E+03  0.00000000000E+00 0. -1.
         -3    1    3    3    0  502 -0.37378640960E+03  0.31591823980E+03 -0.59264915364E+03  0.76860499189E+03  0.00000000000E+00 0.  1.
         11    1    4    4    0    0  0.20786306222E+03 -0.47632063959E+03 -0.31237863320E+03  0.60635700278E+03  0.00000000000E+00 0.  1.
        -11    1    4    4    0    0  0.13140678475E+03 -0.31720866586E+03  0.57957637494E+02  0.34820707707E+03  0.00000000000E+00 0. -1.
          1    1    5    5  503    0  0.52243591989E+02  0.10670027304E+02 -0.14554848406E+02  0.55272832375E+02  0.00000000000E+00 0. -1.
         -1    1    5    5    0  503  0.37869539879E+03  0.91853609901E+02 -0.37848699218E+03  0.54323079255E+03  0.00000000000E+00 0.  1.
<mgrwt>
<rscale>  0 0.25789885E+04</rscale>
<asrwt>0</asrwt>
<pdfrwt beam="1">  1        2 0.40882096E+00 0.25789885E+04</pdfrwt>
<pdfrwt beam="2">  1       -1 0.96267334E-01 0.25789885E+04</pdfrwt>
<totfact> 0.29472917E+00</totfact>
</mgrwt>
</event>
<event>
11    6  0.1663299E-008  0.2683415E+04  0.7818608E-02  0.8340406E-01
          2   -1    0    0  501    0  0.00000000000E+00  0.00000000000E+00  0.25802535916E+04  0.25802535916E+04  0.00000000000E+00 0. -1.
         -1   -1    0    0    0  501 -0.00000000000E+00 -0.00000000000E+00 -0.69767497312E+03  0.69767497312E+03  0.00000000000E+00 0.  1.
         24    2    1    2    0    0  0.29851620592E+03 -0.72692818986E+03 -0.25689304049E+03  0.83057686219E+03  0.79544775684E+02 0.  0.
        254    2    1    2    0    0 -0.29851620592E+03  0.72692818986E+03  0.21394716590E+04  0.24473517025E+04  0.89143415795E+03 0.  0.
         23    2    4    4    0    0 -0.58500808821E+02  0.42225218311E+03  0.23132950664E+03  0.49350015110E+03  0.91158146724E+02 0.  0.
          2    1    3    3  502    0  0.55633320418E+02 -0.72415565247E+02 -0.21287307255E+02  0.93766891177E+02  0.00000000000E+00 0. -1.
         -1    1    3    3    0  502  0.24288288551E+03 -0.65451262462E+03 -0.23560573324E+03  0.73680997101E+03  0.00000000000E+00 0.  1.
         11    1    4    4    0    0 -0.14392506809E+03  0.20857672877E+03  0.15540536723E+04  0.15745797832E+04  0.00000000000E+00 0.  1.
        -11    1    4    4    0    0 -0.96090329014E+02  0.96099277976E+02  0.35408847998E+03  0.37927176828E+03  0.00000000000E+00 0. -1.
          3    1    5    5  503    0  0.66864662928E+01  0.31865991152E+01  0.16502957382E+02  0.18088970335E+02  0.00000000000E+00 0. -1.
         -3    1    5    5    0  503 -0.65187275114E+02  0.41906558400E+03  0.21482654926E+03  0.47541118076E+03  0.00000000000E+00 0.  1.
<mgrwt>
<rscale>  0 0.26834145E+04</rscale>
<asrwt>0</asrwt>
<pdfrwt beam="1">  1        2 0.39696208E+00 0.26834145E+04</pdfrwt>
<pdfrwt beam="2">  1       -1 0.10733461E+00 0.26834145E+04</pdfrwt>
<totfact> 0.25237216E+00</totfact>
</mgrwt>
</event>
<event>
12    6  0.1663299E-008  0.1257255E+04  0.7818608E-02  0.9064167E-01
         -1   -1    0    0    0  501 -0.00000000000E+00  0.00000000000E+00  0.31917854497E+03  0.31917854497E+03  0.00000000000E+00 0.  1.
          2   -1    0    0  501    0  0.00000000000E+00 -0.00000000000E+00 -0.12380914511E+04  0.12380914511E+04  0.00000000000E+00 0. -1.
         24    2    1    2    0    0 -0.17329881868E+03  0.11392441743E+02  0.77498464573E+02  0.20653702961E+03  0.80555970000E+02 0.  0.
        254    2    1    2    0    0  0.17329881868E+03 -0.11392441743E+02 -0.99641137066E+03  0.13507329664E+04  0.89525508026E+03 0.  0.
         23    2    4    4    0    0  0.37087749647E+03  0.14709217898E+03 -0.11401172155E+03  0.42839485728E+03  0.10647654479E+03 0.  0.
         23    2    4    4    0    0 -0.19757867779E+03 -0.15848462072E+03 -0.88239964911E+03  0.92233810914E+03  0.89015380174E+02 0.  0.
          2    1    3    3  502    0 -0.63755825599E+02  0.24728283128E+02 -0.52823248909E+01  0.68587143405E+02  0.00000000000E+00 0. -1.
         -1    1    3    3    0  502 -0.10954299308E+03 -0.13335841385E+02  0.82780789464E+02  0.13794988620E+03  0.00000000000E+00 0.  1.
         11    1    5    5    0    0  0.27825251100E+02  0.35205444912E+01 -0.40581797584E+02  0.49330732079E+02  0.00000000000E+00 0. -1.
        -11    1    5    5    0    0  0.34305224537E+03  0.14357163449E+03 -0.73429923968E+02  0.37906412520E+03  0.00000000000E+00 0.  1.
          3    1    6    6  503    0 -0.73245903746E+02 -0.42323584749E+02 -0.44576957851E+03  0.45372542949E+03  0.00000000000E+00 0. -1.
         -3    1    6    6    0  503 -0.12433277404E+03 -0.11616103597E+03 -0.43663007060E+03  0.46861267965E+03  0.00000000000E+00 0.  1.
<mgrwt>
<rscale>  0 0.12572545E+04</rscale>
<asrwt>0</asrwt>
<pdfrwt beam="1">  1        2 0.19047561E+00 0.12572545E+04</pdfrwt>
<pdfrwt beam="2">  1       -1 0.49104392E-01 0.12572545E+04</pdfrwt>
<totfact> 0.83666295E+01</totfact>
</mgrwt>
</event>
<event>
12    6  0.1663299E-008  0.3117647E+04  0.7818608E-02  0.8210911E-01
         -1   -1    0    0    0  501 -0.00000000000E+00  0.00000000000E+00  0.62561410869E+03  0.62561410869E+03  0.00000000000E+00 0.  1.
          2   -1    0    0  501    0  0.00000000000E+00 -0.00000000000E+00 -0.38840737631E+04  0.38840737631E+04  0.00000000000E+00 0. -1.
         24    2    1    2    0    0 -0.54302146855E+02  0.21138001166E+03  0.54736843956E+03  0.59455404433E+03  0.79070035533E+02 0.  0.
        254    2    1    2    0    0  0.54302146855E+02 -0.21138001166E+03 -0.38058280940E+04  0.39151338275E+04  0.89236493297E+03 0.  0.
         23    2    4    4    0    0  0.11662654287E+03 -0.34399053966E+03 -0.36843152660E+04  0.37025971588E+04  0.55816658749E+02 0.  0.
         23    2    4    4    0    0 -0.62324396011E+02  0.13261052801E+03 -0.12151282802E+03  0.21253666868E+03  0.94533516197E+02 0.  0.
          2    1    3    3  502    0 -0.66580768478E+02  0.11122948811E+03  0.34181007132E+03  0.36556685108E+03  0.00000000000E+00 0. -1.
         -1    1    3    3    0  502  0.12278621622E+02  0.10015052355E+03  0.20555836825E+03  0.22898719325E+03  0.00000000000E+00 0.  1.
         11    1    5    5    0    0  0.26867904912E+02 -0.43315509523E+02 -0.69188017726E+03  0.69375521430E+03  0.00000000000E+00 0.  1.
        -11    1    5    5    0    0  0.89758637954E+02 -0.30067503014E+03 -0.29924350887E+04  0.30088419445E+04  0.00000000000E+00 0. -1.
          1    1    6    6  503    0 -0.38047889852E+02  0.13353586358E+03 -0.12638722835E+03  0.18775835607E+03  0.00000000000E+00 0. -1.
         -1    1    6    6    0  503 -0.24276506159E+02 -0.92533557558E+00  0.48744003301E+01  0.24778312610E+02  0.00000000000E+00 0.  1.
<mgrwt>
<rscale>  0 0.31176474E+04</rscale>
<asrwt>0</asrwt>
<pdfrwt beam="1">  1        2 0.59754980E+00 0.31176474E+04</pdfrwt>
<pdfrwt beam="2">  1       -1 0.96248327E-01 0.31176474E+04</pdfrwt>
<totfact> 0.42298981E-01</totfact>
</mgrwt>
</event>
<event>
11    6  0.1663299E-008  0.1952548E+04  0.7818608E-02  0.8629133E-01
          2   -1    0    0  501    0  0.00000000000E+00  0.00000000000E+00  0.21391003041E+04  0.21391003041E+04  0.00000000000E+00 0. -1.
         -1   -1    0    0    0  501 -0.00000000000E+00 -0.00000000000E+00 -0.44556617874E+03  0.44556617874E+03  0.00000000000E+00 0.  1.
         24    2    1    2    0    0  0.19470764493E+03 -0.57477754217E+03  0.13471185647E+04  0.14796165627E+04  0.79097757182E+02 0.  0.
        254    2    1    2    0    0 -0.19470764493E+03  0.57477754217E+03  0.34641556065E+03  0.11050499202E+04  0.85606734281E+03 0.  0.
         23    2    4    4    0    0  0.11572719839E+03 -0.15949498545E+03  0.17852430320E+03  0.28023282650E+03  0.88476411456E+02 0.  0.
          4    1    3    3  502    0  0.80873438476E+02 -0.27060503743E+03  0.71944949550E+03  0.77290049548E+03  0.00000000000E+00 0. -1.
         -3    1    3    3    0  502  0.11383420645E+03 -0.30417250474E+03  0.62766906922E+03  0.70671606721E+03  0.00000000000E+00 0.  1.
         11    1    4    4    0    0 -0.98355515428E+02  0.12050670761E+03  0.64848407016E+01  0.15568470430E+03  0.00000000000E+00 0. -1.
        -11    1    4    4    0    0 -0.21207932789E+03  0.61376582001E+03  0.16140641674E+03  0.66913238937E+03  0.00000000000E+00 0.  1.
          3    1    5    5  503    0  0.25725229112E+02 -0.55995430760E+02  0.91661260482E+01  0.62300028456E+02  0.00000000000E+00 0. -1.
         -3    1    5    5    0  503  0.90001969277E+02 -0.10349955469E+03  0.16935817715E+03  0.21793279804E+03  0.00000000000E+00 0.  1.
<mgrwt>
<rscale>  0 0.19525478E+04</rscale>
<asrwt>0</asrwt>
<pdfrwt beam="1">  1        2 0.32909235E+00 0.19525478E+04</pdfrwt>
<pdfrwt beam="2">  1       -1 0.68548644E-01 0.19525478E+04</pdfrwt>
<totfact> 0.12778209E+01</totfact>
</mgrwt>
</event>
<event>
11    6  0.1663299E-008  0.1277716E+04  0.7818608E-02  0.9047426E-01
         -1   -1    0    0    0  501 -0.00000000000E+00  0.00000000000E+00  0.64469583913E+03  0.64469583913E+03  0.00000000000E+00 0.  1.
          2   -1    0    0  501    0  0.00000000000E+00 -0.00000000000E+00 -0.63307301681E+03  0.63307301681E+03  0.00000000000E+00 0. -1.
         24    2    1    2    0    0 -0.25762148507E+03  0.23701400784E+01  0.18006985059E+03  0.32402696776E+03  0.78701191937E+02 0.  0.
        254    2    1    2    0    0  0.25762148507E+03 -0.23701400784E+01 -0.16844702827E+03  0.95374188817E+03  0.90270412694E+03 0.  0.
         23    2    4    4    0    0 -0.26671702486E+03 -0.13558698276E+03 -0.17418545356E+03  0.35733706230E+03  0.88472609452E+02 0.  0.
          2    1    3    3  502    0 -0.13556297330E+02 -0.15311275041E+02  0.41494624662E+00  0.20454352131E+02  0.00000000000E+00 0. -1.
         -1    1    3    3    0  502 -0.24406518774E+03  0.17681415120E+02  0.17965490434E+03  0.30357261563E+03  0.00000000000E+00 0.  1.
         11    1    4    4    0    0  0.36816392796E+02 -0.31600091762E+02  0.61980660694E+02  0.78712228262E+02  0.00000000000E+00 0.  1.
        -11    1    4    4    0    0  0.48752211713E+03  0.16481693444E+03 -0.56242235406E+02  0.51769259761E+03  0.00000000000E+00 0. -1.
          4    1    5    5  503    0 -0.21251081537E+03 -0.14251107713E+03 -0.15632269649E+03  0.29984502530E+03  0.00000000000E+00 0. -1.
         -4    1    5    5    0  503 -0.54206209483E+02  0.69240943732E+01 -0.17862757065E+02  0.57492037009E+02  0.00000000000E+00 0.  1.
<mgrwt>
<rscale>  0 0.12777160E+04</rscale>
<asrwt>0</asrwt>
<pdfrwt beam="1">  1        2 0.97395849E-01 0.12777160E+04</pdfrwt>
<pdfrwt beam="2">  1       -1 0.99183975E-01 0.12777160E+04</pdfrwt>
<totfact> 0.50626050E+01</totfact>
</mgrwt>
</event>
<event>
11    6  0.1663299E-008  0.2478862E+04  0.7818608E-02  0.8410555E-01
         -1   -1    0    0    0  501 -0.00000000000E+00  0.00000000000E+00  0.60253329645E+03  0.60253329645E+03  0.00000000000E+00 0.  1.
          2   -1    0    0  501    0  0.00000000000E+00 -0.00000000000E+00 -0.25495503162E+04  0.25495503162E+04  0.00000000000E+00 0. -1.
         24    2    1    2    0    0  0.95895748570E+03  0.13354437573E+03 -0.25669071984E+03  0.10048940995E+04  0.80551014154E+02 0.  0.
        254    2    1    2    0    0 -0.95895748570E+03 -0.13354437573E+03 -0.16903263000E+04  0.21471895132E+04  0.90320886046E+03 0.  0.
         23    2    4    4    0    0 -0.10160871261E+04 -0.41604910539E+02 -0.14500769114E+04  0.17735032434E+04  0.91796998538E+02 0.  0.
          4    1    3    3  502    0  0.40768199323E+02  0.10238778563E+02 -0.28462701731E+02  0.50764200499E+02  0.00000000000E+00 0. -1.
         -3    1    3    3    0  502  0.91818928637E+03  0.12330559717E+03 -0.22822801811E+03  0.95412989899E+03  0.00000000000E+00 0.  1.
         11    1    4    4    0    0  0.12010460505E+03 -0.74993004291E+02 -0.26776971754E+03  0.30290211039E+03  0.00000000000E+00 0.  1.
        -11    1    4    4    0    0 -0.62974964693E+02 -0.16946460900E+02  0.27520329019E+02  0.70784159417E+02  0.00000000000E+00 0. -1.
          2    1    5    5  503    0 -0.11742869639E+03  0.83289909163E+01 -0.12551779083E+03  0.17208598618E+03  0.00000000000E+00 0. -1.
         -2    1    5    5    0  503 -0.89865842967E+03 -0.49933901455E+02 -0.13245591206E+04  0.16014172572E+04  0.00000000000E+00 0.  1.
<mgrwt>
<rscale>  0 0.24788618E+04</rscale>
<asrwt>0</asrwt>
<pdfrwt beam="1">  1        2 0.39223851E+00 0.24788618E+04</pdfrwt>
<pdfrwt beam="2">  1       -1 0.92697431E-01 0.24788618E+04</pdfrwt>
<totfact> 0.37441332E+00</totfact>
</mgrwt>
</event>
<event>
12    6  0.1663299E-008  0.1356217E+04  0.7818608E-02  0.8986135E-01
         -1   -1    0    0    0  501 -0.00000000000E+00  0.00000000000E+00  0.28461994275E+03  0.28461994275E+03  0.00000000000E+00 0.  1.
          2   -1    0    0  501    0  0.00000000000E+00 -0.00000000000E+00 -0.16155963532E+04  0.16155963532E+04  0.00000000000E+00 0. -1.
         24    2    1    2    0    0 -0.31084220251E+03 -0.44805753192E+02 -0.64889943783E+03  0.72481232365E+03  0.75179742790E+02 0.  0.
        254    2    1    2    0    0  0.31084220251E+03  0.44805753192E+02 -0.68207697260E+03  0.11754039723E+04  0.90427599277E+03 0.  0.
         23    2    4    4    0    0 -0.11727967295E+03 -0.31153673884E+03 -0.10145537928E+03  0.36561800230E+03  0.11213236952E+03 0.  0.
         23    2    4    4    0    0  0.42812187546E+03  0.35634249203E+03 -0.58062159332E+03  0.80978596996E+03  0.91452559532E+02 0.  0.
          4    1    3    3  502    0 -0.30300965226E+03 -0.34833421491E+02 -0.64101841468E+03  0.70988226107E+03  0.00000000000E+00 0. -1.
         -3    1    3    3    0  502 -0.78325502498E+01 -0.99723317014E+01 -0.78810231425E+01  0.14930062584E+02  0.00000000000E+00 0.  1.
         11    1    5    5    0    0  0.98800868561E+01 -0.99739432247E+02 -0.47931870053E+01  0.10034214021E+03  0.00000000000E+00 0. -1.
        -11    1    5    5    0    0 -0.12715975981E+03 -0.21179730659E+03 -0.96662192272E+02  0.26527586209E+03  0.00000000000E+00 0.  1.
          4    1    6    6  503    0  0.10514714901E+03  0.53895303901E+02 -0.16324213955E+03  0.20151581291E+03  0.00000000000E+00 0. -1.
         -4    1    6    6    0  503  0.32297472645E+03  0.30244718813E+03 -0.41737945377E+03  0.60827015705E+03  0.00000000000E+00 0.  1.
<mgrwt>
<rscale>  0 0.13562167E+04</rscale>
<asrwt>0</asrwt>
<pdfrwt beam="1">  1        2 0.24855328E+00 0.13562167E+04</pdfrwt>
<pdfrwt beam="2">  1       -1 0.43787684E-01 0.13562167E+04</pdfrwt>
<totfact> 0.62648943E+01</totfact>
</mgrwt>
</event>
<event>
11    6  0.1663299E-008  0.2019262E+04  0.7818608E-02  0.8597668E-01
         -1   -1    0    0    0  501 -0.00000000000E+00  0.00000000000E+00  0.58172444318E+03  0.58172444318E+03  0.00000000000E+00 0.  1.
          2   -1    0    0  501    0  0.00000000000E+00 -0.00000000000E+00 -0.17522984171E+04  0.17522984171E+04  0.00000000000E+00 0. -1.
         24    2    1    2    0    0  0.16487346760E+03  0.59545516225E+03  0.12909081331E+03  0.63619813282E+03  0.79583387480E+02 0.  0.
        254    2    1    2    0    0 -0.16487346760E+03 -0.59545516225E+03 -0.12996647873E+04  0.16978247275E+04  0.90096067363E+03 0.  0.
         23    2    4    4    0    0 -0.24336577436E+03  0.10791498174E+03 -0.11760478726E+03  0.30485856110E+03  0.90748624671E+02 0.  0.
          4    1    3    3  502    0  0.14403050083E+03  0.40661545579E+03  0.11053492119E+03  0.44530762722E+03  0.00000000000E+00 0. -1.
         -3    1    3    3    0  502  0.20842966776E+02  0.18883970645E+03  0.18555892122E+02  0.19089050560E+03  0.00000000000E+00 0.  1.
         11    1    4    4    0    0  0.91911177780E+02 -0.12449994233E+03 -0.19947094662E+03  0.25246100449E+03  0.00000000000E+00 0. -1.
        -11    1    4    4    0    0 -0.13418871026E+02 -0.57887020166E+03 -0.98258905340E+03  0.11405051619E+04  0.00000000000E+00 0.  1.
          4    1    5    5  503    0 -0.82866791142E+01 -0.67024239077E+01  0.93160438257E+01  0.14155571678E+02  0.00000000000E+00 0. -1.
         -4    1    5    5    0  503 -0.23507909524E+03  0.11461740565E+03 -0.12692083108E+03  0.29070298942E+03  0.00000000000E+00 0.  1.
<mgrwt>
<rscale>  0 0.20192621E+04</rscale>
<asrwt>0</asrwt>
<pdfrwt beam="1">  1        2 0.26958437E+00 0.20192621E+04</pdfrwt>
<pdfrwt beam="2">  1       -1 0.89496069E-01 0.20192621E+04</pdfrwt>
<totfact> 0.11849221E+01</totfact>
</mgrwt>
</event>
<event>
12    6  0.1663299E-008  0.2389810E+04  0.7818608E-02  0.8443328E-01
          2   -1    0    0  501    0  0.00000000000E+00  0.00000000000E+00  0.10174727144E+04  0.10174727144E+04  0.00000000000E+00 0. -1.
         -1   -1    0    0    0  501 -0.00000000000E+00 -0.00000000000E+00 -0.14032793190E+04  0.14032793190E+04  0.00000000000E+00 0.  1.
         24    2    1    2    0    0  0.89660146026E+03  0.27080629088E+03  0.26966069110E+03  0.97798377445E+03  0.80654504104E+02 0.  0.
        254    2    1    2    0    0 -0.89660146026E+03 -0.27080629088E+03 -0.65546729569E+03  0.14427682589E+04  0.88017762274E+03 0.  0.
         23    2    4    4    0    0 -0.38449011957E+03 -0.95683719356E+02  0.17399906299E+03  0.44724646059E+03  0.11298538131E+03 0.  0.
         23    2    4    4    0    0 -0.51211134069E+03 -0.17512257152E+03 -0.82946635868E+03  0.99552179835E+03  0.10061446468E+03 0.  0.
          4    1    3    3  502    0  0.57911694163E+03  0.14020840674E+03  0.19193935641E+03  0.62599963734E+03  0.00000000000E+00 0. -1.
         -3    1    3    3    0  502  0.31748451863E+03  0.13059788414E+03  0.77721334694E+02  0.35198413711E+03  0.00000000000E+00 0.  1.
         11    1    5    5    0    0 -0.38198400586E+03 -0.74869415566E+02  0.15507939768E+03  0.41900695663E+03  0.00000000000E+00 0. -1.
        -11    1    5    5    0    0 -0.25061137082E+01 -0.20814303790E+02  0.18919665311E+02  0.28239503956E+02  0.00000000000E+00 0.  1.
          3    1    6    6  503    0 -0.36738036166E+03 -0.85921088486E+02 -0.61958576543E+03  0.72542214214E+03  0.00000000000E+00 0. -1.
         -3    1    6    6    0  503 -0.14473097904E+03 -0.89201483034E+02 -0.20988059324E+03  0.27009965622E+03  0.00000000000E+00 0.  1.
<mgrwt>
<rscale>  0 0.23898104E+04</rscale>
<asrwt>0</asrwt>
<pdfrwt beam="1">  1        2 0.15653426E+00 0.23898104E+04</pdfrwt>
<pdfrwt beam="2">  1       -1 0.21588912E+00 0.23898104E+04</pdfrwt>
<totfact> 0.29541172E+00</totfact>
</mgrwt>
</event>
<event>
12    6  0.1663299E-008  0.1322001E+04  0.7818608E-02  0.9012298E-01
         -1   -1    0    0    0  501 -0.00000000000E+00  0.00000000000E+00  0.20948950927E+03  0.20948950927E+03  0.00000000000E+00 0.  1.
          2   -1    0    0  501    0  0.00000000000E+00 -0.00000000000E+00 -0.20856487064E+04  0.20856487064E+04  0.00000000000E+00 0. -1.
         24    2    1    2    0    0  0.46839927447E+02  0.28843151929E+03 -0.83980769030E+03  0.89262754717E+03  0.78232098000E+02 0.  0.
        254    2    1    2    0    0 -0.46839927447E+02 -0.28843151929E+03 -0.10363515069E+04  0.14025106685E+04  0.89867959220E+03 0.  0.
         23    2    4    4    0    0  0.19977163829E+03 -0.51126764912E+03 -0.84207678875E+03  0.10069224513E+04  0.59128574811E+02 0.  0.
         23    2    4    4    0    0 -0.24661156573E+03  0.22283612983E+03 -0.19427471811E+03  0.39558821719E+03  0.90962444822E+02 0.  0.
          2    1    3    3  502    0  0.64782278518E+02  0.26169564520E+03 -0.72974918518E+03  0.77795580054E+03  0.00000000000E+00 0. -1.
         -1    1    3    3    0  502 -0.17942351071E+02  0.26735874082E+02 -0.11005850512E+03  0.11467174663E+03  0.00000000000E+00 0.  1.
         11    1    5    5    0    0  0.90859628845E+02 -0.15744106350E+03 -0.28633161915E+03  0.33915919088E+03  0.00000000000E+00 0.  1.
        -11    1    5    5    0    0  0.10891200944E+03 -0.35382658562E+03 -0.55574516960E+03  0.66776326046E+03  0.00000000000E+00 0. -1.
          2    1    6    6  503    0 -0.16424020814E+03  0.19562052448E+03 -0.12394177662E+03  0.28390808294E+03  0.00000000000E+00 0. -1.
         -2    1    6    6    0  503 -0.82371357590E+02  0.27215605353E+02 -0.70332941493E+02  0.11168013424E+03  0.00000000000E+00 0.  1.
<mgrwt>
<rscale>  0 0.13220008E+04</rscale>
<asrwt>0</asrwt>
<pdfrwt beam="1">  1        2 0.32086902E+00 0.13220008E+04</pdfrwt>
<pdfrwt beam="2">  1       -1 0.32229157E-01 0.13220008E+04</pdfrwt>
<totfact> 0.60066069E+01</totfact>
</mgrwt>
</event>
<event>
11    6  0.1663299E-008  0.1313692E+04  0.7818608E-02  0.9018778E-01
          2   -1    0    0  501    0  0.00000000000E+00  0.00000000000E+00  0.61397993876E+03  0.61397993876E+03  0.00000000000E+00 0. -1.
         -1   -1    0    0    0  501 -0.00000000000E+00 -0.00000000000E+00 -0.70270443127E+03  0.70270443127E+03  0.00000000000E+00 0.  1.
         24    2    1    2    0    0  0.81295142983E+02 -0.29319687760E+03  0.17627314566E+03  0.36081697822E+03  0.80891041414E+02 0.  0.
        254    2    1    2    0    0 -0.81295142983E+02  0.29319687760E+03 -0.26499763817E+03  0.95586739181E+03  0.86653644654E+03 0.  0.
         23    2    4    4    0    0 -0.29748081284E+03  0.41950186700E+03 -0.43449294950E+02  0.52265301940E+03  0.82472341050E+02 0.  0.
          4    1    3    3  502    0 -0.90001088569E+01 -0.42382176138E+02  0.49034885868E+02  0.65434477500E+02  0.00000000000E+00 0. -1.
         -3    1    3    3    0  502  0.90295251840E+02 -0.25081470146E+03  0.12723825979E+03  0.29538250072E+03  0.00000000000E+00 0.  1.
         11    1    4    4    0    0  0.26128036841E+03 -0.12317176638E+03 -0.24810966079E+03  0.38078487198E+03  0.00000000000E+00 0. -1.
        -11    1    4    4    0    0 -0.45094698557E+02 -0.31332230153E+01  0.26561317565E+02  0.52429500429E+02  0.00000000000E+00 0.  1.
          4    1    5    5  503    0 -0.11301548952E+03  0.10617775432E+03  0.88385023778E+01  0.15532010658E+03  0.00000000000E+00 0. -1.
         -4    1    5    5    0  503 -0.18446532331E+03  0.31332411268E+03 -0.52287797328E+02  0.36733291282E+03  0.00000000000E+00 0.  1.
<mgrwt>
<rscale>  0 0.13136916E+04</rscale>
<asrwt>0</asrwt>
<pdfrwt beam="1">  1        2 0.94458452E-01 0.13136916E+04</pdfrwt>
<pdfrwt beam="2">  1       -1 0.10810837E+00 0.13136916E+04</pdfrwt>
<totfact> 0.42928975E+01</totfact>
</mgrwt>
</event>
<event>
11    6  0.1663299E-008  0.2340395E+04  0.7818608E-02  0.8462162E-01
          2   -1    0    0  501    0  0.00000000000E+00  0.00000000000E+00  0.81696216986E+03  0.81696216986E+03  0.00000000000E+00 0. -1.
         -1   -1    0    0    0  501 -0.00000000000E+00 -0.00000000000E+00 -0.16761637968E+04  0.16761637968E+04  0.00000000000E+00 0.  1.
         24    2    1    2    0    0  0.63104484917E+03  0.56405744435E+03  0.20731017422E+03  0.87511921009E+03  0.80484292527E+02 0.  0.
        254    2    1    2    0    0 -0.63104484917E+03 -0.56405744435E+03 -0.10665118012E+04  0.16180067566E+04  0.87413959993E+03 0.  0.
         23    2    4    4    0    0 -0.62146178526E+03 -0.21840577270E+03 -0.72729867208E+03  0.98535273141E+03  0.89670590504E+02 0.  0.
          4    1    3    3  502    0  0.56467948600E+03  0.51242454228E+03  0.16177199197E+03  0.77949471507E+03  0.00000000000E+00 0. -1.
         -3    1    3    3    0  502  0.66365363169E+02  0.51632902077E+02  0.45538182252E+02  0.95624495022E+02  0.00000000000E+00 0.  1.
         11    1    4    4    0    0 -0.18338523555E+03 -0.51313859757E+02 -0.14641107767E+03  0.24020711997E+03  0.00000000000E+00 0.  1.
        -11    1    4    4    0    0  0.17380217164E+03 -0.29433781190E+03 -0.19280205144E+03  0.39244690523E+03  0.00000000000E+00 0. -1.
          1    1    5    5  503    0 -0.58560219877E+03 -0.19821253784E+03 -0.64562191892E+03  0.89389362206E+03  0.00000000000E+00 0. -1.
         -1    1    5    5    0  503 -0.35859586490E+02 -0.20193234858E+02 -0.81676753158E+02  0.91459109353E+02  0.00000000000E+00 0.  1.
<mgrwt>
<rscale>  0 0.23403952E+04</rscale>
<asrwt>0</asrwt>
<pdfrwt beam="1">  1        2 0.12568649E+00 0.23403952E+04</pdfrwt>
<pdfrwt beam="2">  1       -1 0.25787135E+00 0.23403952E+04</pdfrwt>
<totfact> 0.21385145E+00</totfact>
</mgrwt>
</event>
<event>
11    6  0.1663299E-008  0.1988754E+04  0.7818608E-02  0.8611897E-01
          2   -1    0    0  501    0  0.00000000000E+00  0.00000000000E+00  0.37535382234E+04  0.37535382234E+04  0.00000000000E+00 0. -1.
         -1   -1    0    0    0  501 -0.00000000000E+00 -0.00000000000E+00 -0.26342757873E+03  0.26342757873E+03  0.00000000000E+00 0.  1.
         24    2    1    2    0    0  0.82096596734E+02  0.63562131090E+02  0.29339860330E+04  0.29368662514E+04  0.78290107590E+02 0.  0.
        254    2    1    2    0    0 -0.82096596734E+02 -0.63562131090E+02  0.55612461162E+03  0.10800995507E+04  0.92008720243E+03 0.  0.
         23    2    4    4    0    0  0.23481619835E+03 -0.30488828708E+03  0.52618322225E+03  0.65782854770E+03  0.88170857895E+02 0.  0.
          4    1    3    3  502    0  0.79372314565E+02  0.80276029667E+02  0.26042152926E+04  0.26066609859E+04  0.00000000000E+00 0. -1.
         -3    1    3    3    0  502  0.27242821692E+01 -0.16713898576E+02  0.32977074045E+03  0.33020526551E+03  0.00000000000E+00 0.  1.
         11    1    4    4    0    0 -0.68078612537E+02  0.28997705688E+02  0.57913855512E+02  0.93965839965E+02  0.00000000000E+00 0.  1.
        -11    1    4    4    0    0 -0.24883418255E+03  0.21232845030E+03 -0.27972466148E+02  0.32830516304E+03  0.00000000000E+00 0. -1.
          3    1    5    5  503    0  0.11048764225E+03 -0.16493865268E+03  0.34056838327E+03  0.39420692779E+03  0.00000000000E+00 0. -1.
         -3    1    5    5    0  503  0.12432855610E+03 -0.13994963441E+03  0.18561483898E+03  0.26362161991E+03  0.00000000000E+00 0.  1.
<mgrwt>
<rscale>  0 0.19887539E+04</rscale>
<asrwt>0</asrwt>
<pdfrwt beam="1">  1        2 0.57746738E+00 0.19887539E+04</pdfrwt>
<pdfrwt beam="2">  1       -1 0.40527323E-01 0.19887539E+04</pdfrwt>
<totfact> 0.33784469E+00</totfact>
</mgrwt>
</event>
<event>
12    6  0.1663299E-008  0.1268029E+04  0.7818608E-02  0.9055310E-01
          2   -1    0    0  501    0  0.00000000000E+00  0.00000000000E+00  0.83648858308E+03  0.83648858308E+03  0.00000000000E+00 0. -1.
         -1   -1    0    0    0  501 -0.00000000000E+00 -0.00000000000E+00 -0.48054973281E+03  0.48054973281E+03  0.00000000000E+00 0.  1.
         24    2    1    2    0    0 -0.82383824443E+02  0.25479379920E+03  0.17336972170E+03  0.32871331767E+03  0.79299496675E+02 0.  0.
        254    2    1    2    0    0  0.82383824443E+02 -0.25479379920E+03  0.18256912857E+03  0.98832499823E+03  0.93367437620E+03 0.  0.
         23    2    4    4    0    0  0.54866136522E+02 -0.45216335559E+03  0.44494798228E+03  0.64573589752E+03  0.10739715701E+03 0.  0.
         23    2    4    4    0    0  0.27517687920E+02  0.19736955639E+03 -0.26237885371E+03  0.34258910070E+03  0.93875790839E+02 0.  0.
          4    1    3    3  502    0 -0.62819847649E+02  0.18602179116E+03  0.82212090244E+02  0.21285973745E+03  0.00000000000E+00 0. -1.
         -3    1    3    3    0  502 -0.19563976793E+02  0.68772008039E+02  0.91157631454E+02  0.11585358022E+03  0.00000000000E+00 0.  1.
         11    1    5    5    0    0  0.74199158654E+02 -0.36613023353E+03  0.39792331280E+03  0.54580200249E+03  0.00000000000E+00 0.  1.
        -11    1    5    5    0    0 -0.19333022132E+02 -0.86033122066E+02  0.47024669480E+02  0.99933895035E+02  0.00000000000E+00 0. -1.
          4    1    6    6  503    0 -0.57547121318E+00  0.40487489734E+02 -0.63209527104E+01  0.40981976956E+02  0.00000000000E+00 0. -1.
         -4    1    6    6    0  503  0.28093159134E+02  0.15688206666E+03 -0.25605790100E+03  0.30160712375E+03  0.00000000000E+00 0.  1.
<mgrwt>
<rscale>  0 0.12680290E+04</rscale>
<asrwt>0</asrwt>
<pdfrwt beam="1">  1        2 0.12869055E+00 0.12680290E+04</pdfrwt>
<pdfrwt beam="2">  1       -1 0.73930728E-01 0.12680290E+04</pdfrwt>
<totfact> 0.67039088E+01</totfact>
</mgrwt>
</event>
<event>
12    6  0.1663299E-008  0.2769622E+04  0.7818608E-02  0.8312762E-01
          2   -1    0    0  501    0  0.00000000000E+00  0.00000000000E+00  0.12283199175E+04  0.12283199175E+04  0.00000000000E+00 0. -1.
         -1   -1    0    0    0  501 -0.00000000000E+00 -0.00000000000E+00 -0.15612393640E+04  0.15612393640E+04  0.00000000000E+00 0.  1.
         24    2    1    2    0    0 -0.25468029867E+02 -0.12052892512E+04  0.17357789291E+03  0.12206554484E+04  0.80620339799E+02 0.  0.
        254    2    1    2    0    0  0.25468029867E+02  0.12052892512E+04 -0.50649733947E+03  0.15689038332E+04  0.86691919080E+03 0.  0.
         23    2    4    4    0    0 -0.15848683402E+03  0.43002138296E+03  0.18950512471E+03  0.50718403299E+03  0.10624022150E+03 0.  0.
         23    2    4    4    0    0  0.18395486388E+03  0.77526786819E+03 -0.69600246418E+03  0.10617198002E+04  0.89161900935E+02 0.  0.
          2    1    3    3  502    0 -0.36964093957E+02 -0.85823303707E+03  0.15509468672E+03  0.87291732255E+03  0.00000000000E+00 0. -1.
         -1    1    3    3    0  502  0.11496064091E+02 -0.34705621408E+03  0.18483206187E+02  0.34773812580E+03  0.00000000000E+00 0.  1.
         11    1    5    5    0    0 -0.16264716296E+03  0.35624427037E+03  0.18510068465E+03  0.43315856594E+03  0.00000000000E+00 0.  1.
        -11    1    5    5    0    0  0.41603289444E+01  0.73777112592E+02  0.44044400641E+01  0.74025467048E+02  0.00000000000E+00 0. -1.
          4    1    6    6  503    0  0.31891887790E+02  0.25330145793E+03 -0.18191602707E+03  0.31348391028E+03  0.00000000000E+00 0. -1.
         -4    1    6    6    0  503  0.15206297609E+03  0.52196641026E+03 -0.51408643711E+03  0.74823588992E+03  0.00000000000E+00 0.  1.
<mgrwt>
<rscale>  0 0.27696219E+04</rscale>
<asrwt>0</asrwt>
<pdfrwt beam="1">  1        2 0.18897229E+00 0.27696219E+04</pdfrwt>
<pdfrwt beam="2">  1       -1 0.24019067E+00 0.27696219E+04</pdfrwt>
<totfact> 0.14637762E+00</totfact>
</mgrwt>
</event>
<event>
12    6  0.1663299E-008  0.1313025E+04  0.7818608E-02  0.9019299E-01
         -1   -1    0    0    0  501 -0.00000000000E+00  0.00000000000E+00  0.22906345700E+03  0.22906345700E+03  0.00000000000E+00 0.  1.
          2   -1    0    0  501    0  0.00000000000E+00 -0.00000000000E+00 -0.18816132126E+04  0.18816132126E+04  0.00000000000E+00 0. -1.
         24    2    1    2    0    0  0.80051638589E+02 -0.25877539157E+03 -0.10924487414E+03  0.30268370270E+03  0.79435591695E+02 0.  0.
        254    2    1    2    0    0 -0.80051638589E+02  0.25877539157E+03 -0.15433048814E+04  0.18079929669E+04  0.90203971260E+03 0.  0.
         23    2    4    4    0    0  0.25786804230E+03 -0.21916205586E+03 -0.65179233477E+03  0.73755531958E+03  0.68019613484E+02 0.  0.
         23    2    4    4    0    0 -0.33791968089E+03  0.47793744743E+03 -0.89151254667E+03  0.10704376473E+04  0.91805345694E+02 0.  0.
          4    1    3    3  502    0  0.81158273066E+02 -0.14545303779E+03 -0.84139648996E+02  0.18660849933E+03  0.00000000000E+00 0. -1.
         -3    1    3    3    0  502 -0.11066344767E+01 -0.11332235378E+03 -0.25105225140E+02  0.11607520336E+03  0.00000000000E+00 0.  1.
         11    1    5    5    0    0  0.47090320830E+02 -0.77912848568E+02 -0.18853272918E+03  0.20936212709E+03  0.00000000000E+00 0.  1.
        -11    1    5    5    0    0  0.21077772147E+03 -0.14124920729E+03 -0.46325960558E+03  0.52819319249E+03  0.00000000000E+00 0. -1.
          1    1    6    6  503    0 -0.20860043360E+03  0.23908408054E+03 -0.53848725059E+03  0.62501508582E+03  0.00000000000E+00 0. -1.
         -1    1    6    6    0  503 -0.12931924729E+03  0.23885336689E+03 -0.35302529608E+03  0.44542256147E+03  0.00000000000E+00 0.  1.
<mgrwt>
<rscale>  0 0.13130253E+04</rscale>
<asrwt>0</asrwt>
<pdfrwt beam="1">  1        2 0.28947896E+00 0.13130253E+04</pdfrwt>
<pdfrwt beam="2">  1       -1 0.35240532E-01 0.13130253E+04</pdfrwt>
<totfact> 0.66500052E+01</totfact>
</mgrwt>
</event>
<event>
12    6  0.1663299E-008  0.1486487E+04  0.7818608E-02  0.8893489E-01
         -1   -1    0    0    0  501 -0.00000000000E+00  0.00000000000E+00  0.51296385754E+03  0.51296385754E+03  0.00000000000E+00 0.  1.
          2   -1    0    0  501    0  0.00000000000E+00 -0.00000000000E+00 -0.10768999223E+04  0.10768999223E+04  0.00000000000E+00 0. -1.
         24    2    1    2    0    0  0.28305088736E+03 -0.84352257788E+02 -0.56558678048E+03  0.64336499977E+03  0.82443971561E+02 0.  0.
        254    2    1    2    0    0 -0.28305088736E+03  0.84352257788E+02  0.16507157472E+01  0.94649878004E+03  0.89923529041E+03 0.  0.
         23    2    4    4    0    0 -0.42044466571E+03 -0.21630780824E+03 -0.22583495630E+03  0.53504801782E+03  0.10822277513E+03 0.  0.
         23    2    4    4    0    0  0.13739377835E+03  0.30066006603E+03  0.22748567205E+03  0.41145076222E+03  0.90931144915E+02 0.  0.
          2    1    3    3  502    0  0.13185766944E+03 -0.81899906920E+02 -0.29832386308E+03  0.33629030171E+03  0.00000000000E+00 0. -1.
         -1    1    3    3    0  502  0.15119321792E+03 -0.24523508683E+01 -0.26726291740E+03  0.30707469806E+03  0.00000000000E+00 0.  1.
         11    1    5    5    0    0 -0.33655165224E+03 -0.15754299040E+03 -0.12697770322E+03  0.39269599637E+03  0.00000000000E+00 0. -1.
        -11    1    5    5    0    0 -0.83893013473E+02 -0.58764817837E+02 -0.98857253077E+02  0.14235202145E+03  0.00000000000E+00 0.  1.
          1    1    6    6  503    0  0.14356740129E+03  0.22507637908E+03  0.17446082999E+03  0.31891622149E+03  0.00000000000E+00 0. -1.
         -1    1    6    6    0  503 -0.61736229387E+01  0.75583686943E+02  0.53024842060E+02  0.92534540727E+02  0.00000000000E+00 0.  1.
<mgrwt>
<rscale>  0 0.14864868E+04</rscale>
<asrwt>0</asrwt>
<pdfrwt beam="1">  1        2 0.16567691E+00 0.14864868E+04</pdfrwt>
<pdfrwt beam="2">  1       -1 0.78917517E-01 0.14864868E+04</pdfrwt>
<totfact> 0.39896945E+01</totfact>
</mgrwt>
</event>
<event>
12    6  0.1663299E-008  0.2397526E+04  0.7818608E-02  0.8440431E-01
         -1   -1    0    0    0  501 -0.00000000000E+00  0.00000000000E+00  0.41259272596E+03  0.41259272596E+03  0.00000000000E+00 0.  1.
          2   -1    0    0  501    0  0.00000000000E+00 -0.00000000000E+00 -0.34829314089E+04  0.34829314089E+04  0.00000000000E+00 0. -1.
         24    2    1    2    0    0  0.89160185361E+03 -0.35858317433E+03 -0.19379084350E+04  0.21647835627E+04  0.85223309962E+02 0.  0.
        254    2    1    2    0    0 -0.89160185361E+03  0.35858317433E+03 -0.11324302479E+04  0.17307405721E+04  0.88855438965E+03 0.  0.
         23    2    4    4    0    0 -0.72322179127E+03  0.13089969723E+03 -0.12130487162E+04  0.14221871443E+04  0.10461641956E+03 0.  0.
         23    2    4    4    0    0 -0.16838006234E+03  0.22768347711E+03  0.80618468339E+02  0.30855342786E+03  0.92272798090E+02 0.  0.
          4    1    3    3  502    0  0.47178476149E+03 -0.14891550812E+03 -0.10382365948E+04  0.11500834390E+04  0.00000000000E+00 0. -1.
         -3    1    3    3    0  502  0.41981709213E+03 -0.20966766622E+03 -0.89967184023E+03  0.10147001238E+04  0.00000000000E+00 0.  1.
         11    1    5    5    0    0 -0.30312213159E+03  0.69594661253E+01 -0.45719682287E+03  0.54859857426E+03  0.00000000000E+00 0. -1.
        -11    1    5    5    0    0 -0.42009965968E+03  0.12394023110E+03 -0.75585189335E+03  0.87358857000E+03  0.00000000000E+00 0.  1.
          3    1    6    6  503    0 -0.59576406704E+02  0.15490612120E+03  0.32699251869E+02  0.16915819725E+03  0.00000000000E+00 0. -1.
         -3    1    6    6    0  503 -0.10880365563E+03  0.72777355902E+02  0.47919216469E+02  0.13939523062E+03  0.00000000000E+00 0.  1.
<mgrwt>
<rscale>  0 0.23975255E+04</rscale>
<asrwt>0</asrwt>
<pdfrwt beam="1">  1        2 0.53583559E+00 0.23975255E+04</pdfrwt>
<pdfrwt beam="2">  1       -1 0.63475805E-01 0.23975255E+04</pdfrwt>
<totfact> 0.21559950E+00</totfact>
</mgrwt>
</event>
<event>
11    6  0.1663299E-008  0.1105192E+04  0.7818608E-02  0.9200146E-01
         -1   -1    0    0    0  501 -0.00000000000E+00  0.00000000000E+00  0.15474718387E+03  0.15474718387E+03  0.00000000000E+00 0.  1.
          2   -1    0    0  501    0  0.00000000000E+00 -0.00000000000E+00 -0.19732983330E+04  0.19732983330E+04  0.00000000000E+00 0. -1.
         24    2    1    2    0    0  0.69766875343E+02 -0.66672973589E+02 -0.86942864180E+02  0.15380680786E+03  0.82369716576E+02 0.  0.
        254    2    1    2    0    0 -0.69766875343E+02  0.66672973589E+02 -0.17316082849E+04  0.19742387090E+04  0.94331252792E+03 0.  0.
         23    2    4    4    0    0 -0.38926940546E+03  0.14125140814E+03 -0.40914940775E+03  0.59012028033E+03  0.96726816713E+02 0.  0.
          2    1    3    3  502    0 -0.16392575747E+02 -0.12755846950E+02 -0.32322454169E+02  0.38420947601E+02  0.00000000000E+00 0. -1.
         -1    1    3    3    0  502  0.86159451090E+02 -0.53917126639E+02 -0.54620410011E+02  0.11538586026E+03  0.00000000000E+00 0.  1.
         11    1    4    4    0    0  0.53164802092E+02  0.66751659787E+02 -0.51858979365E+03  0.52556412962E+03  0.00000000000E+00 0. -1.
        -11    1    4    4    0    0  0.26633772803E+03 -0.14133009433E+03 -0.80386908355E+03  0.85855429905E+03  0.00000000000E+00 0.  1.
          3    1    5    5  503    0 -0.11345340462E+03  0.85581589240E+02 -0.16320184565E+03  0.21640408004E+03  0.00000000000E+00 0. -1.
         -3    1    5    5    0  503 -0.27581600084E+03  0.55669818896E+02 -0.24594756210E+03  0.37371620029E+03  0.00000000000E+00 0.  1.
<mgrwt>
<rscale>  0 0.11051920E+04</rscale>
<asrwt>0</asrwt>
<pdfrwt beam="1">  1        2 0.30358436E+00 0.11051920E+04</pdfrwt>
<pdfrwt beam="2">  1       -1 0.23807259E-01 0.11051920E+04</pdfrwt>
<totfact> 0.11928901E+02</totfact>
</mgrwt>
</event>
<event>
12    6  0.1663299E-008  0.2252183E+04  0.7818608E-02  0.8497017E-01
          2   -1    0    0  501    0  0.00000000000E+00  0.00000000000E+00  0.23912279423E+04  0.23912279423E+04  0.00000000000E+00 0. -1.
         -1   -1    0    0    0  501 -0.00000000000E+00 -0.00000000000E+00 -0.53030588195E+03  0.53030588195E+03  0.00000000000E+00 0.  1.
         24    2    1    2    0    0  0.54898655038E+03 -0.44813582286E+03  0.15905827385E+04  0.17431147072E+04  0.79268443831E+02 0.  0.
        254    2    1    2    0    0 -0.54898655038E+03  0.44813582286E+03  0.27033932183E+03  0.11784191170E+04  0.90187378178E+03 0.  0.
         23    2    4    4    0    0 -0.61394177587E+03  0.52968655883E+03 -0.59397589062E+02  0.82111957337E+03  0.11496488780E+03 0.  0.
         23    2    4    4    0    0  0.64955225491E+02 -0.81550735971E+02  0.32973691090E+03  0.35729954367E+03  0.89815531197E+02 0.  0.
          4    1    3    3  502    0  0.52263824708E+02 -0.76475098674E+02  0.21586134158E+03  0.23489586390E+03  0.00000000000E+00 0. -1.
         -3    1    3    3    0  502  0.49672272567E+03 -0.37166072419E+03  0.13747213970E+04  0.15082188433E+04  0.00000000000E+00 0.  1.
         11    1    5    5    0    0 -0.51513796488E+03  0.40618414840E+03 -0.12425298890E+02  0.65613037830E+03  0.00000000000E+00 0. -1.
        -11    1    5    5    0    0 -0.98803810991E+02  0.12350241043E+03 -0.46972290172E+02  0.16498919507E+03  0.00000000000E+00 0.  1.
          2    1    6    6  503    0  0.44932179628E+02 -0.90517109709E+02  0.31514496781E+03  0.33095105175E+03  0.00000000000E+00 0. -1.
         -2    1    6    6    0  503  0.20023045863E+02  0.89663737389E+01  0.14591943087E+02  0.26348491925E+02  0.00000000000E+00 0.  1.
<mgrwt>
<rscale>  0 0.22521832E+04</rscale>
<asrwt>0</asrwt>
<pdfrwt beam="1">  1        2 0.36788122E+00 0.22521832E+04</pdfrwt>
<pdfrwt beam="2">  1       -1 0.81585522E-01 0.22521832E+04</pdfrwt>
<totfact> 0.62298487E+00</totfact>
</mgrwt>
</event>
<event>
11    6  0.1663299E-008  0.1942665E+04  0.7818608E-02  0.8633906E-01
          2   -1    0    0  501    0  0.00000000000E+00  0.00000000000E+00  0.80876388497E+03  0.80876388497E+03  0.00000000000E+00 0. -1.
         -1   -1    0    0    0  501 -0.00000000000E+00 -0.00000000000E+00 -0.11665787091E+04  0.11665787091E+04  0.00000000000E+00 0.  1.
         24    2    1    2    0    0  0.49298130837E+03 -0.57091255505E+03 -0.94171849526E+02  0.76430506131E+03  0.79512097087E+02 0.  0.
        254    2    1    2    0    0 -0.49298130837E+03  0.57091255505E+03 -0.26364297461E+03  0.12110375328E+04  0.91001789640E+03 0.  0.
         23    2    4    4    0    0 -0.17681435888E+03  0.49916788380E+03  0.25684528120E+03  0.59556071517E+03  0.91055879851E+02 0.  0.
          2    1    3    3  502    0  0.35471131967E+00  0.98878367267E+00 -0.39802171423E+01  0.41165084443E+01  0.00000000000E+00 0. -1.
         -1    1    3    3    0  502  0.49262659705E+03 -0.57190133872E+03 -0.90191632383E+02  0.76018855287E+03  0.00000000000E+00 0.  1.
         11    1    4    4    0    0 -0.79628387177E+01  0.12084755394E+02 -0.20116262033E+02  0.24781285510E+02  0.00000000000E+00 0. -1.
        -11    1    4    4    0    0 -0.30820411078E+03  0.59659915852E+02 -0.50037199378E+03  0.59069553208E+03  0.00000000000E+00 0.  1.
          4    1    5    5  503    0 -0.91662056797E+02  0.19648489055E+03  0.14929272171E+03  0.26324240089E+03  0.00000000000E+00 0. -1.
         -4    1    5    5    0  503 -0.85152302081E+02  0.30268299326E+03  0.10755255949E+03  0.33231831428E+03  0.00000000000E+00 0.  1.
<mgrwt>
<rscale>  0 0.19426649E+04</rscale>
<asrwt>0</asrwt>
<pdfrwt beam="1">  1        2 0.12442521E+00 0.19426649E+04</pdfrwt>
<pdfrwt beam="2">  1       -1 0.17947365E+00 0.19426649E+04</pdfrwt>
<totfact> 0.75915070E+00</totfact>
</mgrwt>
</event>
<event>
11    6  0.1663299E-008  0.1463866E+04  0.7818608E-02  0.8908843E-01
         -1   -1    0    0    0  501 -0.00000000000E+00  0.00000000000E+00  0.16214897297E+03  0.16214897297E+03  0.00000000000E+00 0.  1.
          2   -1    0    0  501    0  0.00000000000E+00 -0.00000000000E+00 -0.33039129486E+04  0.33039129486E+04  0.00000000000E+00 0. -1.
         24    2    1    2    0    0 -0.94915130324E+02 -0.22120254324E+03 -0.77088631993E+02  0.26548044266E+03  0.81226603720E+02 0.  0.
        254    2    1    2    0    0  0.94915130324E+02  0.22120254324E+03 -0.30646753436E+04  0.32005814789E+04  0.89081277169E+03 0.  0.
         23    2    4    4    0    0  0.35720377286E+03  0.76522947057E+02 -0.70434970260E+03  0.79903802558E+03  0.94355529771E+02 0.  0.
          4    1    3    3  502    0 -0.77469245123E+02 -0.15271638037E+03 -0.90286016392E+02  0.19358548894E+03  0.00000000000E+00 0. -1.
         -3    1    3    3    0  502 -0.17445885200E+02 -0.68486162864E+02  0.13197384399E+02  0.71894953712E+02  0.00000000000E+00 0.  1.
         11    1    4    4    0    0 -0.27989712635E+02  0.10093119964E+03 -0.18021039731E+03  0.20843780456E+03  0.00000000000E+00 0. -1.
        -11    1    4    4    0    0 -0.23429892990E+03  0.43748396540E+02 -0.21801152437E+04  0.21931056488E+04  0.00000000000E+00 0.  1.
          2    1    5    5  503    0  0.62465139158E+02  0.94181234874E+01 -0.59163711424E+02  0.86550213227E+02  0.00000000000E+00 0. -1.
         -2    1    5    5    0  503  0.29473863370E+03  0.67104823570E+02 -0.64518599118E+03  0.71248781235E+03  0.00000000000E+00 0.  1.
<mgrwt>
<rscale>  0 0.14638662E+04</rscale>
<asrwt>0</asrwt>
<pdfrwt beam="1">  1        2 0.50829425E+00 0.14638662E+04</pdfrwt>
<pdfrwt beam="2">  1       -1 0.24945998E-01 0.14638662E+04</pdfrwt>
<totfact> 0.17381429E+01</totfact>
</mgrwt>
</event>
<event>
11    6  0.1663299E-008  0.1568307E+04  0.7818608E-02  0.8840258E-01
         -1   -1    0    0    0  501 -0.00000000000E+00  0.00000000000E+00  0.49273092743E+03  0.49273092743E+03  0.00000000000E+00 0.  1.
          2   -1    0    0  501    0  0.00000000000E+00 -0.00000000000E+00 -0.12479356469E+04  0.12479356469E+04  0.00000000000E+00 0. -1.
         24    2    1    2    0    0  0.14234591619E+03 -0.20499659936E+03 -0.78393384878E+03  0.82659909406E+03  0.80173670442E+02 0.  0.
        254    2    1    2    0    0 -0.14234591619E+03  0.20499659936E+03  0.28729129317E+02  0.91406748025E+03  0.87886747009E+03 0.  0.
         23    2    4    4    0    0 -0.12238974324E+03  0.21906413584E+03 -0.37101404015E+03  0.45711823307E+03  0.91308905153E+02 0.  0.
          2    1    3    3  502    0  0.13114143090E+03 -0.12444678409E+03 -0.54512239344E+03  0.57432003343E+03  0.00000000000E+00 0. -1.
         -1    1    3    3    0  502  0.11204485288E+02 -0.80549815268E+02 -0.23881145534E+03  0.25227906063E+03  0.00000000000E+00 0.  1.
         11    1    4    4    0    0 -0.77489301721E+02  0.51947185724E+02  0.72378504441E+02  0.11807518745E+03  0.00000000000E+00 0.  1.
        -11    1    4    4    0    0  0.57533128770E+02 -0.66014722208E+02  0.32736466502E+03  0.33887405973E+03  0.00000000000E+00 0. -1.
          2    1    5    5  503    0 -0.55814158066E+02  0.14228823499E+03 -0.28741984818E+03  0.32553238116E+03  0.00000000000E+00 0. -1.
         -2    1    5    5    0  503 -0.66575585176E+02  0.76775900848E+02 -0.83594191967E+02  0.13158585191E+03  0.00000000000E+00 0.  1.
<mgrwt>
<rscale>  0 0.15683067E+04</rscale>
<asrwt>0</asrwt>
<pdfrwt beam="1">  1        2 0.19199009E+00 0.15683067E+04</pdfrwt>
<pdfrwt beam="2">  1       -1 0.75804760E-01 0.15683067E+04</pdfrwt>
<totfact> 0.33988464E+01</totfact>
</mgrwt>
</event>
<event>
12    6  0.1663299E-008  0.2020180E+04  0.7818608E-02  0.8597243E-01
          2   -1    0    0  501    0  0.00000000000E+00  0.00000000000E+00  0.12875601767E+04  0.12875601767E+04  0.00000000000E+00 0. -1.
         -1   -1    0    0    0  501 -0.00000000000E+00 -0.00000000000E+00 -0.79241508865E+03  0.79241508865E+03  0.00000000000E+00 0.  1.
         24    2    1    2    0    0  0.72351615445E+02 -0.79304049044E+03  0.11116391434E+03  0.80825456949E+03  0.82280359188E+02 0.  0.
        254    2    1    2    0    0 -0.72351615445E+02  0.79304049044E+03  0.38398117375E+03  0.12717206959E+04  0.91415754158E+03 0.  0.
         23    2    4    4    0    0  0.12557672044E+03  0.75053302219E+03 -0.63213495836E+02  0.77264647452E+03  0.11797160006E+03 0.  0.
         23    2    4    4    0    0 -0.19792833589E+03  0.42507468257E+02  0.44719466959E+03  0.49907422138E+03  0.90052734160E+02 0.  0.
          2    1    3    3  502    0  0.84253397437E+02 -0.70692657909E+03  0.11538591301E+03  0.72121961435E+03  0.00000000000E+00 0. -1.
         -1    1    3    3    0  502 -0.11901781992E+02 -0.86113911358E+02 -0.42219986667E+01  0.87034955143E+02  0.00000000000E+00 0.  1.
         11    1    5    5    0    0 -0.22463643889E+02  0.82566946732E+02 -0.13982537358E+02  0.86703098793E+02  0.00000000000E+00 0. -1.
        -11    1    5    5    0    0  0.14804036433E+03  0.66796607546E+03 -0.49230958478E+02  0.68594337573E+03  0.00000000000E+00 0.  1.
          1    1    6    6  503    0  0.63832901063E+01 -0.88307815210E+01  0.21091856923E+02  0.23740166876E+02  0.00000000000E+00 0. -1.
         -1    1    6    6    0  503 -0.20431162599E+03  0.51338249778E+02  0.42610281267E+03  0.47533405450E+03  0.00000000000E+00 0.  1.
<mgrwt>
<rscale>  0 0.20201803E+04</rscale>
<asrwt>0</asrwt>
<pdfrwt beam="1">  1        2 0.19808618E+00 0.20201803E+04</pdfrwt>
<pdfrwt beam="2">  1       -1 0.12191001E+00 0.20201803E+04</pdfrwt>
<totfact> 0.10584910E+01</totfact>
</mgrwt>
</event>
<event>
11    6  0.1663299E-008  0.2572529E+04  0.7818608E-02  0.8377593E-01
         -3   -1    0    0    0  501 -0.00000000000E+00  0.00000000000E+00  0.10040704365E+04  0.10040704365E+04  0.00000000000E+00 0.  1.
          2   -1    0    0  501    0  0.00000000000E+00 -0.00000000000E+00 -0.16477696553E+04  0.16477696553E+04  0.00000000000E+00 0. -1.
         24    2    1    2    0    0 -0.61165025959E+03  0.44075760773E+02 -0.12602845617E+04  0.14039334954E+04  0.81568193932E+02 0.  0.
        254    2    1    2    0    0  0.61165025959E+03 -0.44075760773E+02  0.61658534288E+03  0.12479065964E+04  0.89500540533E+03 0.  0.
         23    2    4    4    0    0  0.38595402131E+03 -0.33749306019E+03  0.30038516022E+02  0.52168867160E+03  0.91622515720E+02 0.  0.
          4    1    3    3  502    0 -0.55180813037E+03  0.59751172084E+02 -0.11628570161E+04  0.12885258458E+04  0.00000000000E+00 0. -1.
         -3    1    3    3    0  502 -0.59842129214E+02 -0.15675411311E+02 -0.97427545575E+02  0.11540764960E+03  0.00000000000E+00 0.  1.
         11    1    4    4    0    0  0.25548352297E+03  0.18476467331E+03  0.44279666875E+03  0.54357952948E+03  0.00000000000E+00 0. -1.
        -11    1    4    4    0    0 -0.29787284699E+02  0.10865262611E+03  0.14375015811E+03  0.18263839533E+03  0.00000000000E+00 0.  1.
          2    1    5    5  503    0  0.37063504916E+03 -0.31072807938E+03  0.78884213469E+01  0.48371944985E+03  0.00000000000E+00 0. -1.
         -2    1    5    5    0  503  0.15318972159E+02 -0.26764980817E+02  0.22150094675E+02  0.37969221750E+02  0.00000000000E+00 0.  1.
<mgrwt>
<rscale>  0 0.25725293E+04</rscale>
<asrwt>0</asrwt>
<pdfrwt beam="1">  1        2 0.25350302E+00 0.25725293E+04</pdfrwt>
<pdfrwt beam="2">  1       -3 0.15447238E+00 0.25725293E+04</pdfrwt>
<totfact> 0.17606390E+00</totfact>
</mgrwt>
</event>
<event>
11    6  0.1663299E-008  0.2308195E+04  0.7818608E-02  0.8474697E-01
          2   -1    0    0  501    0  0.00000000000E+00  0.00000000000E+00  0.30653015994E+04  0.30653015994E+04  0.00000000000E+00 0. -1.
         -1   -1    0    0    0  501 -0.00000000000E+00 -0.00000000000E+00 -0.43452215885E+03  0.43452215885E+03  0.00000000000E+00 0.  1.
         24    2    1    2    0    0 -0.12047285359E+03  0.16391238727E+03  0.25843049329E+04  0.25932341089E+04  0.69643219807E+02 0.  0.
        254    2    1    2    0    0  0.12047285359E+03 -0.16391238727E+03  0.46474507609E+02  0.90658964934E+03  0.88224936004E+03 0.  0.
         23    2    4    4    0    0  0.28524274310E+03  0.26382630351E+03 -0.64043316492E+02  0.40517143678E+03  0.95365643054E+02 0.  0.
          4    1    3    3  502    0 -0.84907532730E+02  0.15137257942E+03  0.22810586187E+04  0.22876519335E+04  0.00000000000E+00 0. -1.
         -3    1    3    3    0  502 -0.35565320861E+02  0.12539807849E+02  0.30324631423E+03  0.30558217540E+03  0.00000000000E+00 0.  1.
         11    1    4    4    0    0 -0.14704657635E+03 -0.43536302520E+03  0.12621711765E+03  0.47654424780E+03  0.00000000000E+00 0.  1.
        -11    1    4    4    0    0 -0.17723313163E+02  0.76243344249E+01 -0.15699293552E+02  0.24873964761E+02  0.00000000000E+00 0. -1.
          2    1    5    5  503    0  0.13074137834E+03  0.69683384372E+02  0.29051027437E+01  0.14818070620E+03  0.00000000000E+00 0. -1.
         -2    1    5    5    0  503  0.15450136477E+03  0.19414291913E+03 -0.66948419236E+02  0.25699073058E+03  0.00000000000E+00 0.  1.
<mgrwt>
<rscale>  0 0.23081954E+04</rscale>
<asrwt>0</asrwt>
<pdfrwt beam="1">  1        2 0.47158485E+00 0.23081954E+04</pdfrwt>
<pdfrwt beam="2">  1       -1 0.66849565E-01 0.23081954E+04</pdfrwt>
<totfact> 0.37036222E+00</totfact>
</mgrwt>
</event>
<event>
11    6  0.1663299E-008  0.1414394E+04  0.7818608E-02  0.8943465E-01
          2   -1    0    0  501    0  0.00000000000E+00  0.00000000000E+00  0.91977345747E+03  0.91977345747E+03  0.00000000000E+00 0. -1.
         -1   -1    0    0    0  501 -0.00000000000E+00 -0.00000000000E+00 -0.54375074642E+03  0.54375074642E+03  0.00000000000E+00 0.  1.
         24    2    1    2    0    0  0.34218600086E+03  0.21012098933E+03  0.22691355822E+03  0.46827217863E+03  0.80913416895E+02 0.  0.
        254    2    1    2    0    0 -0.34218600086E+03 -0.21012098933E+03  0.14910915283E+03  0.99525202526E+03  0.89836015327E+03 0.  0.
         23    2    4    4    0    0 -0.30686456607E+03 -0.41293088588E+03 -0.41189810124E+02  0.52422338546E+03  0.91846496855E+02 0.  0.
          2    1    3    3  502    0  0.39506202362E+02  0.56316436857E+02  0.52771430701E+02  0.86701239804E+02  0.00000000000E+00 0. -1.
         -1    1    3    3    0  502  0.30267979850E+03  0.15380455247E+03  0.17414212752E+03  0.38157093883E+03  0.00000000000E+00 0.  1.
         11    1    4    4    0    0  0.15810768209E+03  0.92370639692E+02  0.81465791772E+01  0.18329413783E+03  0.00000000000E+00 0. -1.
        -11    1    4    4    0    0 -0.19342911687E+03  0.11043925685E+03  0.18215238377E+03  0.28773450197E+03  0.00000000000E+00 0.  1.
          2    1    5    5  503    0 -0.30545861606E+03 -0.38895477587E+03 -0.24870147669E+02  0.49518613475E+03  0.00000000000E+00 0. -1.
         -2    1    5    5    0  503 -0.14059500096E+01 -0.23976110002E+02 -0.16319662455E+02  0.29037250712E+02  0.00000000000E+00 0.  1.
<mgrwt>
<rscale>  0 0.14143939E+04</rscale>
<asrwt>0</asrwt>
<pdfrwt beam="1">  1        2 0.14150361E+00 0.14143939E+04</pdfrwt>
<pdfrwt beam="2">  1       -1 0.83653961E-01 0.14143939E+04</pdfrwt>
<totfact> 0.44731501E+01</totfact>
</mgrwt>
</event>
<event>
11    6  0.1663299E-008  0.1433278E+04  0.7818608E-02  0.8930076E-01
         -1   -1    0    0    0  501 -0.00000000000E+00  0.00000000000E+00  0.26735712031E+03  0.26735712031E+03  0.00000000000E+00 0.  1.
          2   -1    0    0  501    0  0.00000000000E+00 -0.00000000000E+00 -0.19209191212E+04  0.19209191212E+04  0.00000000000E+00 0. -1.
         24    2    1    2    0    0  0.71980783887E+02  0.70384392512E+02  0.13314753970E+03  0.18422822932E+03  0.77952403377E+02 0.  0.
        254    2    1    2    0    0 -0.71980783887E+02 -0.70384392512E+02 -0.17867095406E+04  0.20040480122E+04  0.90207663577E+03 0.  0.
         23    2    4    4    0    0 -0.27508713769E+03 -0.19862630969E+03 -0.27251883968E+03  0.44487917843E+03  0.92334290463E+02 0.  0.
          4    1    3    3  502    0  0.31121245587E+01 -0.30586635532E+01 -0.90201842816E+01  0.10020202916E+02  0.00000000000E+00 0. -1.
         -3    1    3    3    0  502  0.68868659328E+02  0.73443056065E+02  0.14216772398E+03  0.17420802640E+03  0.00000000000E+00 0.  1.
         11    1    4    4    0    0 -0.41270266309E+02 -0.51078016308E+02 -0.35383880578E+03  0.35988067342E+03  0.00000000000E+00 0.  1.
        -11    1    4    4    0    0  0.24437662011E+03  0.17931993349E+03 -0.11603518951E+04  0.11992881603E+04  0.00000000000E+00 0. -1.
          3    1    5    5  503    0 -0.20842977585E+03 -0.10845959551E+03 -0.21665850122E+03  0.31960500852E+03  0.00000000000E+00 0. -1.
         -3    1    5    5    0  503 -0.66657361835E+02 -0.90166714180E+02 -0.55860338454E+02  0.12527416990E+03  0.00000000000E+00 0.  1.
<mgrwt>
<rscale>  0 0.14332779E+04</rscale>
<asrwt>0</asrwt>
<pdfrwt beam="1">  1        2 0.29552600E+00 0.14332779E+04</pdfrwt>
<pdfrwt beam="2">  1       -1 0.41131867E-01 0.14332779E+04</pdfrwt>
<totfact> 0.47331413E+01</totfact>
</mgrwt>
</event>
<event>
11    6  0.1663299E-008  0.1638661E+04  0.7818608E-02  0.8797143E-01
          2   -1    0    0  501    0  0.00000000000E+00  0.00000000000E+00  0.10272674959E+04  0.10272674959E+04  0.00000000000E+00 0. -1.
         -1   -1    0    0    0  501 -0.00000000000E+00 -0.00000000000E+00 -0.65348399672E+03  0.65348399672E+03  0.00000000000E+00 0.  1.
         24    2    1    2    0    0 -0.38336519332E+03  0.39268725635E+03  0.18598525917E+03  0.58496917658E+03  0.80164007905E+02 0.  0.
        254    2    1    2    0    0  0.38336519332E+03 -0.39268725635E+03  0.18779824001E+03  0.10957823160E+04  0.92967658487E+03 0.  0.
         23    2    4    4    0    0  0.19546828892E+03 -0.56847160549E+03 -0.14066103651E+03  0.62538443951E+03  0.99761474332E+02 0.  0.
          4    1    3    3  502    0 -0.78335607978E+02  0.12970041506E+03  0.60123955772E+02  0.16301397241E+03  0.00000000000E+00 0. -1.
         -3    1    3    3    0  502 -0.30502958534E+03  0.26298684129E+03  0.12586130340E+03  0.42195520417E+03  0.00000000000E+00 0.  1.
         11    1    4    4    0    0  0.18173004880E+03  0.22131582719E+03  0.30653475045E+03  0.41948785350E+03  0.00000000000E+00 0.  1.
        -11    1    4    4    0    0  0.61668555983E+01 -0.45531478049E+02  0.21924526077E+02  0.50910023031E+02  0.00000000000E+00 0. -1.
          2    1    5    5  503    0  0.15997278561E+02 -0.81119578945E+01  0.61244949864E+01  0.18953264128E+02  0.00000000000E+00 0. -1.
         -2    1    5    5    0  503  0.17947101036E+03 -0.56035964760E+03 -0.14678553150E+03  0.60643117538E+03  0.00000000000E+00 0.  1.
<mgrwt>
<rscale>  0 0.16386615E+04</rscale>
<asrwt>0</asrwt>
<pdfrwt beam="1">  1        2 0.15804115E+00 0.16386615E+04</pdfrwt>
<pdfrwt beam="2">  1       -1 0.10053600E+00 0.16386615E+04</pdfrwt>
<totfact> 0.24853269E+01</totfact>
</mgrwt>
</event>
<event>
12    6  0.1663299E-008  0.2118277E+04  0.7818608E-02  0.8553235E-01
         -1   -1    0    0    0  501 -0.00000000000E+00  0.00000000000E+00  0.11740325623E+04  0.11740325623E+04  0.00000000000E+00 0.  1.
          2   -1    0    0  501    0  0.00000000000E+00 -0.00000000000E+00 -0.95548796589E+03  0.95548796589E+03  0.00000000000E+00 0. -1.
         24    2    1    2    0    0  0.47680429013E+03  0.20589120789E+03 -0.61423478419E+03  0.80859102438E+03  0.82471534698E+02 0.  0.
        254    2    1    2    0    0 -0.47680429013E+03 -0.20589120789E+03  0.83277938059E+03  0.13209295038E+04  0.88408129531E+03 0.  0.
         23    2    4    4    0    0 -0.50445120783E+03 -0.19921838667E+03  0.70589667640E+02  0.55198849965E+03  0.74494401810E+02 0.  0.
         23    2    4    4    0    0  0.27646917702E+02 -0.66728212202E+01  0.76218971295E+03  0.76894100415E+03  0.97612656671E+02 0.  0.
          2    1    3    3  502    0  0.34965048233E+03  0.16429680761E+03 -0.50531273231E+03  0.63607378362E+03  0.00000000000E+00 0. -1.
         -1    1    3    3    0  502  0.12715380780E+03  0.41594400283E+02 -0.10892205188E+03  0.17251724076E+03  0.00000000000E+00 0.  1.
         11    1    5    5    0    0  0.23845326784E+01  0.87451688182E+00  0.58934929143E+00  0.26073182503E+01  0.00000000000E+00 0. -1.
        -11    1    5    5    0    0 -0.50683574051E+03 -0.20009290355E+03  0.70000318349E+02  0.54938118140E+03  0.00000000000E+00 0.  1.
          4    1    6    6  503    0  0.64012612885E+02  0.25988238608E+01  0.49494694212E+03  0.49907599021E+03  0.00000000000E+00 0.  1.
         -4    1    6    6    0  503 -0.36365695182E+02 -0.92716450810E+01  0.26724277083E+03  0.26986501394E+03  0.00000000000E+00 0. -1.
<mgrwt>
<rscale>  0 0.21182766E+04</rscale>
<asrwt>0</asrwt>
<pdfrwt beam="1">  1        2 0.14699815E+00 0.21182766E+04</pdfrwt>
<pdfrwt beam="2">  1       -1 0.18062039E+00 0.21182766E+04</pdfrwt>
<totfact> 0.58212763E+00</totfact>
</mgrwt>
</event>
<event>
12    6  0.1663299E-008  0.1260500E+04  0.7818608E-02  0.9061489E-01
          2   -1    0    0  501    0  0.00000000000E+00  0.00000000000E+00  0.87732818376E+03  0.87732818376E+03  0.00000000000E+00 0. -1.
         -1   -1    0    0    0  501 -0.00000000000E+00 -0.00000000000E+00 -0.45275564144E+03  0.45275564144E+03  0.00000000000E+00 0.  1.
         24    2    1    2    0    0 -0.13787896427E+03  0.18737176193E+03 -0.10029491101E+03  0.26628625194E+03  0.82039702835E+02 0.  0.
        254    2    1    2    0    0  0.13787896427E+03 -0.18737176193E+03  0.52486745332E+03  0.10637975733E+04  0.89557838705E+03 0.  0.
         23    2    4    4    0    0 -0.16205087409E+03  0.29001956013E+03  0.24891904219E+03  0.43000854972E+03  0.11213755935E+03 0.  0.
         23    2    4    4    0    0  0.29992983837E+03 -0.47739132206E+03  0.27594841113E+03  0.63378902353E+03  0.87639137543E+02 0.  0.
          4    1    3    3  502    0  0.34204723765E+01  0.48066737166E+02 -0.22054846442E+02  0.52995538535E+02  0.00000000000E+00 0. -1.
         -3    1    3    3    0  502 -0.14129943665E+03  0.13930502476E+03 -0.78240064563E+02  0.21329071340E+03  0.00000000000E+00 0.  1.
         11    1    5    5    0    0 -0.92446945010E+02  0.19308732492E+03  0.92350562193E+02  0.23314754776E+03  0.00000000000E+00 0.  1.
        -11    1    5    5    0    0 -0.69603929085E+02  0.96932235206E+02  0.15656848000E+03  0.19686100197E+03  0.00000000000E+00 0. -1.
          2    1    6    6  503    0  0.15956122732E+03 -0.17685315464E+03  0.10030435250E+03  0.25845267788E+03  0.00000000000E+00 0. -1.
         -2    1    6    6    0  503  0.14036861105E+03 -0.30053816742E+03  0.17564405863E+03  0.37533634566E+03  0.00000000000E+00 0.  1.
<mgrwt>
<rscale>  0 0.12605004E+04</rscale>
<asrwt>0</asrwt>
<pdfrwt beam="1">  1        2 0.13497357E+00 0.12605004E+04</pdfrwt>
<pdfrwt beam="2">  1       -1 0.69654714E-01 0.12605004E+04</pdfrwt>
<totfact> 0.71055282E+01</totfact>
</mgrwt>
</event>
<event>
12    6  0.1663299E-008  0.1820277E+04  0.7818608E-02  0.8695590E-01
          2   -1    0    0  501    0  0.00000000000E+00  0.00000000000E+00  0.17230412944E+04  0.17230412944E+04  0.00000000000E+00 0. -1.
         -3   -1    0    0    0  501 -0.00000000000E+00 -0.00000000000E+00 -0.48074995265E+03  0.48074995265E+03  0.00000000000E+00 0.  1.
         24    2    1    2    0    0 -0.37732841789E+01  0.26050671611E+03 -0.29726754539E+03  0.40342338246E+03  0.80650140499E+02 0.  0.
        254    2    1    2    0    0  0.37732841789E+01 -0.26050671611E+03  0.15395588872E+04  0.18003678646E+04  0.89621699052E+03 0.  0.
         23    2    4    4    0    0  0.14051595501E+03 -0.55911596963E+03  0.10517504086E+04  0.12051614823E+04  0.11781288289E+03 0.  0.
         23    2    4    4    0    0 -0.13674267083E+03  0.29860925352E+03  0.48780847856E+03  0.59520638230E+03  0.91910181491E+02 0.  0.
          4    1    3    3  502    0  0.23351831326E+02  0.20231789954E+03 -0.19066887530E+03  0.27898469583E+03  0.00000000000E+00 0. -1.
         -3    1    3    3    0  502 -0.27125115505E+02  0.58188816569E+02 -0.10659867009E+03  0.12443868663E+03  0.00000000000E+00 0.  1.
         11    1    5    5    0    0 -0.42100746688E+01 -0.36800318118E+02  0.26764936034E+02  0.45698467625E+02  0.00000000000E+00 0.  1.
        -11    1    5    5    0    0  0.14472602968E+03 -0.52231565151E+03  0.10249854726E+04  0.11594630147E+04  0.00000000000E+00 0. -1.
          1    1    6    6  503    0 -0.57121291907E+02  0.18608380832E+03  0.21822516865E+03  0.29242477655E+03  0.00000000000E+00 0. -1.
         -1    1    6    6    0  503 -0.79621378920E+02  0.11252544520E+03  0.26958330991E+03  0.30278160575E+03  0.00000000000E+00 0.  1.
<mgrwt>
<rscale>  0 0.18202769E+04</rscale>
<asrwt>0</asrwt>
<pdfrwt beam="1">  1        2 0.26508327E+00 0.18202769E+04</pdfrwt>
<pdfrwt beam="2">  1       -3 0.73961532E-01 0.18202769E+04</pdfrwt>
<totfact> 0.99197787E+00</totfact>
</mgrwt>
</event>
<event>
12    6  0.2351851E-008  0.1715383E+04  0.7818608E-02  0.8752639E-01
          2   -1    0    0  501    0  0.00000000000E+00  0.00000000000E+00  0.96636674056E+03  0.96636674056E+03  0.00000000000E+00 0. -1.
         -1   -1    0    0    0  501 -0.00000000000E+00 -0.00000000000E+00 -0.76123739836E+03  0.76123739836E+03  0.00000000000E+00 0.  1.
         24    2    1    2    0    0 -0.48495738748E+03 -0.17594190220E+03  0.45558468311E+03  0.69250289469E+03  0.76574375974E+02 0.  0.
        254    2    1    2    0    0  0.48495738748E+03  0.17594190220E+03 -0.25045534091E+03  0.10351012442E+04  0.86172355624E+03 0.  0.
         23    2    4    4    0    0  0.16862922930E+02 -0.31255106273E+03 -0.80240548237E+02  0.33153650623E+03  0.74198277569E+02 0.  0.
         23    2    4    4    0    0  0.46809446455E+03  0.48849296493E+03 -0.17021479267E+03  0.70356473800E+03  0.91062947367E+02 0.  0.
          4    1    3    3  502    0 -0.42739178171E+03 -0.12939486635E+03  0.40488883438E+03  0.60277834625E+03  0.00000000000E+00 0. -1.
         -3    1    3    3    0  502 -0.57565605778E+02 -0.46547035849E+02  0.50695848728E+02  0.89724548443E+02  0.00000000000E+00 0.  1.
         11    1    5    5    0    0 -0.21375467947E+02 -0.67162765373E+02  0.20556249878E+00  0.70482550595E+02  0.00000000000E+00 0.  1.
        -11    1    5    5    0    0  0.38238390877E+02 -0.24538829736E+03 -0.80446110736E+02  0.26105395563E+03  0.00000000000E+00 0. -1.
          4    1    6    6  503    0  0.19562604615E+03  0.18806164291E+03 -0.11306926065E+03  0.29397515060E+03  0.00000000000E+00 0.  1.
         -4    1    6    6    0  503  0.27246841840E+03  0.30043132201E+03 -0.57145532018E+02  0.40958958739E+03  0.00000000000E+00 0. -1.
<mgrwt>
<rscale>  0 0.17153828E+04</rscale>
<asrwt>0</asrwt>
<pdfrwt beam="1">  1        2 0.14867181E+00 0.17153828E+04</pdfrwt>
<pdfrwt beam="2">  1       -1 0.11711345E+00 0.17153828E+04</pdfrwt>
<totfact> 0.18871726E+01</totfact>
</mgrwt>
</event>
<event>
12    6  0.1663299E-008  0.1789532E+04  0.7818608E-02  0.8711886E-01
          2   -1    0    0  501    0  0.00000000000E+00  0.00000000000E+00  0.63880868610E+03  0.63880868610E+03  0.00000000000E+00 0. -1.
         -1   -1    0    0    0  501 -0.00000000000E+00 -0.00000000000E+00 -0.12532796428E+04  0.12532796428E+04  0.00000000000E+00 0.  1.
         24    2    1    2    0    0 -0.53907692201E+02 -0.35634250120E+03 -0.82115471554E+03  0.90021602032E+03  0.78789586550E+02 0.  0.
        254    2    1    2    0    0  0.53907692201E+02  0.35634250120E+03  0.20668375887E+03  0.99187230855E+03  0.90067001884E+03 0.  0.
         23    2    4    4    0    0  0.14223801119E+03  0.58411799719E+03 -0.66444522313E+02  0.61412654180E+03  0.10635341239E+03 0.  0.
         23    2    4    4    0    0 -0.88330318989E+02 -0.22777549599E+03  0.27312828118E+03  0.37774576675E+03  0.91699969943E+02 0.  0.
          4    1    3    3  502    0 -0.46193706173E+02 -0.15403379815E+03 -0.28702049004E+03  0.32900004736E+03  0.00000000000E+00 0. -1.
         -3    1    3    3    0  502 -0.77139860278E+01 -0.20230870305E+03 -0.53413422550E+03  0.57121597296E+03  0.00000000000E+00 0.  1.
         11    1    5    5    0    0  0.40012777174E+02  0.29255023195E+03 -0.76398542341E+02  0.30499737347E+03  0.00000000000E+00 0.  1.
        -11    1    5    5    0    0  0.10222523402E+03  0.29156776524E+03  0.99540200286E+01  0.30912916833E+03  0.00000000000E+00 0. -1.
          1    1    6    6  503    0  0.93625052580E+01 -0.70299368889E+02  0.45673617166E+02  0.84354828409E+02  0.00000000000E+00 0. -1.
         -1    1    6    6    0  503 -0.97692824247E+02 -0.15747612710E+03  0.22745466402E+03  0.29339093834E+03  0.00000000000E+00 0.  1.
<mgrwt>
<rscale>  0 0.17895317E+04</rscale>
<asrwt>0</asrwt>
<pdfrwt beam="1">  1        2 0.98278260E-01 0.17895317E+04</pdfrwt>
<pdfrwt beam="2">  1       -1 0.19281225E+00 0.17895317E+04</pdfrwt>
<totfact> 0.83694779E+00</totfact>
</mgrwt>
</event>
<event>
11    6  0.1663299E-008  0.2344562E+04  0.7818608E-02  0.8460555E-01
         -1   -1    0    0    0  501 -0.00000000000E+00  0.00000000000E+00  0.83545641327E+03  0.83545641327E+03  0.00000000000E+00 0.  1.
          2   -1    0    0  501    0  0.00000000000E+00 -0.00000000000E+00 -0.16449010964E+04  0.16449010964E+04  0.00000000000E+00 0. -1.
         24    2    1    2    0    0  0.14739377921E+03 -0.67096280800E+03  0.42022272192E+03  0.80837483395E+03  0.70474962090E+02 0.  0.
        254    2    1    2    0    0 -0.14739377921E+03  0.67096280800E+03 -0.12296674051E+04  0.16719826758E+04  0.90084855834E+03 0.  0.
         23    2    4    4    0    0  0.95391666031E+02  0.45292198424E+03 -0.92047368179E+02  0.48068637407E+03  0.91371650287E+02 0.  0.
          2    1    3    3  502    0  0.46705529372E+01 -0.76998333083E+02  0.26274227539E+02  0.81491670710E+02  0.00000000000E+00 0. -1.
         -1    1    3    3    0  502  0.14272322628E+03 -0.59396447491E+03  0.39394849438E+03  0.72688316324E+03  0.00000000000E+00 0.  1.
         11    1    4    4    0    0 -0.15307469729E+03  0.48908503233E+02 -0.46651268811E+03  0.49341462565E+03  0.00000000000E+00 0. -1.
        -11    1    4    4    0    0 -0.89710747959E+02  0.16913232053E+03 -0.67110734880E+03  0.69788167605E+03  0.00000000000E+00 0.  1.
          4    1    5    5  503    0  0.30225300909E+02  0.27825875727E+03 -0.90809902172E+02  0.29425829325E+03  0.00000000000E+00 0. -1.
         -4    1    5    5    0  503  0.65166365121E+02  0.17466322697E+03 -0.12374660072E+01  0.18642808082E+03  0.00000000000E+00 0.  1.
<mgrwt>
<rscale>  0 0.23445624E+04</rscale>
<asrwt>0</asrwt>
<pdfrwt beam="1">  1        2 0.25306171E+00 0.23445624E+04</pdfrwt>
<pdfrwt beam="2">  1       -1 0.12853176E+00 0.23445624E+04</pdfrwt>
<totfact> 0.56508090E+00</totfact>
</mgrwt>
</event>
<event>
12    6  0.1663299E-008  0.1480837E+04  0.7818608E-02  0.8897297E-01
         -1   -1    0    0    0  501 -0.00000000000E+00  0.00000000000E+00  0.20607575493E+03  0.20607575493E+03  0.00000000000E+00 0.  1.
          2   -1    0    0  501    0  0.00000000000E+00 -0.00000000000E+00 -0.26602801574E+04  0.26602801574E+04  0.00000000000E+00 0. -1.
         24    2    1    2    0    0 -0.31169065606E+03 -0.30768982216E+03 -0.10770604001E+04  0.11655887267E+04  0.81938285149E+02 0.  0.
        254    2    1    2    0    0  0.31169065606E+03  0.30768982216E+03 -0.13771440023E+04  0.17007671856E+04  0.89680506508E+03 0.  0.
         23    2    4    4    0    0  0.14621578146E+02  0.16483538588E+03  0.74081284260E+02  0.20972880779E+03  0.10542125570E+03 0.  0.
         23    2    4    4    0    0  0.29706907792E+03  0.14285443628E+03 -0.14512252866E+04  0.14910383778E+04  0.92104205549E+02 0.  0.
          2    1    3    3  502    0 -0.16173502349E+03 -0.13772543315E+03 -0.62061136045E+03  0.65596110668E+03  0.00000000000E+00 0. -1.
         -1    1    3    3    0  502 -0.14995563258E+03 -0.16996438902E+03 -0.45644903966E+03  0.50962762002E+03  0.00000000000E+00 0.  1.
         11    1    5    5    0    0  0.40378006835E+02  0.13778693595E+03  0.89642151126E+02  0.16926706239E+03  0.00000000000E+00 0. -1.
        -11    1    5    5    0    0 -0.25756428690E+02  0.27048449933E+02 -0.15560866866E+02  0.40461745393E+02  0.00000000000E+00 0.  1.
          4    1    6    6  503    0  0.29229037656E+03  0.12249069293E+03 -0.12850800573E+04  0.13235816514E+04  0.00000000000E+00 0. -1.
         -4    1    6    6    0  503  0.47787013597E+01  0.20363743355E+02 -0.16614522924E+03  0.16745672644E+03  0.00000000000E+00 0.  1.
<mgrwt>
<rscale>  0 0.14808366E+04</rscale>
<asrwt>0</asrwt>
<pdfrwt beam="1">  1        2 0.40927389E+00 0.14808366E+04</pdfrwt>
<pdfrwt beam="2">  1       -1 0.31703961E-01 0.14808366E+04</pdfrwt>
<totfact> 0.28718873E+01</totfact>
</mgrwt>
</event>
<event>
11    6  0.1663299E-008  0.2098085E+04  0.7818608E-02  0.8562088E-01
         -1   -1    0    0    0  501 -0.00000000000E+00  0.00000000000E+00  0.55778211943E+03  0.55778211943E+03  0.00000000000E+00 0.  1.
          2   -1    0    0  501    0  0.00000000000E+00 -0.00000000000E+00 -0.19729744502E+04  0.19729744502E+04  0.00000000000E+00 0. -1.
         24    2    1    2    0    0 -0.30418681592E+03  0.55901648761E+03 -0.12638518461E+04  0.14173588404E+04  0.80966296197E+02 0.  0.
        254    2    1    2    0    0  0.30418681592E+03 -0.55901648761E+03 -0.15134048463E+03  0.11133977292E+04  0.90095588612E+03 0.  0.
         23    2    4    4    0    0  0.20591373472E+03  0.15809906038E+03 -0.24467661199E+03  0.36831797596E+03  0.91628095671E+02 0.  0.
          2    1    3    3  502    0 -0.30744887066E+03  0.53476144821E+03 -0.12225271291E+04  0.13693309300E+04  0.00000000000E+00 0. -1.
         -1    1    3    3    0  502  0.32620547423E+01  0.24255039398E+02 -0.41324717052E+02  0.48027910394E+02  0.00000000000E+00 0.  1.
         11    1    4    4    0    0 -0.84735294927E+00 -0.56339715590E+02 -0.32671602545E+02  0.65133057449E+02  0.00000000000E+00 0. -1.
        -11    1    4    4    0    0  0.99120434147E+02 -0.66077583240E+03  0.12600772990E+03  0.67994669581E+03  0.00000000000E+00 0.  1.
          1    1    5    5  503    0 -0.71832049218E+01  0.15716900020E+02 -0.65538409294E+01  0.18481672276E+02  0.00000000000E+00 0. -1.
         -1    1    5    5    0  503  0.21309693964E+03  0.14238216036E+03 -0.23812277106E+03  0.34983630368E+03  0.00000000000E+00 0.  1.
<mgrwt>
<rscale>  0 0.20980847E+04</rscale>
<asrwt>0</asrwt>
<pdfrwt beam="1">  1        2 0.30353453E+00 0.20980847E+04</pdfrwt>
<pdfrwt beam="2">  1       -1 0.85812635E-01 0.20980847E+04</pdfrwt>
<totfact> 0.97320516E+00</totfact>
</mgrwt>
</event>
<event>
11    6  0.1663299E-008  0.1369078E+04  0.7818608E-02  0.8976511E-01
         -3   -1    0    0    0  501 -0.00000000000E+00  0.00000000000E+00  0.23386164899E+04  0.23386164899E+04  0.00000000000E+00 0.  1.
          4   -1    0    0  501    0  0.00000000000E+00 -0.00000000000E+00 -0.20037218777E+03  0.20037218777E+03  0.00000000000E+00 0. -1.
         24    2    1    2    0    0 -0.15019818903E+02  0.36733942377E+03  0.82449624866E+03  0.90637681514E+03  0.81000121944E+02 0.  0.
        254    2    1    2    0    0  0.15019818903E+02 -0.36733942377E+03  0.13137480534E+04  0.16326118625E+04  0.89684095494E+03 0.  0.
         23    2    4    4    0    0 -0.21830934195E+03 -0.37104918203E+02  0.13857546355E+02  0.24071001795E+03  0.93346330470E+02 0.  0.
          4    1    3    3  502    0  0.19987941313E+01  0.12031638334E+03  0.18579422472E+03  0.22135835475E+03  0.00000000000E+00 0. -1.
         -3    1    3    3    0  502 -0.17018613034E+02  0.24702304043E+03  0.63870202394E+03  0.68501846040E+03  0.00000000000E+00 0.  1.
         11    1    4    4    0    0  0.64083204179E+02 -0.99450753008E+02  0.85340949053E+03  0.86157116239E+03  0.00000000000E+00 0.  1.
        -11    1    4    4    0    0  0.16924595668E+03 -0.23078375256E+03  0.44648101655E+03  0.53033068216E+03  0.00000000000E+00 0. -1.
          3    1    5    5  503    0 -0.18466423763E+02  0.23428204564E+02 -0.76482595838E+01  0.30795867424E+02  0.00000000000E+00 0. -1.
         -3    1    5    5    0  503 -0.19984291819E+03 -0.60533122767E+02  0.21505805939E+02  0.20991415053E+03  0.00000000000E+00 0.  1.
<mgrwt>
<rscale>  0 0.13690781E+04</rscale>
<asrwt>0</asrwt>
<pdfrwt beam="1">  1        4 0.30826492E-01 0.13690781E+04</pdfrwt>
<pdfrwt beam="2">  1       -3 0.35978713E+00 0.13690781E+04</pdfrwt>
<totfact> 0.40775613E-01</totfact>
</mgrwt>
</event>
<event>
12    6  0.1663299E-008  0.1503268E+04  0.7818608E-02  0.8882283E-01
         -1   -1    0    0    0  501 -0.00000000000E+00  0.00000000000E+00  0.11325483750E+04  0.11325483750E+04  0.00000000000E+00 0.  1.
          2   -1    0    0  501    0  0.00000000000E+00 -0.00000000000E+00 -0.49883413906E+03  0.49883413906E+03  0.00000000000E+00 0. -1.
         24    2    1    2    0    0 -0.77612326803E+02  0.27485853004E+02  0.68427826885E+03  0.69383275394E+03  0.79924938739E+02 0.  0.
        254    2    1    2    0    0  0.77612326803E+02 -0.27485853004E+02 -0.50564032934E+02  0.93754976010E+03  0.93255760457E+03 0.  0.
         23    2    4    4    0    0 -0.36182783921E+03 -0.23050039868E+03 -0.88041595948E+02  0.44349781706E+03  0.69922615113E+02 0.  0.
         23    2    4    4    0    0  0.43944016601E+03  0.20301454567E+03  0.37477563014E+02  0.49405194304E+03  0.91434071521E+02 0.  0.
          2    1    3    3  502    0 -0.45288090854E+02  0.55389083317E+02  0.39647770293E+03  0.40288153426E+03  0.00000000000E+00 0. -1.
         -1    1    3    3    0  502 -0.32324235949E+02 -0.27903230313E+02  0.28780056592E+03  0.29095121968E+03  0.00000000000E+00 0.  1.
         11    1    5    5    0    0 -0.80805946030E+02 -0.87505757072E+02 -0.30898210790E+02  0.12305103764E+03  0.00000000000E+00 0.  1.
        -11    1    5    5    0    0 -0.28102189317E+03 -0.14299464160E+03 -0.57143385158E+02  0.32044677942E+03  0.00000000000E+00 0. -1.
          3    1    6    6  503    0  0.41509897618E+03  0.16352431862E+03  0.31154997652E+02  0.44723371596E+03  0.00000000000E+00 0. -1.
         -3    1    6    6    0  503  0.24341189827E+02  0.39490227048E+02  0.63225653616E+01  0.46818227083E+02  0.00000000000E+00 0.  1.
<mgrwt>
<rscale>  0 0.15032682E+04</rscale>
<asrwt>0</asrwt>
<pdfrwt beam="1">  1        2 0.76743714E-01 0.15032682E+04</pdfrwt>
<pdfrwt beam="2">  1       -1 0.17423821E+00 0.15032682E+04</pdfrwt>
<totfact> 0.15620768E+01</totfact>
</mgrwt>
</event>
<event>
12    6  0.1663299E-008  0.1639266E+04  0.7818608E-02  0.8796782E-01
         -3   -1    0    0    0  501 -0.00000000000E+00  0.00000000000E+00  0.34820584420E+03  0.34820584420E+03  0.00000000000E+00 0.  1.
          2   -1    0    0  501    0  0.00000000000E+00 -0.00000000000E+00 -0.19293143897E+04  0.19293143897E+04  0.00000000000E+00 0. -1.
         24    2    1    2    0    0 -0.11894170879E+03 -0.41298792670E+03 -0.10699649434E+04  0.11561924524E+04  0.85146046472E+02 0.  0.
        254    2    1    2    0    0  0.11894170879E+03  0.41298792670E+03 -0.51114360204E+03  0.11213277814E+04  0.90077858200E+03 0.  0.
         23    2    4    4    0    0  0.28272144853E+02  0.48322451982E+03  0.88960280856E+02  0.50383912416E+03  0.10786417727E+03 0.  0.
         23    2    4    4    0    0  0.90669563933E+02 -0.70236593119E+02 -0.60010388289E+03  0.61748865725E+03  0.89517723023E+02 0.  0.
          4    1    3    3  502    0 -0.84102605277E+02 -0.19883031770E+03 -0.44428569411E+03  0.49396004033E+03  0.00000000000E+00 0. -1.
         -3    1    3    3    0  502 -0.34839103510E+02 -0.21415760900E+03 -0.62567924932E+03  0.66223241212E+03  0.00000000000E+00 0.  1.
         11    1    5    5    0    0  0.57239224083E+02  0.15587960972E+03  0.46773757245E+02  0.17251830589E+03  0.00000000000E+00 0. -1.
        -11    1    5    5    0    0 -0.28967079230E+02  0.32734491010E+03  0.42186523611E+02  0.33132081828E+03  0.00000000000E+00 0.  1.
          1    1    6    6  503    0  0.50682536763E+01 -0.51705659615E+02 -0.31432851068E+03  0.31859311835E+03  0.00000000000E+00 0. -1.
         -1    1    6    6    0  503  0.85601310257E+02 -0.18530933504E+02 -0.28577537221E+03  0.29889553891E+03  0.00000000000E+00 0.  1.
<mgrwt>
<rscale>  0 0.16392664E+04</rscale>
<asrwt>0</asrwt>
<pdfrwt beam="1">  1        2 0.29681760E+00 0.16392664E+04</pdfrwt>
<pdfrwt beam="2">  1       -3 0.53570130E-01 0.16392664E+04</pdfrwt>
<totfact> 0.15448644E+01</totfact>
</mgrwt>
</event>
<event>
12    6  0.1663299E-008  0.1731126E+04  0.7818608E-02  0.8743809E-01
          2   -1    0    0  501    0  0.00000000000E+00  0.00000000000E+00  0.60155140665E+03  0.60155140665E+03  0.00000000000E+00 0. -1.
         -1   -1    0    0    0  501 -0.00000000000E+00 -0.00000000000E+00 -0.12454450745E+04  0.12454450745E+04  0.00000000000E+00 0.  1.
         24    2    1    2    0    0 -0.23073403926E+03 -0.38324096291E+03 -0.70380644475E+03  0.83766773171E+03  0.78942286288E+02 0.  0.
        254    2    1    2    0    0  0.23073403926E+03  0.38324096291E+03  0.59912776907E+02  0.10093287494E+04  0.90279740312E+03 0.  0.
         23    2    4    4    0    0  0.24513557710E+03  0.63971932761E+03 -0.85426775575E+02  0.70095058994E+03  0.12125067535E+03 0.  0.
         23    2    4    4    0    0 -0.14401537841E+02 -0.25647836471E+03  0.14533955248E+03  0.30837815949E+03  0.89358535583E+02 0.  0.
          4    1    3    3  502    0 -0.83516340080E+02 -0.97850519369E+02 -0.15110806663E+03  0.19845238976E+03  0.00000000000E+00 0. -1.
         -3    1    3    3    0  502 -0.14721769918E+03 -0.28539044354E+03 -0.55269837812E+03  0.63921534196E+03  0.00000000000E+00 0.  1.
         11    1    5    5    0    0  0.92209710351E+02  0.29999520700E+03 -0.96132901465E+02  0.32823968324E+03  0.00000000000E+00 0.  1.
        -11    1    5    5    0    0  0.15292586675E+03  0.33972412061E+03  0.10706125890E+02  0.37271090670E+03  0.00000000000E+00 0. -1.
          1    1    6    6  503    0 -0.36349085918E+02 -0.39374046308E+02  0.33213119835E+02  0.63045086239E+02  0.00000000000E+00 0. -1.
         -1    1    6    6    0  503  0.21947548077E+02 -0.21710431840E+03  0.11212643265E+03  0.24533307325E+03  0.00000000000E+00 0.  1.
<mgrwt>
<rscale>  0 0.17311259E+04</rscale>
<asrwt>0</asrwt>
<pdfrwt beam="1">  1        2 0.92546372E-01 0.17311259E+04</pdfrwt>
<pdfrwt beam="2">  1       -1 0.19160693E+00 0.17311259E+04</pdfrwt>
<totfact> 0.92290585E+00</totfact>
</mgrwt>
</event>
<event>
12    6  0.1663299E-008  0.2676914E+04  0.7818608E-02  0.8342535E-01
         -1   -1    0    0    0  501 -0.00000000000E+00  0.00000000000E+00  0.11198127676E+04  0.11198127676E+04  0.00000000000E+00 0.  1.
          2   -1    0    0  501    0  0.00000000000E+00 -0.00000000000E+00 -0.15997919760E+04  0.15997919760E+04  0.00000000000E+00 0. -1.
         24    2    1    2    0    0 -0.87291905175E+03  0.20765832771E+02 -0.10412976519E+04  0.13612978004E+04  0.80075033531E+02 0.  0.
        254    2    1    2    0    0  0.87291905175E+03 -0.20765832771E+02  0.56131844346E+03  0.13583069432E+04  0.87607103954E+03 0.  0.
         23    2    4    4    0    0 -0.75530326726E+02  0.12127531197E+03 -0.10332940384E+03  0.18796330143E+03  0.65120699009E+02 0.  0.
         23    2    4    4    0    0  0.94844937847E+03 -0.14204114474E+03  0.66464784730E+03  0.11703436418E+04  0.90639774022E+02 0.  0.
          2    1    3    3  502    0 -0.79416556007E+03 -0.43148921716E+01 -0.94397975910E+03  0.12336187988E+04  0.00000000000E+00 0. -1.
         -1    1    3    3    0  502 -0.78753491678E+02  0.25080724942E+02 -0.97317892772E+02  0.12767900167E+03  0.00000000000E+00 0.  1.
         11    1    5    5    0    0 -0.26156356795E+02  0.40060733753E+02 -0.37553244461E+00  0.47845150373E+02  0.00000000000E+00 0. -1.
        -11    1    5    5    0    0 -0.49373969931E+02  0.81214578215E+02 -0.10295387139E+03  0.14011815106E+03  0.00000000000E+00 0.  1.
          3    1    6    6  503    0  0.71751325470E+02  0.10487295077E+01  0.26124996641E+02  0.76366668054E+02  0.00000000000E+00 0. -1.
         -3    1    6    6    0  503  0.87669805300E+03 -0.14308987425E+03  0.63852285066E+03  0.10939769737E+04  0.00000000000E+00 0.  1.
<mgrwt>
<rscale>  0 0.26769143E+04</rscale>
<asrwt>0</asrwt>
<pdfrwt beam="1">  1        2 0.24612184E+00 0.26769143E+04</pdfrwt>
<pdfrwt beam="2">  1       -1 0.17227889E+00 0.26769143E+04</pdfrwt>
<totfact> 0.26433875E+00</totfact>
</mgrwt>
</event>
<event>
12    6  0.1663299E-008  0.2403564E+04  0.7818608E-02  0.8438171E-01
         -1   -1    0    0    0  501 -0.00000000000E+00  0.00000000000E+00  0.59715133778E+03  0.59715133778E+03  0.00000000000E+00 0.  1.
          2   -1    0    0  501    0  0.00000000000E+00 -0.00000000000E+00 -0.24186153905E+04  0.24186153905E+04  0.00000000000E+00 0. -1.
         24    2    1    2    0    0  0.14200041566E+03  0.18350027259E+03  0.47945481115E+03  0.53578528404E+03  0.57900661275E+02 0.  0.
        254    2    1    2    0    0 -0.14200041566E+03 -0.18350027259E+03 -0.23009188638E+04  0.24799814442E+04  0.89568067834E+03 0.  0.
         23    2    4    4    0    0 -0.18891431687E+03 -0.51436489224E+03 -0.11103858229E+04  0.12400340406E+04  0.66842237680E+02 0.  0.
         23    2    4    4    0    0  0.46913901206E+02  0.33086461965E+03 -0.11905330410E+04  0.12399474036E+04  0.91805944253E+02 0.  0.
          4    1    3    3  502    0  0.25446100106E+02  0.67507183969E+02  0.11212134185E+03  0.13332636347E+03  0.00000000000E+00 0. -1.
         -3    1    3    3    0  502  0.11655431555E+03  0.11599308862E+03  0.36733346930E+03  0.40245892057E+03  0.00000000000E+00 0.  1.
         11    1    5    5    0    0 -0.24039768501E+02 -0.13088256767E+03 -0.23050964824E+03  0.26616321106E+03  0.00000000000E+00 0.  1.
        -11    1    5    5    0    0 -0.16487454836E+03 -0.38348232457E+03 -0.87987617465E+03  0.97387082956E+03  0.00000000000E+00 0. -1.
          3    1    6    6  503    0  0.63877273579E+02  0.30661674329E+03 -0.10247552510E+04  0.10715490926E+04  0.00000000000E+00 0. -1.
         -3    1    6    6    0  503 -0.16963372373E+02  0.24247876367E+02 -0.16577778999E+03  0.16839831105E+03  0.00000000000E+00 0.  1.
<mgrwt>
<rscale>  0 0.24035635E+04</rscale>
<asrwt>0</asrwt>
<pdfrwt beam="1">  1        2 0.37209467E+00 0.24035635E+04</pdfrwt>
<pdfrwt beam="2">  1       -1 0.91869438E-01 0.24035635E+04</pdfrwt>
<totfact> 0.45774639E+00</totfact>
</mgrwt>
</event>
<event>
11    6  0.1663299E-008  0.1451178E+04  0.7818608E-02  0.8917584E-01
         -3   -1    0    0    0  501 -0.00000000000E+00  0.00000000000E+00  0.66348996970E+03  0.66348996970E+03  0.00000000000E+00 0.  1.
          2   -1    0    0  501    0  0.00000000000E+00 -0.00000000000E+00 -0.79350004435E+03  0.79350004435E+03  0.00000000000E+00 0. -1.
         24    2    1    2    0    0  0.34254678660E+03  0.22256134095E+03 -0.21546317754E+03  0.46865304877E+03  0.79620649030E+02 0.  0.
        254    2    1    2    0    0 -0.34254678660E+03 -0.22256134095E+03  0.85453102894E+02  0.98833696527E+03  0.89589947686E+03 0.  0.
         23    2    4    4    0    0  0.19881053979E+03 -0.64270261326E+02 -0.19131445654E+03  0.29789339414E+03  0.92102962884E+02 0.  0.
          4    1    3    3  502    0  0.14875951594E+03  0.13210395967E+03 -0.13367613150E+03  0.23968762562E+03  0.00000000000E+00 0. -1.
         -3    1    3    3    0  502  0.19378727066E+03  0.90457381271E+02 -0.81787046040E+02  0.22896542314E+03  0.00000000000E+00 0.  1.
         11    1    4    4    0    0 -0.28591210497E+02 -0.96320908947E+02  0.10695668962E+03  0.14674777093E+03  0.00000000000E+00 0. -1.
        -11    1    4    4    0    0 -0.51276611589E+03 -0.61970170673E+02  0.16981086981E+03  0.54369580021E+03  0.00000000000E+00 0.  1.
          3    1    5    5  503    0  0.19064448499E+02 -0.33823302581E+02 -0.66329220782E+02  0.76857234686E+02  0.00000000000E+00 0. -1.
         -3    1    5    5    0  503  0.17974609129E+03 -0.30446958744E+02 -0.12498523576E+03  0.22103615946E+03  0.00000000000E+00 0.  1.
<mgrwt>
<rscale>  0 0.14511779E+04</rscale>
<asrwt>0</asrwt>
<pdfrwt beam="1">  1        2 0.12207693E+00 0.14511779E+04</pdfrwt>
<pdfrwt beam="2">  1       -3 0.10207538E+00 0.14511779E+04</pdfrwt>
<totfact> 0.17781241E+01</totfact>
</mgrwt>
</event>
<event>
11    6  0.1663299E-008  0.1567777E+04  0.7818608E-02  0.8840592E-01
          2   -1    0    0  501    0  0.00000000000E+00  0.00000000000E+00  0.16119603398E+04  0.16119603398E+04  0.00000000000E+00 0. -1.
         -1   -1    0    0    0  501 -0.00000000000E+00 -0.00000000000E+00 -0.38120125210E+03  0.38120125210E+03  0.00000000000E+00 0.  1.
         24    2    1    2    0    0 -0.18865869532E+03 -0.42617874334E+02  0.10234116653E+04  0.10447183426E+04  0.81587940752E+02 0.  0.
        254    2    1    2    0    0  0.18865869532E+03  0.42617874334E+02  0.20734742241E+03  0.94844324935E+03  0.90506533307E+03 0.  0.
         23    2    4    4    0    0  0.18152031561E+03 -0.18300784806E+03 -0.27761552446E+03  0.38825577670E+03  0.85033353971E+02 0.  0.
          2    1    3    3  502    0 -0.15991846664E+03 -0.24937859268E+02  0.65245279115E+03  0.67222798029E+03  0.00000000000E+00 0. -1.
         -1    1    3    3    0  502 -0.28740228677E+02 -0.17680015066E+02  0.37095887416E+03  0.37249036228E+03  0.00000000000E+00 0.  1.
         11    1    4    4    0    0 -0.69572583235E+02  0.89848199458E+02  0.13116037925E+03  0.17353987544E+03  0.00000000000E+00 0. -1.
        -11    1    4    4    0    0  0.76710962944E+02  0.13577752293E+03  0.35380256763E+03  0.38664759721E+03  0.00000000000E+00 0.  1.
          4    1    5    5  503    0  0.71913247625E+02 -0.58861562086E+02 -0.46456949521E+02  0.10389632734E+03  0.00000000000E+00 0. -1.
         -4    1    5    5    0  503  0.10960706798E+03 -0.12414628597E+03 -0.23115857494E+03  0.28435944936E+03  0.00000000000E+00 0.  1.
<mgrwt>
<rscale>  0 0.15677772E+04</rscale>
<asrwt>0</asrwt>
<pdfrwt beam="1">  1        2 0.24799389E+00 0.15677772E+04</pdfrwt>
<pdfrwt beam="2">  1       -1 0.58646348E-01 0.15677772E+04</pdfrwt>
<totfact> 0.35435993E+01</totfact>
</mgrwt>
</event>
<event>
12    6  0.1663299E-008  0.1476564E+04  0.7818608E-02  0.8900189E-01
          2   -1    0    0  501    0  0.00000000000E+00  0.00000000000E+00  0.11978701498E+04  0.11978701498E+04  0.00000000000E+00 0. -1.
         -1   -1    0    0    0  501 -0.00000000000E+00 -0.00000000000E+00 -0.45502434139E+03  0.45502434139E+03  0.00000000000E+00 0.  1.
         24    2    1    2    0    0 -0.23595128127E+03 -0.10468800935E+03  0.65581161905E+03  0.71009479590E+03  0.86678446237E+02 0.  0.
        254    2    1    2    0    0  0.23595128127E+03  0.10468800935E+03  0.87034189371E+02  0.94279969530E+03  0.90258724172E+03 0.  0.
         23    2    4    4    0    0 -0.82288018637E+02 -0.29890675220E+03  0.24066309745E+03  0.39916542711E+03  0.72785625023E+02 0.  0.
         23    2    4    4    0    0  0.31823929990E+03  0.40359476155E+03 -0.15362890808E+03  0.54363426819E+03  0.88155502396E+02 0.  0.
          4    1    3    3  502    0 -0.12105930731E+03 -0.83098393803E+02  0.45060009446E+03  0.47392103147E+03  0.00000000000E+00 0. -1.
         -3    1    3    3    0  502 -0.11489197396E+03 -0.21589615551E+02  0.20521152459E+03  0.23617376443E+03  0.00000000000E+00 0.  1.
         11    1    5    5    0    0 -0.62886480057E+02 -0.20097657638E+03  0.20289835101E+03  0.29242782780E+03  0.00000000000E+00 0.  1.
        -11    1    5    5    0    0 -0.19401538580E+02 -0.97930175811E+02  0.37764746438E+02  0.10673759931E+03  0.00000000000E+00 0. -1.
          3    1    6    6  503    0  0.28159139612E+03  0.30510667227E+03 -0.13719550398E+03  0.43727154280E+03  0.00000000000E+00 0.  1.
         -3    1    6    6    0  503  0.36647903782E+02  0.98488089284E+02 -0.16433404092E+02  0.10636272539E+03  0.00000000000E+00 0. -1.
<mgrwt>
<rscale>  0 0.14765637E+04</rscale>
<asrwt>0</asrwt>
<pdfrwt beam="1">  1        2 0.18428771E+00 0.14765637E+04</pdfrwt>
<pdfrwt beam="2">  1       -1 0.70003745E-01 0.14765637E+04</pdfrwt>
<totfact> 0.43254219E+01</totfact>
</mgrwt>
</event>
<event>
12    6  0.1663299E-008  0.1673995E+04  0.7818608E-02  0.8776336E-01
          2   -1    0    0  501    0  0.00000000000E+00  0.00000000000E+00  0.12318902565E+04  0.12318902565E+04  0.00000000000E+00 0. -1.
         -3   -1    0    0    0  501 -0.00000000000E+00 -0.00000000000E+00 -0.56869108391E+03  0.56869108391E+03  0.00000000000E+00 0.  1.
         24    2    1    2    0    0 -0.44315092084E+03  0.34088005078E+03  0.20621788292E+02  0.56769530173E+03  0.96284732899E+02 0.  0.
        254    2    1    2    0    0  0.44315092084E+03 -0.34088005078E+03  0.64257738433E+03  0.12328860387E+04  0.89135870554E+03 0.  0.
         23    2    4    4    0    0  0.19504004987E+03 -0.37714413717E+03  0.80757655595E+03  0.91881798800E+03  0.10848170396E+03 0.  0.
         23    2    4    4    0    0  0.24811087097E+03  0.36264086385E+02 -0.16499917162E+03  0.31406805072E+03  0.92411717831E+02 0.  0.
          2    1    3    3  502    0 -0.16597645892E+03  0.17047319799E+03  0.42084741934E+02  0.24162040818E+03  0.00000000000E+00 0. -1.
         -1    1    3    3    0  502 -0.27717446193E+03  0.17040685280E+03 -0.21462953642E+02  0.32607489355E+03  0.00000000000E+00 0.  1.
         11    1    5    5    0    0  0.16907733377E+02 -0.13822626453E+03  0.28615319535E+03  0.31823893989E+03  0.00000000000E+00 0. -1.
        -11    1    5    5    0    0  0.17813231649E+03 -0.23891787264E+03  0.52142336060E+03  0.60057904811E+03  0.00000000000E+00 0.  1.
          3    1    6    6  503    0  0.24152107368E+02  0.27151524183E+02 -0.10338031517E+01  0.36353793539E+02  0.00000000000E+00 0. -1.
         -3    1    6    6    0  503  0.22395876360E+03  0.91125622028E+01 -0.16396536846E+03  0.27771425718E+03  0.00000000000E+00 0.  1.
<mgrwt>
<rscale>  0 0.16739952E+04</rscale>
<asrwt>0</asrwt>
<pdfrwt beam="1">  1        2 0.18952158E+00 0.16739952E+04</pdfrwt>
<pdfrwt beam="2">  1       -3 0.87490936E-01 0.16739952E+04</pdfrwt>
<totfact> 0.13068546E+01</totfact>
</mgrwt>
</event>
<event>
11    6  0.1663299E-008  0.2211983E+04  0.7818608E-02  0.8513457E-01
          2   -1    0    0  501    0  0.00000000000E+00  0.00000000000E+00  0.44920831178E+04  0.44920831178E+04  0.00000000000E+00 0. -1.
         -1   -1    0    0    0  501 -0.00000000000E+00 -0.00000000000E+00 -0.27230521993E+03  0.27230521993E+03  0.00000000000E+00 0.  1.
         24    2    1    2    0    0  0.53026038872E+03 -0.75078440280E+03  0.17919576235E+04  0.20155829554E+04  0.81297149580E+02 0.  0.
        254    2    1    2    0    0 -0.53026038872E+03  0.75078440280E+03  0.24278202744E+04  0.27488053823E+04  0.90375131852E+03 0.  0.
         23    2    4    4    0    0 -0.55911561792E+03  0.51130701396E+02  0.10079012209E+04  0.11575449409E+04  0.93919094495E+02 0.  0.
          4    1    3    3  502    0  0.50711072943E+03 -0.73125264999E+03  0.17009479367E+04  0.19196654952E+04  0.00000000000E+00 0. -1.
         -3    1    3    3    0  502  0.23149659285E+02 -0.19531752810E+02  0.91009686740E+02  0.95917460211E+02  0.00000000000E+00 0.  1.
         11    1    4    4    0    0  0.56206746715E+02  0.25891073429E+03  0.67717836599E+03  0.72716195312E+03  0.00000000000E+00 0. -1.
        -11    1    4    4    0    0 -0.27351517516E+02  0.44074296711E+03  0.74274068751E+03  0.86409848828E+03  0.00000000000E+00 0.  1.
          1    1    5    5  503    0 -0.54989122338E+03  0.63724872983E+02  0.98306009160E+03  0.11282058149E+04  0.00000000000E+00 0. -1.
         -1    1    5    5    0  503 -0.92243945392E+01 -0.12594171586E+02  0.24841129308E+02  0.29339126058E+02  0.00000000000E+00 0.  1.
<mgrwt>
<rscale>  0 0.22119834E+04</rscale>
<asrwt>0</asrwt>
<pdfrwt beam="1">  1        2 0.69108966E+00 0.22119834E+04</pdfrwt>
<pdfrwt beam="2">  1       -1 0.41893114E-01 0.22119834E+04</pdfrwt>
<totfact> 0.73648740E-01</totfact>
</mgrwt>
</event>
<event>
12    6  0.1663299E-008  0.1574892E+04  0.7818608E-02  0.8836123E-01
          2   -1    0    0  501    0  0.00000000000E+00  0.00000000000E+00  0.14244432192E+04  0.14244432192E+04  0.00000000000E+00 0. -1.
         -1   -1    0    0    0  501 -0.00000000000E+00 -0.00000000000E+00 -0.43530783680E+03  0.43530783680E+03  0.00000000000E+00 0.  1.
         24    2    1    2    0    0 -0.14512776830E+01 -0.61186985606E+02  0.94804071637E+03  0.95335057929E+03  0.79687977306E+02 0.  0.
        254    2    1    2    0    0  0.14512776830E+01  0.61186985606E+02  0.41094666027E+02  0.90640047671E+03  0.90339753109E+03 0.  0.
         23    2    4    4    0    0  0.22583314795E+03  0.66651678235E+02 -0.36049414166E+03  0.43758261877E+03  0.77970925068E+02 0.  0.
         23    2    4    4    0    0 -0.22438187027E+03 -0.54646926282E+01  0.40158880768E+03  0.46881785793E+03  0.90219326583E+02 0.  0.
          4    1    3    3  502    0 -0.37618058821E+02 -0.33844406542E+02  0.63916985504E+03  0.64116976363E+03  0.00000000000E+00 0. -1.
         -3    1    3    3    0  502  0.36166781138E+02 -0.27342579064E+02  0.30887086133E+03  0.31218081566E+03  0.00000000000E+00 0.  1.
         11    1    5    5    0    0  0.21260112955E+03  0.81577316008E+02 -0.32442507138E+03  0.39636564648E+03  0.00000000000E+00 0. -1.
        -11    1    5    5    0    0  0.13232018409E+02 -0.14925637774E+02 -0.36069070274E+02  0.41216972288E+02  0.00000000000E+00 0.  1.
          1    1    6    6  503    0 -0.20311912567E+03  0.54574280165E+01  0.39471554695E+03  0.44394540851E+03  0.00000000000E+00 0. -1.
         -1    1    6    6    0  503 -0.21262744601E+02 -0.10922120645E+02  0.68732607381E+01  0.24872449427E+02  0.00000000000E+00 0.  1.
<mgrwt>
<rscale>  0 0.15748921E+04</rscale>
<asrwt>0</asrwt>
<pdfrwt beam="1">  1        2 0.21914511E+00 0.15748921E+04</pdfrwt>
<pdfrwt beam="2">  1       -1 0.66970437E-01 0.15748921E+04</pdfrwt>
<totfact> 0.34654466E+01</totfact>
</mgrwt>
</event>
<event>
11    6  0.1663299E-008  0.1868596E+04  0.7818608E-02  0.8670648E-01
          2   -1    0    0  501    0  0.00000000000E+00  0.00000000000E+00  0.23693384942E+04  0.23693384942E+04  0.00000000000E+00 0. -1.
         -1   -1    0    0    0  501 -0.00000000000E+00 -0.00000000000E+00 -0.36842060720E+03  0.36842060720E+03  0.00000000000E+00 0.  1.
         24    2    1    2    0    0 -0.83860515784E+02  0.55981368829E+03  0.13502950379E+04  0.14664312271E+04  0.81852932207E+02 0.  0.
        254    2    1    2    0    0  0.83860515784E+02 -0.55981368829E+03  0.65062284906E+03  0.12713278743E+04  0.93409877456E+03 0.  0.
         23    2    4    4    0    0  0.44900954108E+03 -0.51571293801E+03  0.50398599548E+03  0.85397518402E+03  0.87762912886E+02 0.  0.
          4    1    3    3  502    0 -0.68428195033E+02  0.38365298791E+03  0.83072196588E+03  0.91758978722E+03  0.00000000000E+00 0. -1.
         -3    1    3    3    0  502 -0.15432320752E+02  0.17616070038E+03  0.51957307204E+03  0.54884143983E+03  0.00000000000E+00 0.  1.
         11    1    4    4    0    0 -0.34554306109E+03 -0.59244290280E+02  0.16405285316E+03  0.38707006036E+03  0.00000000000E+00 0. -1.
        -11    1    4    4    0    0 -0.19605964206E+02  0.15143539993E+02 -0.17415999572E+02  0.30282629956E+02  0.00000000000E+00 0.  1.
          3    1    5    5  503    0  0.17716468436E+03 -0.16275233184E+03  0.13751614957E+03  0.27710347940E+03  0.00000000000E+00 0. -1.
         -3    1    5    5    0  503  0.27184485671E+03 -0.35296060617E+03  0.36646984591E+03  0.57687170462E+03  0.00000000000E+00 0.  1.
<mgrwt>
<rscale>  0 0.18685964E+04</rscale>
<asrwt>0</asrwt>
<pdfrwt beam="1">  1        2 0.36451361E+00 0.18685964E+04</pdfrwt>
<pdfrwt beam="2">  1       -1 0.56680095E-01 0.18685964E+04</pdfrwt>
<totfact> 0.13949878E+01</totfact>
</mgrwt>
</event>
<event>
12    6  0.1663299E-008  0.2282003E+04  0.7818608E-02  0.8485051E-01
          2   -1    0    0  501    0  0.00000000000E+00  0.00000000000E+00  0.11540166096E+04  0.11540166096E+04  0.00000000000E+00 0. -1.
         -1   -1    0    0    0  501 -0.00000000000E+00 -0.00000000000E+00 -0.11281329608E+04  0.11281329608E+04  0.00000000000E+00 0.  1.
         24    2    1    2    0    0  0.51725925098E+03  0.12531093391E+03 -0.79305934607E+03  0.95850207102E+03  0.80765901714E+02 0.  0.
        254    2    1    2    0    0 -0.51725925098E+03 -0.12531093391E+03  0.81894299485E+03  0.13236474993E+04  0.89337288449E+03 0.  0.
         23    2    4    4    0    0 -0.62118217505E+03  0.21543141424E+03  0.61533850321E+03  0.90384746843E+03  0.77593709858E+02 0.  0.
         23    2    4    4    0    0  0.10392292407E+03 -0.34074234815E+03  0.20360449163E+03  0.41980003088E+03  0.88724038125E+02 0.  0.
          4    1    3    3  502    0  0.22398137351E+03  0.54192564762E+02 -0.27330922318E+03  0.35749464503E+03  0.00000000000E+00 0. -1.
         -3    1    3    3    0  502  0.29327787748E+03  0.71118369150E+02 -0.51975012289E+03  0.60100742599E+03  0.00000000000E+00 0.  1.
         11    1    5    5    0    0 -0.29181458102E+03  0.14216878186E+03  0.30523994716E+03  0.44557730819E+03  0.00000000000E+00 0.  1.
        -11    1    5    5    0    0 -0.32936759403E+03  0.73262632383E+02  0.31009855605E+03  0.45827016024E+03  0.00000000000E+00 0. -1.
          4    1    6    6  503    0  0.50231537414E+02 -0.28623711192E+03  0.16096189312E+03  0.33221020849E+03  0.00000000000E+00 0. -1.
         -4    1    6    6    0  503  0.53691386653E+02 -0.54505236238E+02  0.42642598514E+02  0.87589822389E+02  0.00000000000E+00 0.  1.
<mgrwt>
<rscale>  0 0.22820028E+04</rscale>
<asrwt>0</asrwt>
<pdfrwt beam="1">  1        2 0.17754102E+00 0.22820028E+04</pdfrwt>
<pdfrwt beam="2">  1       -1 0.17355892E+00 0.22820028E+04</pdfrwt>
<totfact> 0.48425358E+00</totfact>
</mgrwt>
</event>
<event>
12    6  0.2757007E-008  0.1184083E+04  0.7818608E-02  0.9126904E-01
          2   -1    0    0  501    0  0.00000000000E+00  0.00000000000E+00  0.10539348643E+04  0.10539348643E+04  0.00000000000E+00 0. -1.
         -1   -1    0    0    0  501 -0.00000000000E+00 -0.00000000000E+00 -0.33257545289E+03  0.33257545289E+03  0.00000000000E+00 0.  1.
         24    2    1    2    0    0  0.11770622150E+03  0.11636135620E+03  0.42956405658E+03  0.47018214585E+03  0.95662175250E+02 0.  0.
        254    2    1    2    0    0 -0.11770622150E+03 -0.11636135620E+03  0.29179535480E+03  0.91632817131E+03  0.85271218395E+03 0.  0.
         23    2    4    4    0    0 -0.29975525865E+03 -0.14509775814E+03 -0.18672010720E+03  0.39582469714E+03  0.10443283932E+03 0.  0.
         23    2    4    4    0    0  0.18204903715E+03  0.28736401945E+02  0.47851546199E+03  0.52050347417E+03  0.89326292471E+02 0.  0.
          2    1    3    3  502    0  0.12743819085E+03  0.79182660839E+02  0.30640626970E+03  0.34116739055E+03  0.00000000000E+00 0. -1.
         -1    1    3    3    0  502 -0.97319693410E+01  0.37178695358E+02  0.12315778688E+03  0.12901475530E+03  0.00000000000E+00 0.  1.
         11    1    5    5    0    0 -0.18960047620E+03 -0.13018922931E+03 -0.85154226840E+02  0.24525256034E+03  0.00000000000E+00 0. -1.
        -11    1    5    5    0    0 -0.11015478245E+03 -0.14908528832E+02 -0.10156588036E+03  0.15057213680E+03  0.00000000000E+00 0.  1.
          2    1    6    6  503    0  0.19160939095E+03  0.25974226884E+02  0.43797976272E+03  0.47876412952E+03  0.00000000000E+00 0. -1.
         -2    1    6    6    0  503 -0.95603537991E+01  0.27621750617E+01  0.40535699273E+02  0.41739344645E+02  0.00000000000E+00 0.  1.
<mgrwt>
<rscale>  0 0.11840825E+04</rscale>
<asrwt>0</asrwt>
<pdfrwt beam="1">  1        2 0.16214382E+00 0.11840825E+04</pdfrwt>
<pdfrwt beam="2">  1       -1 0.51165455E-01 0.11840825E+04</pdfrwt>
<totfact> 0.10067999E+02</totfact>
</mgrwt>
</event>
<event>
12    6  0.1663299E-008  0.2393925E+04  0.7818608E-02  0.8441781E-01
          2   -1    0    0  501    0  0.00000000000E+00  0.00000000000E+00  0.14387533333E+04  0.14387533333E+04  0.00000000000E+00 0. -1.
         -1   -1    0    0    0  501 -0.00000000000E+00 -0.00000000000E+00 -0.99580625784E+03  0.99580625784E+03  0.00000000000E+00 0.  1.
         24    2    1    2    0    0 -0.68162480519E+03  0.18137984218E+03 -0.55032827579E+03  0.89809041982E+03  0.78703042113E+02 0.  0.
        254    2    1    2    0    0  0.68162480519E+03 -0.18137984218E+03  0.99327535127E+03  0.15364691713E+04  0.93628551673E+03 0.  0.
         23    2    4    4    0    0  0.75303706146E+03 -0.26590180231E+03  0.35087617745E+03  0.87866261051E+03  0.10566601540E+03 0.  0.
         23    2    4    4    0    0 -0.71412256264E+02  0.84521960137E+02  0.64239917381E+03  0.65780656082E+03  0.88255882855E+02 0.  0.
          4    1    3    3  502    0 -0.14544150481E+03  0.32816366480E+02 -0.78063424671E+02  0.16829748513E+03  0.00000000000E+00 0. -1.
         -3    1    3    3    0  502 -0.53618330039E+03  0.14856347570E+03 -0.47226485112E+03  0.72979293469E+03  0.00000000000E+00 0.  1.
         11    1    5    5    0    0  0.80724901586E+02 -0.13422924777E+02  0.69455105735E+02  0.10733450684E+03  0.00000000000E+00 0. -1.
        -11    1    5    5    0    0  0.67231215987E+03 -0.25247887754E+03  0.28142107172E+03  0.77132810368E+03  0.00000000000E+00 0.  1.
          2    1    6    6  503    0 -0.27236220278E+02  0.31628117582E+02  0.71720008055E+02  0.82981377864E+02  0.00000000000E+00 0. -1.
         -2    1    6    6    0  503 -0.44176035986E+02  0.52893842556E+02  0.57067916576E+03  0.57482518296E+03  0.00000000000E+00 0.  1.
<mgrwt>
<rscale>  0 0.23939253E+04</rscale>
<asrwt>0</asrwt>
<pdfrwt beam="1">  1        2 0.22134667E+00 0.23939253E+04</pdfrwt>
<pdfrwt beam="2">  1       -1 0.15320096E+00 0.23939253E+04</pdfrwt>
<totfact> 0.46439468E+00</totfact>
</mgrwt>
</event>
<event>
11    6  0.1663299E-008  0.1282076E+04  0.7818608E-02  0.9043901E-01
          2   -1    0    0  501    0  0.00000000000E+00  0.00000000000E+00  0.63965713337E+03  0.63965713337E+03  0.00000000000E+00 0. -1.
         -1   -1    0    0    0  501 -0.00000000000E+00 -0.00000000000E+00 -0.64242184867E+03  0.64242184867E+03  0.00000000000E+00 0.  1.
         24    2    1    2    0    0  0.14444861844E+03  0.27716645036E+03 -0.79659717761E+01  0.32990189883E+03  0.10528609392E+03 0.  0.
        254    2    1    2    0    0 -0.14444861844E+03 -0.27716645036E+03  0.52012564753E+01  0.95217708320E+03  0.89940396937E+03 0.  0.
         23    2    4    4    0    0  0.80861934636E+02 -0.53454047537E+03  0.11324132527E+03  0.55956189342E+03  0.89519509261E+02 0.  0.
          2    1    3    3  502    0  0.11888468260E+03  0.25624081137E+03  0.24558579457E+02  0.28354196338E+03  0.00000000000E+00 0. -1.
         -1    1    3    3    0  502  0.25563935845E+02  0.20925638984E+02 -0.32524551233E+02  0.46359935458E+02  0.00000000000E+00 0.  1.
         11    1    4    4    0    0 -0.11428532996E+02  0.11254408319E+03 -0.65834451240E+02  0.13088528182E+03  0.00000000000E+00 0. -1.
        -11    1    4    4    0    0 -0.21388202008E+03  0.14482994183E+03 -0.42205617559E+02  0.26172990795E+03  0.00000000000E+00 0.  1.
          1    1    5    5  503    0  0.93867146047E+02 -0.52010769019E+03  0.11055084352E+03  0.53994864525E+03  0.00000000000E+00 0. -1.
         -1    1    5    5    0  503 -0.13005211412E+02 -0.14432785183E+02  0.26904817585E+01  0.19613248178E+02  0.00000000000E+00 0.  1.
<mgrwt>
<rscale>  0 0.12820760E+04</rscale>
<asrwt>0</asrwt>
<pdfrwt beam="1">  1        2 0.98408789E-01 0.12820760E+04</pdfrwt>
<pdfrwt beam="2">  1       -1 0.98834131E-01 0.12820760E+04</pdfrwt>
<totfact> 0.50372582E+01</totfact>
</mgrwt>
</event>
<event>
12    6  0.1663299E-008  0.1714966E+04  0.7818608E-02  0.8752874E-01
         -1   -1    0    0    0  501 -0.00000000000E+00  0.00000000000E+00  0.71976398089E+03  0.71976398089E+03  0.00000000000E+00 0.  1.
          2   -1    0    0  501    0  0.00000000000E+00 -0.00000000000E+00 -0.10215529526E+04  0.10215529526E+04  0.00000000000E+00 0. -1.
         24    2    1    2    0    0  0.34089918337E+03  0.43967194526E+03  0.16941039198E+03  0.58681039035E+03  0.78248837958E+02 0.  0.
        254    2    1    2    0    0 -0.34089918337E+03 -0.43967194526E+03 -0.47119936367E+03  0.11545065431E+04  0.89517196399E+03 0.  0.
         23    2    4    4    0    0 -0.47981547894E+03  0.13276426048E+02 -0.45185525987E+03  0.67157451724E+03  0.12821855958E+03 0.  0.
         23    2    4    4    0    0  0.13891629557E+03 -0.45294837131E+03 -0.19344103794E+02  0.48293202587E+03  0.91592483395E+02 0.  0.
          2    1    3    3  502    0  0.45524590626E+02  0.56383720876E+02 -0.45089424949E+01  0.72608146196E+02  0.00000000000E+00 0. -1.
         -1    1    3    3    0  502  0.29537459274E+03  0.38328822438E+03  0.17391933448E+03  0.51420224415E+03  0.00000000000E+00 0.  1.
         11    1    5    5    0    0 -0.23807928897E+03  0.59103837413E+02 -0.17585509018E+03  0.30182780551E+03  0.00000000000E+00 0. -1.
        -11    1    5    5    0    0 -0.24173618996E+03 -0.45827411365E+02 -0.27600016969E+03  0.36974671174E+03  0.00000000000E+00 0.  1.
          2    1    6    6  503    0  0.13696921084E+03 -0.36021367723E+03  0.10425437575E+02  0.38551672822E+03  0.00000000000E+00 0.  1.
         -2    1    6    6    0  503  0.19470847271E+01 -0.92734694073E+02 -0.29769541368E+02  0.97415297654E+02  0.00000000000E+00 0. -1.
<mgrwt>
<rscale>  0 0.17149659E+04</rscale>
<asrwt>0</asrwt>
<pdfrwt beam="1">  1        2 0.15716199E+00 0.17149659E+04</pdfrwt>
<pdfrwt beam="2">  1       -1 0.11073292E+00 0.17149659E+04</pdfrwt>
<totfact> 0.19879543E+01</totfact>
</mgrwt>
</event>
<event>
12    6  0.1663299E-008  0.2130759E+04  0.7818608E-02  0.8547814E-01
          2   -1    0    0  501    0  0.00000000000E+00  0.00000000000E+00  0.32942218687E+04  0.32942218687E+04  0.00000000000E+00 0. -1.
         -1   -1    0    0    0  501 -0.00000000000E+00 -0.00000000000E+00 -0.34455283316E+03  0.34455283316E+03  0.00000000000E+00 0.  1.
         24    2    1    2    0    0  0.20064228556E+03 -0.79851443030E+03  0.17104033022E+04  0.18999412876E+04  0.80092560009E+02 0.  0.
        254    2    1    2    0    0 -0.20064228556E+03  0.79851443030E+03  0.12392657334E+04  0.17388334143E+04  0.89993303220E+03 0.  0.
         23    2    4    4    0    0 -0.64130199549E+02  0.96564321261E+03  0.10828794375E+04  0.14573130384E+04  0.12063962529E+03 0.  0.
         23    2    4    4    0    0 -0.13651208601E+03 -0.16712878230E+03  0.15638629584E+03  0.28152037582E+03  0.90716420644E+02 0.  0.
          4    1    3    3  502    0  0.10703117625E+03 -0.46520289349E+03  0.10783041850E+04  0.11792409933E+04  0.00000000000E+00 0. -1.
         -3    1    3    3    0  502  0.93611109313E+02 -0.33331153681E+03  0.63209911716E+03  0.72070029435E+03  0.00000000000E+00 0.  1.
         11    1    5    5    0    0 -0.86563308989E+02  0.43005934945E+03  0.51114241394E+03  0.67358059491E+03  0.00000000000E+00 0. -1.
        -11    1    5    5    0    0  0.22433109440E+02  0.53558386316E+03  0.57173702361E+03  0.78373244353E+03  0.00000000000E+00 0.  1.
          4    1    6    6  503    0 -0.91456431719E+02 -0.41198141130E+02  0.69338544098E+02  0.12194014693E+03  0.00000000000E+00 0.  1.
         -4    1    6    6    0  503 -0.45055654292E+02 -0.12593064117E+03  0.87047751741E+02  0.15958022889E+03  0.00000000000E+00 0. -1.
<mgrwt>
<rscale>  0 0.21307590E+04</rscale>
<asrwt>0</asrwt>
<pdfrwt beam="1">  1        2 0.50680334E+00 0.21307590E+04</pdfrwt>
<pdfrwt beam="2">  1       -1 0.53008131E-01 0.21307590E+04</pdfrwt>
<totfact> 0.42310273E+00</totfact>
</mgrwt>
</event>
<event>
12    6  0.1663299E-008  0.2969823E+04  0.7818608E-02  0.8252401E-01
         -3   -1    0    0    0  501 -0.00000000000E+00  0.00000000000E+00  0.18468738032E+04  0.18468738032E+04  0.00000000000E+00 0.  1.
          4   -1    0    0  501    0  0.00000000000E+00 -0.00000000000E+00 -0.11938890748E+04  0.11938890748E+04  0.00000000000E+00 0. -1.
         24    2    1    2    0    0  0.11325548570E+04 -0.72956173236E+03  0.31640320707E+03  0.13863158661E+04  0.82582478327E+02 0.  0.
        254    2    1    2    0    0 -0.11325548570E+04  0.72956173236E+03  0.33658152130E+03  0.16544470119E+04  0.89942591095E+03 0.  0.
         23    2    4    4    0    0  0.32543666308E+02 -0.78207023839E+02  0.17794819937E+03  0.22504434101E+03  0.10864605363E+03 0.  0.
         23    2    4    4    0    0 -0.11650985233E+04  0.80776875620E+03  0.15863332194E+03  0.14294026709E+04  0.89902904395E+02 0.  0.
          2    1    3    3  502    0  0.92495368106E+03 -0.63162649655E+03  0.27015651396E+03  0.11521613972E+04  0.00000000000E+00 0. -1.
         -1    1    3    3    0  502  0.20760117596E+03 -0.97935235806E+02  0.46246693104E+02  0.23415446888E+03  0.00000000000E+00 0.  1.
         11    1    5    5    0    0  0.51780168499E+02 -0.83619238532E+02  0.17983391807E+03  0.20497219565E+03  0.00000000000E+00 0. -1.
        -11    1    5    5    0    0 -0.19236502191E+02  0.54122146934E+01 -0.18857186995E+01  0.20072145362E+02  0.00000000000E+00 0.  1.
          2    1    6    6  503    0 -0.89566484780E+03  0.64883182073E+03  0.15314842695E+03  0.11165360235E+04  0.00000000000E+00 0. -1.
         -2    1    6    6    0  503 -0.26943367553E+03  0.15893693546E+03  0.54848949874E+01  0.31286664737E+03  0.00000000000E+00 0.  1.
<mgrwt>
<rscale>  0 0.29698232E+04</rscale>
<asrwt>0</asrwt>
<pdfrwt beam="1">  1        4 0.18367524E+00 0.29698232E+04</pdfrwt>
<pdfrwt beam="2">  1       -3 0.28413443E+00 0.29698232E+04</pdfrwt>
<totfact> 0.15422986E-02</totfact>
</mgrwt>
</event>
<event>
12    6  0.1663299E-008  0.1424231E+04  0.7818608E-02  0.8936464E-01
         -3   -1    0    0    0  501 -0.00000000000E+00  0.00000000000E+00  0.10185350728E+04  0.10185350728E+04  0.00000000000E+00 0.  1.
          4   -1    0    0  501    0  0.00000000000E+00 -0.00000000000E+00 -0.49787995771E+03  0.49787995771E+03  0.00000000000E+00 0. -1.
         24    2    1    2    0    0  0.94704025301E+02 -0.99343522270E+02  0.58146141133E+03  0.60270423020E+03  0.79479735838E+02 0.  0.
        254    2    1    2    0    0 -0.94704025301E+02  0.99343522270E+02 -0.60806296205E+02  0.91371080034E+03  0.90129464282E+03 0.  0.
         23    2    4    4    0    0 -0.29578567416E+03  0.21770611558E+03  0.29087922367E+03  0.48222350513E+03  0.11420888031E+03 0.  0.
         23    2    4    4    0    0  0.20108164886E+03 -0.11836259331E+03 -0.35168551987E+03  0.43148729521E+03  0.89749919420E+02 0.  0.
          2    1    3    3  502    0  0.27566982091E+02  0.10703926321E+02  0.99600392785E+02  0.10389779008E+03  0.00000000000E+00 0. -1.
         -1    1    3    3    0  502  0.67137043210E+02 -0.11004744859E+03  0.48186101854E+03  0.49880644012E+03  0.00000000000E+00 0.  1.
         11    1    5    5    0    0 -0.90972707841E+02  0.16902785053E+02  0.38683803967E+02  0.10029045021E+03  0.00000000000E+00 0. -1.
        -11    1    5    5    0    0 -0.20481296632E+03  0.20080333052E+03  0.25219541970E+03  0.38193305492E+03  0.00000000000E+00 0.  1.
          4    1    6    6  503    0  0.91144783112E+01 -0.39636482252E+02 -0.78853097072E+02  0.88723927764E+02  0.00000000000E+00 0. -1.
         -4    1    6    6    0  503  0.19196717055E+03 -0.78726111057E+02 -0.27283242280E+03  0.34276336744E+03  0.00000000000E+00 0.  1.
<mgrwt>
<rscale>  0 0.14242306E+04</rscale>
<asrwt>0</asrwt>
<pdfrwt beam="1">  1        4 0.76596917E-01 0.14242306E+04</pdfrwt>
<pdfrwt beam="2">  1       -3 0.15669770E+00 0.14242306E+04</pdfrwt>
<totfact> 0.97948245E-01</totfact>
</mgrwt>
</event>
<event>
12    6  0.1663299E-008  0.2643886E+04  0.7818608E-02  0.8353445E-01
         -1   -1    0    0    0  501 -0.00000000000E+00  0.00000000000E+00  0.84251510841E+03  0.84251510841E+03  0.00000000000E+00 0.  1.
          2   -1    0    0  501    0  0.00000000000E+00 -0.00000000000E+00 -0.20741857967E+04  0.20741857967E+04  0.00000000000E+00 0. -1.
         24    2    1    2    0    0 -0.11210735300E+04  0.12173871968E+03 -0.88800383431E+03  0.14374915777E+04  0.78772143787E+02 0.  0.
        254    2    1    2    0    0  0.11210735300E+04 -0.12173871968E+03 -0.34366685395E+03  0.14792093274E+04  0.89349155118E+03 0.  0.
         23    2    4    4    0    0  0.47038019682E+03  0.36297171605E+03 -0.28263071518E+03  0.66041323469E+03  0.57092233905E+02 0.  0.
         23    2    4    4    0    0  0.65069333322E+03 -0.48471043573E+03 -0.61036138765E+02  0.81879609267E+03  0.91409029866E+02 0.  0.
          2    1    3    3  502    0 -0.57360919161E+03  0.62461662304E+02 -0.50439227575E+03  0.76638145319E+03  0.00000000000E+00 0. -1.
         -3    1    3    3    0  502 -0.54746433843E+03  0.59277057372E+02 -0.38361155856E+03  0.67111012453E+03  0.00000000000E+00 0.  1.
         11    1    5    5    0    0  0.37335573445E+03  0.31507442181E+03 -0.22579249257E+03  0.53819015731E+03  0.00000000000E+00 0.  1.
        -11    1    5    5    0    0  0.97024462373E+02  0.47897294247E+02 -0.56838222610E+02  0.12222307738E+03  0.00000000000E+00 0. -1.
          1    1    6    6  503    0  0.10996569059E+02 -0.19243589093E+02 -0.14133209144E+02  0.26286647808E+02  0.00000000000E+00 0. -1.
         -1    1    6    6    0  503  0.63969676416E+03 -0.46546684664E+03 -0.46902929621E+02  0.79250944486E+03  0.00000000000E+00 0.  1.
<mgrwt>
<rscale>  0 0.26438857E+04</rscale>
<asrwt>0</asrwt>
<pdfrwt beam="1">  1        2 0.31910550E+00 0.26438857E+04</pdfrwt>
<pdfrwt beam="2">  1       -1 0.12961771E+00 0.26438857E+04</pdfrwt>
<totfact> 0.31115684E+00</totfact>
</mgrwt>
</event>
<event>
12    6  0.1663299E-008  0.2504184E+04  0.7818608E-02  0.8401497E-01
          2   -1    0    0  501    0  0.00000000000E+00  0.00000000000E+00  0.24925054234E+04  0.24925054234E+04  0.00000000000E+00 0. -1.
         -1   -1    0    0    0  501 -0.00000000000E+00 -0.00000000000E+00 -0.62897919779E+03  0.62897919779E+03  0.00000000000E+00 0.  1.
         24    2    1    2    0    0 -0.75185740743E+03  0.79546980625E+03  0.87042846166E+03  0.14007874278E+04  0.80609783914E+02 0.  0.
        254    2    1    2    0    0  0.75185740743E+03 -0.79546980625E+03  0.99309776397E+03  0.17206971934E+04  0.88118890643E+03 0.  0.
         23    2    4    4    0    0  0.78650527491E+03 -0.78644134713E+03  0.11047172772E+04  0.15714624843E+04  0.10960628277E+03 0.  0.
         23    2    4    4    0    0 -0.34647867480E+02 -0.90284591226E+01 -0.11161951323E+03  0.14923470906E+03  0.92358512651E+02 0.  0.
          2    1    3    3  502    0 -0.39072324907E+03  0.36120542412E+03  0.39878154188E+03  0.66495167789E+03  0.00000000000E+00 0. -1.
         -1    1    3    3    0  502 -0.36113415836E+03  0.43426438213E+03  0.47164691978E+03  0.73583574992E+03  0.00000000000E+00 0.  1.
         11    1    5    5    0    0  0.15605827104E+03 -0.20749775920E+03  0.29844033796E+03  0.39557065027E+03  0.00000000000E+00 0. -1.
        -11    1    5    5    0    0  0.63044700387E+03 -0.57894358792E+03  0.80627693924E+03  0.11758918341E+04  0.00000000000E+00 0.  1.
          1    1    6    6  503    0 -0.38861038154E+02 -0.13311449713E+02 -0.38056495923E+01  0.41253581041E+02  0.00000000000E+00 0. -1.
         -1    1    6    6    0  503  0.42131706748E+01  0.42829905901E+01 -0.10781386364E+03  0.10798112802E+03  0.00000000000E+00 0.  1.
<mgrwt>
<rscale>  0 0.25041837E+04</rscale>
<asrwt>0</asrwt>
<pdfrwt beam="1">  1        2 0.38346237E+00 0.25041837E+04</pdfrwt>
<pdfrwt beam="2">  1       -1 0.96766032E-01 0.25041837E+04</pdfrwt>
<totfact> 0.36617456E+00</totfact>
</mgrwt>
</event>
<event>
11    6  0.1663299E-008  0.1409899E+04  0.7818608E-02  0.8946684E-01
          2   -1    0    0  501    0  0.00000000000E+00  0.00000000000E+00  0.33665806375E+04  0.33665806375E+04  0.00000000000E+00 0. -1.
         -1   -1    0    0    0  501 -0.00000000000E+00 -0.00000000000E+00 -0.14761388827E+03  0.14761388827E+03  0.00000000000E+00 0.  1.
         24    2    1    2    0    0 -0.34415421645E+03  0.75883947072E+02  0.42082130522E+03  0.55491543983E+03  0.81486663410E+02 0.  0.
        254    2    1    2    0    0  0.34415421645E+03 -0.75883947072E+02  0.27981454440E+04  0.29592790859E+04  0.89638958300E+03 0.  0.
         23    2    4    4    0    0  0.23996160046E+03  0.22738396466E+03  0.22043431367E+04  0.22308917200E+04  0.92000896360E+02 0.  0.
          4    1    3    3  502    0 -0.46515133257E+02 -0.17602560518E+02  0.59216435374E+02  0.77331067347E+02  0.00000000000E+00 0. -1.
         -1    1    3    3    0  502 -0.29763908319E+03  0.93486507590E+02  0.36160486985E+03  0.47758437248E+03  0.00000000000E+00 0.  1.
         11    1    4    4    0    0  0.95486282708E+02 -0.34566480801E+03  0.43483852599E+03  0.56363670335E+03  0.00000000000E+00 0. -1.
        -11    1    4    4    0    0  0.87063332795E+01  0.42396896282E+02  0.15896378129E+03  0.16475066257E+03  0.00000000000E+00 0.  1.
          2    1    5    5  503    0  0.14809401298E+03  0.11171688887E+03  0.95528937544E+03  0.97313426143E+03  0.00000000000E+00 0. -1.
         -2    1    5    5    0  503  0.91867587482E+02  0.11566707579E+03  0.12490537613E+04  0.12577574586E+04  0.00000000000E+00 0.  1.
<mgrwt>
<rscale>  0 0.14098994E+04</rscale>
<asrwt>0</asrwt>
<pdfrwt beam="1">  1        2 0.51793542E+00 0.14098994E+04</pdfrwt>
<pdfrwt beam="2">  1       -1 0.22709832E-01 0.14098994E+04</pdfrwt>
<totfact> 0.18636779E+01</totfact>
</mgrwt>
</event>
<event>
11    6  0.1663299E-008  0.1884249E+04  0.7818608E-02  0.8662737E-01
          2   -1    0    0  501    0  0.00000000000E+00  0.00000000000E+00  0.29902724217E+04  0.29902724217E+04  0.00000000000E+00 0. -1.
         -1   -1    0    0    0  501 -0.00000000000E+00 -0.00000000000E+00 -0.29682852165E+03  0.29682852165E+03  0.00000000000E+00 0.  1.
         24    2    1    2    0    0 -0.16076412257E+03 -0.72142737144E+03  0.92073184217E+03  0.11834527467E+04  0.80689052258E+02 0.  0.
        254    2    1    2    0    0  0.16076412257E+03  0.72142737144E+03  0.17727120579E+04  0.21036481967E+04  0.85821042856E+03 0.  0.
         23    2    4    4    0    0  0.29984696288E+03  0.38722865073E+03  0.15841401495E+04  0.16608585873E+04  0.95378217685E+02 0.  0.
          2    1    3    3  502    0 -0.72160469572E+01 -0.12018385455E+03  0.18815801310E+03  0.22338233619E+03  0.00000000000E+00 0. -1.
         -1    1    3    3    0  502 -0.15354807561E+03 -0.60124351689E+03  0.73257382907E+03  0.96007041052E+03  0.00000000000E+00 0.  1.
         11    1    4    4    0    0  0.23870245886E+02 -0.48152183521E+01  0.87841927852E+01  0.25887004642E+02  0.00000000000E+00 0.  1.
        -11    1    4    4    0    0 -0.16295308619E+03  0.33901393906E+03  0.17978771559E+03  0.41690260476E+03  0.00000000000E+00 0. -1.
          3    1    5    5  503    0  0.28639582310E+03  0.34502078044E+03  0.15023961780E+04  0.15678827068E+04  0.00000000000E+00 0. -1.
         -3    1    5    5    0  503  0.13451139777E+02  0.42207870293E+02  0.81743971531E+02  0.92975880516E+02  0.00000000000E+00 0.  1.
<mgrwt>
<rscale>  0 0.18842485E+04</rscale>
<asrwt>0</asrwt>
<pdfrwt beam="1">  1        2 0.46004189E+00 0.18842485E+04</pdfrwt>
<pdfrwt beam="2">  1       -1 0.45665928E-01 0.18842485E+04</pdfrwt>
<totfact> 0.90090765E+00</totfact>
</mgrwt>
</event>
<event>
12    6  0.1663299E-008  0.2347167E+04  0.7818608E-02  0.8459552E-01
         -1   -1    0    0    0  501 -0.00000000000E+00  0.00000000000E+00  0.13285731351E+04  0.13285731351E+04  0.00000000000E+00 0.  1.
          2   -1    0    0  501    0  0.00000000000E+00 -0.00000000000E+00 -0.10366751898E+04  0.10366751898E+04  0.00000000000E+00 0. -1.
         24    2    1    2    0    0  0.10810369552E+03 -0.93986515087E+03 -0.11175286520E+03  0.95631372618E+03  0.83751592168E+02 0.  0.
        254    2    1    2    0    0 -0.10810369552E+03  0.93986515087E+03  0.40365081045E+03  0.14089345987E+04  0.96287580503E+03 0.  0.
         23    2    4    4    0    0  0.59256447698E+02  0.10503182213E+04  0.49810690125E+03  0.11694031103E+04  0.11275396584E+03 0.  0.
         23    2    4    4    0    0 -0.16736014322E+03 -0.11045307038E+03 -0.94456090806E+02  0.23953148843E+03  0.90796930356E+02 0.  0.
          4    1    3    3  502    0  0.82491818187E+02 -0.42552134190E+03 -0.25817043802E+02  0.43421173663E+03  0.00000000000E+00 0. -1.
         -3    1    3    3    0  502  0.25611877334E+02 -0.51434380897E+03 -0.85935821396E+02  0.52210198955E+03  0.00000000000E+00 0.  1.
         11    1    5    5    0    0  0.71065744488E+02  0.10011209099E+04  0.45115519837E+03  0.11003792207E+04  0.00000000000E+00 0. -1.
        -11    1    5    5    0    0 -0.11809296790E+02  0.49197311350E+02  0.46951702884E+02  0.69023889621E+02  0.00000000000E+00 0.  1.
          1    1    6    6  503    0 -0.17850032422E+03 -0.10075280842E+03 -0.91496986430E+02  0.22446646225E+03  0.00000000000E+00 0. -1.
         -1    1    6    6    0  503  0.11140181000E+02 -0.97002619678E+01 -0.29591043762E+01  0.15065026175E+02  0.00000000000E+00 0.  1.
<mgrwt>
<rscale>  0 0.23471675E+04</rscale>
<asrwt>0</asrwt>
<pdfrwt beam="1">  1        2 0.15948849E+00 0.23471675E+04</pdfrwt>
<pdfrwt beam="2">  1       -1 0.20439587E+00 0.23471675E+04</pdfrwt>
<totfact> 0.34500378E+00</totfact>
</mgrwt>
</event>
<event>
11    6  0.1663299E-008  0.1005471E+04  0.7818608E-02  0.9302564E-01
          2   -1    0    0  501    0  0.00000000000E+00  0.00000000000E+00  0.22197079766E+04  0.22197079766E+04  0.00000000000E+00 0. -1.
         -1   -1    0    0    0  501 -0.00000000000E+00 -0.00000000000E+00 -0.11386323141E+03  0.11386323141E+03  0.00000000000E+00 0.  1.
         24    2    1    2    0    0 -0.63636097467E+02  0.23719146666E+02  0.22280834596E+03  0.24395165396E+03  0.72503100787E+02 0.  0.
        254    2    1    2    0    0  0.63636097467E+02 -0.23719146666E+02  0.18830363993E+04  0.20896195541E+04  0.90336684076E+03 0.  0.
         23    2    4    4    0    0  0.36612975594E+03  0.19146754727E+03  0.13973113288E+04  0.14596667346E+04  0.86239240251E+02 0.  0.
          2    1    3    3  502    0  0.13497500654E+02  0.32595529154E+00  0.68942629956E+02  0.70252224136E+02  0.00000000000E+00 0. -1.
         -1    1    3    3    0  502 -0.77133598121E+02  0.23393191374E+02  0.15386571600E+03  0.17369942983E+03  0.00000000000E+00 0.  1.
         11    1    4    4    0    0 -0.31766818430E+03 -0.21693918616E+03  0.47528617328E+03  0.61145125097E+03  0.00000000000E+00 0. -1.
        -11    1    4    4    0    0  0.15174525826E+02  0.17524922228E+01  0.10438897136E+02  0.18501568486E+02  0.00000000000E+00 0.  1.
          4    1    5    5  503    0  0.31678150003E+03  0.18788507854E+03  0.12890533130E+04  0.13406378203E+04  0.00000000000E+00 0. -1.
         -4    1    5    5    0  503  0.49348255910E+02  0.35824687273E+01  0.10825801587E+03  0.11902891432E+03  0.00000000000E+00 0.  1.
<mgrwt>
<rscale>  0 0.10054713E+04</rscale>
<asrwt>0</asrwt>
<pdfrwt beam="1">  1        2 0.34149350E+00 0.10054713E+04</pdfrwt>
<pdfrwt beam="2">  1       -1 0.17517422E-01 0.10054713E+04</pdfrwt>
<totfact> 0.14697103E+02</totfact>
</mgrwt>
</event>
<event>
12    6  0.1663299E-008  0.2068942E+04  0.7818608E-02  0.8575049E-01
          2   -1    0    0  501    0  0.00000000000E+00  0.00000000000E+00  0.90235149305E+03  0.90235149305E+03  0.00000000000E+00 0. -1.
         -1   -1    0    0    0  501 -0.00000000000E+00 -0.00000000000E+00 -0.11859353458E+04  0.11859353458E+04  0.00000000000E+00 0.  1.
         24    2    1    2    0    0 -0.34758353087E+03  0.37249669339E+02  0.65207708966E+03  0.74397447158E+03  0.78048925051E+02 0.  0.
        254    2    1    2    0    0  0.34758353087E+03 -0.37249669339E+02 -0.93566094240E+03  0.13443123673E+04  0.89972912191E+03 0.  0.
         23    2    4    4    0    0  0.10929025196E+03  0.18533357958E+03 -0.97420593507E+03  0.10034094444E+04  0.10705332435E+03 0.  0.
         23    2    4    4    0    0  0.23829327891E+03 -0.22258324892E+03  0.38544992668E+02  0.34090292287E+03  0.91662952666E+02 0.  0.
          4    1    3    3  502    0 -0.30019048999E+03  0.36257473694E+02  0.60894714312E+03  0.67988643007E+03  0.00000000000E+00 0. -1.
         -3    1    3    3    0  502 -0.47393040877E+02  0.99219564529E+00  0.43129946548E+02  0.64088041513E+02  0.00000000000E+00 0.  1.
         11    1    5    5    0    0  0.11646679911E+03  0.14594993495E+03 -0.63603798799E+03  0.66288024633E+03  0.00000000000E+00 0.  1.
        -11    1    5    5    0    0 -0.71765471492E+01  0.39383644628E+02 -0.33816794709E+03  0.34052919806E+03  0.00000000000E+00 0. -1.
          4    1    6    6  503    0  0.16443839260E+03 -0.19323305728E+03  0.27610298053E+01  0.25374519242E+03  0.00000000000E+00 0.  1.
         -4    1    6    6    0  503  0.73854886303E+02 -0.29350191635E+02  0.35783962863E+02  0.87157730454E+02  0.00000000000E+00 0. -1.
<mgrwt>
<rscale>  0 0.20689423E+04</rscale>
<asrwt>0</asrwt>
<pdfrwt beam="1">  1        2 0.13882331E+00 0.20689423E+04</pdfrwt>
<pdfrwt beam="2">  1       -1 0.18245159E+00 0.20689423E+04</pdfrwt>
<totfact> 0.61539600E+00</totfact>
</mgrwt>
</event>
<event>
12    6  0.1922638E-008  0.1554474E+04  0.7818608E-02  0.8849015E-01
          2   -1    0    0  501    0  0.00000000000E+00  0.00000000000E+00  0.19213647683E+04  0.19213647683E+04  0.00000000000E+00 0. -1.
         -1   -1    0    0    0  501 -0.00000000000E+00 -0.00000000000E+00 -0.31441039418E+03  0.31441039418E+03  0.00000000000E+00 0.  1.
         24    2    1    2    0    0  0.39580158454E+03  0.18547621124E+03  0.15389953883E+03  0.47031190844E+03  0.80298841246E+02 0.  0.
        254    2    1    2    0    0 -0.39580158454E+03 -0.18547621124E+03  0.14530548353E+04  0.17654632540E+04  0.90245876790E+03 0.  0.
         23    2    4    4    0    0 -0.60404217003E+03 -0.35655814398E+03  0.94645511519E+03  0.11844552251E+04  0.12311069026E+03 0.  0.
         23    2    4    4    0    0  0.20824058549E+03  0.17108193274E+03  0.50659972010E+03  0.58100802891E+03  0.91070764277E+02 0.  0.
          2    1    3    3  502    0  0.93180992354E+02  0.35281268970E+02  0.14034253548E+01  0.99646549759E+02  0.00000000000E+00 0. -1.
         -1    1    3    3    0  502  0.30262059219E+03  0.15019494227E+03  0.15249611348E+03  0.37066535868E+03  0.00000000000E+00 0.  1.
         11    1    5    5    0    0 -0.40732312921E+03 -0.19951525826E+03  0.68476860768E+03  0.82135650964E+03  0.00000000000E+00 0. -1.
        -11    1    5    5    0    0 -0.19671904082E+03 -0.15704288572E+03  0.26168650751E+03  0.36309871549E+03  0.00000000000E+00 0.  1.
          3    1    6    6  503    0  0.20167333837E+03  0.14898986938E+03  0.40112663888E+03  0.47304618909E+03  0.00000000000E+00 0. -1.
         -3    1    6    6    0  503  0.65672471171E+01  0.22092063354E+02  0.10547308121E+03  0.10796183982E+03  0.00000000000E+00 0.  1.
<mgrwt>
<rscale>  0 0.15544736E+04</rscale>
<asrwt>0</asrwt>
<pdfrwt beam="1">  1        2 0.29559457E+00 0.15544736E+04</pdfrwt>
<pdfrwt beam="2">  1       -1 0.48370831E-01 0.15544736E+04</pdfrwt>
<totfact> 0.34625472E+01</totfact>
</mgrwt>
</event>
<event>
11    6  0.1663299E-008  0.1610537E+04  0.7818608E-02  0.8814101E-01
         -1   -1    0    0    0  501 -0.00000000000E+00  0.00000000000E+00  0.80716375460E+03  0.80716375460E+03  0.00000000000E+00 0.  1.
          2   -1    0    0  501    0  0.00000000000E+00 -0.00000000000E+00 -0.80337727604E+03  0.80337727604E+03  0.00000000000E+00 0. -1.
         24    2    1    2    0    0  0.28025537039E+02  0.71195960786E+02  0.54545662901E+03  0.55718745291E+03  0.84146467462E+02 0.  0.
        254    2    1    2    0    0 -0.28025537039E+02 -0.71195960786E+02 -0.54167015046E+03  0.10533535777E+04  0.90016271433E+03 0.  0.
         23    2    4    4    0    0 -0.32577257620E+03 -0.18197654829E+03 -0.54784999127E+03  0.66909691860E+03  0.91147342341E+02 0.  0.
          4    1    3    3  502    0  0.20133713697E+02  0.34897085319E+02  0.73890006826E+02  0.84160002969E+02  0.00000000000E+00 0. -1.
         -3    1    3    3    0  502  0.78918233415E+01  0.36298875467E+02  0.47156662219E+03  0.47302744994E+03  0.00000000000E+00 0.  1.
         11    1    4    4    0    0  0.29032492183E+03  0.10571032636E+03  0.72472780681E+02  0.31735711317E+03  0.00000000000E+00 0. -1.
        -11    1    4    4    0    0  0.74221173295E+01  0.50702611425E+01 -0.66292939874E+02  0.66899545969E+02  0.00000000000E+00 0.  1.
          4    1    5    5  503    0 -0.90571287155E+02 -0.74741825509E+02 -0.23943538574E+03  0.26668108760E+03  0.00000000000E+00 0. -1.
         -4    1    5    5    0  503 -0.23520128905E+03 -0.10723472278E+03 -0.30841460552E+03  0.40241583100E+03  0.00000000000E+00 0.  1.
<mgrwt>
<rscale>  0 0.16105366E+04</rscale>
<asrwt>0</asrwt>
<pdfrwt beam="1">  1        2 0.12359650E+00 0.16105366E+04</pdfrwt>
<pdfrwt beam="2">  1       -1 0.12417904E+00 0.16105366E+04</pdfrwt>
<totfact> 0.21320206E+01</totfact>
</mgrwt>
</event>
<event>
12    6  0.1663299E-008  0.1600640E+04  0.7818608E-02  0.8820155E-01
         -1   -1    0    0    0  501 -0.00000000000E+00  0.00000000000E+00  0.59561295561E+03  0.59561295561E+03  0.00000000000E+00 0.  1.
          2   -1    0    0  501    0  0.00000000000E+00 -0.00000000000E+00 -0.10753836698E+04  0.10753836698E+04  0.00000000000E+00 0. -1.
         24    2    1    2    0    0  0.75845454907E+02 -0.44842396860E+03 -0.45911835724E+03  0.65099491226E+03  0.78537387211E+02 0.  0.
        254    2    1    2    0    0 -0.75845454907E+02  0.44842396860E+03 -0.20652356984E+02  0.10200017132E+04  0.91276524167E+03 0.  0.
         23    2    4    4    0    0 -0.46168715206E+03  0.38338904988E+03 -0.65419139829E+02  0.61618965072E+03  0.12356306827E+03 0.  0.
         23    2    4    4    0    0  0.38584169716E+03  0.65034918718E+02  0.44766782845E+02  0.40381206247E+03  0.89200678405E+02 0.  0.
          4    1    3    3  502    0  0.38313189720E+02 -0.33488185391E+03 -0.37820144880E+03  0.50660644732E+03  0.00000000000E+00 0. -1.
         -3    1    3    3    0  502  0.37532265187E+02 -0.11354211469E+03 -0.80916908435E+02  0.14438846494E+03  0.00000000000E+00 0.  1.
         11    1    5    5    0    0 -0.10349508577E+03  0.12466294067E+03  0.28356821301E+02  0.16448766175E+03  0.00000000000E+00 0.  1.
        -11    1    5    5    0    0 -0.35819206630E+03  0.25872610921E+03 -0.93775961130E+02  0.45170198896E+03  0.00000000000E+00 0. -1.
          3    1    6    6  503    0  0.26036126535E+03  0.54434312030E+02 -0.10709709419E+02  0.26620627472E+03  0.00000000000E+00 0. -1.
         -3    1    6    6    0  503  0.12548043180E+03  0.10600606689E+02  0.55476492265E+02  0.13760578775E+03  0.00000000000E+00 0.  1.
<mgrwt>
<rscale>  0 0.16006404E+04</rscale>
<asrwt>0</asrwt>
<pdfrwt beam="1">  1        2 0.16544364E+00 0.16006404E+04</pdfrwt>
<pdfrwt beam="2">  1       -1 0.91632763E-01 0.16006404E+04</pdfrwt>
<totfact> 0.28655523E+01</totfact>
</mgrwt>
</event>
<event>
12    6  0.1663299E-008  0.2799779E+04  0.7818608E-02  0.8303337E-01
          2   -1    0    0  501    0  0.00000000000E+00  0.00000000000E+00  0.33100945008E+04  0.33100945008E+04  0.00000000000E+00 0. -1.
         -1   -1    0    0    0  501 -0.00000000000E+00 -0.00000000000E+00 -0.59203462283E+03  0.59203462283E+03  0.00000000000E+00 0.  1.
         24    2    1    2    0    0 -0.53303195163E+03  0.72711291287E+01 -0.35970528124E+03  0.64795085395E+03  0.79224295564E+02 0.  0.
        254    2    1    2    0    0  0.53303195163E+03 -0.72711291287E+01  0.30777651592E+04  0.32541782697E+04  0.91261268064E+03 0.  0.
         23    2    4    4    0    0  0.43605460522E+03 -0.75418447150E+02  0.52561617695E+03  0.69764959515E+03  0.12087609875E+03 0.  0.
         23    2    4    4    0    0  0.96977346410E+02  0.68147318021E+02  0.25521489823E+04  0.25565286745E+04  0.91245675797E+02 0.  0.
          4    1    3    3  502    0 -0.45567958693E+02  0.20837380730E+02 -0.46650754714E+02  0.68461143800E+02  0.00000000000E+00 0. -1.
         -3    1    3    3    0  502 -0.48746399294E+03 -0.13566251601E+02 -0.31305452653E+03  0.57948971015E+03  0.00000000000E+00 0.  1.
         11    1    5    5    0    0  0.15312490632E+03 -0.69827876730E+01  0.26894976465E+03  0.30956416486E+03  0.00000000000E+00 0. -1.
        -11    1    5    5    0    0  0.28292969890E+03 -0.68435659477E+02  0.25666641230E+03  0.38808543030E+03  0.00000000000E+00 0.  1.
          1    1    6    6  503    0  0.26745326458E+02  0.74367213930E+02  0.13179488521E+04  0.13203162393E+04  0.00000000000E+00 0. -1.
         -1    1    6    6    0  503  0.70232019953E+02 -0.62198959088E+01  0.12342001302E+04  0.12362124352E+04  0.00000000000E+00 0.  1.
<mgrwt>
<rscale>  0 0.27997790E+04</rscale>
<asrwt>0</asrwt>
<pdfrwt beam="1">  1        2 0.50924530E+00 0.27997790E+04</pdfrwt>
<pdfrwt beam="2">  1       -1 0.91082251E-01 0.27997790E+04</pdfrwt>
<totfact> 0.12754616E+00</totfact>
</mgrwt>
</event>
<event>
11    6  0.1663299E-008  0.1126743E+04  0.7818608E-02  0.9179511E-01
          2   -1    0    0  501    0  0.00000000000E+00  0.00000000000E+00  0.32750423490E+03  0.32750423490E+03  0.00000000000E+00 0. -1.
         -1   -1    0    0    0  501 -0.00000000000E+00 -0.00000000000E+00 -0.96910967944E+03  0.96910967944E+03  0.00000000000E+00 0.  1.
         24    2    1    2    0    0 -0.18574621508E+03 -0.13456950162E+03 -0.10678996826E+03  0.26605584218E+03  0.82286126708E+02 0.  0.
        254    2    1    2    0    0  0.18574621508E+03  0.13456950162E+03 -0.53481547628E+03  0.10305580722E+04  0.85053614812E+03 0.  0.
         23    2    4    4    0    0  0.28186541691E+03 -0.27596760165E+03 -0.21254687961E+03  0.45717247023E+03  0.90687711878E+02 0.  0.
          2    1    3    3  502    0 -0.17024854684E+03 -0.12900476037E+03 -0.68408333036E+02  0.22429109641E+03  0.00000000000E+00 0. -1.
         -1    1    3    3    0  502 -0.15497668239E+02 -0.55647412563E+01 -0.38381635227E+02  0.41764745765E+02  0.00000000000E+00 0.  1.
         11    1    4    4    0    0 -0.26007847672E+02  0.39925778729E+03 -0.29590311453E+03  0.49763625475E+03  0.00000000000E+00 0. -1.
        -11    1    4    4    0    0 -0.70111354159E+02  0.11279315986E+02 -0.26365482133E+02  0.75749347187E+02  0.00000000000E+00 0.  1.
          3    1    5    5  503    0  0.51651512517E+02 -0.11723712844E+02 -0.40989114160E+02  0.66973365361E+02  0.00000000000E+00 0. -1.
         -3    1    5    5    0  503  0.23021390440E+03 -0.26424388881E+03 -0.17155776545E+03  0.39019910487E+03  0.00000000000E+00 0.  1.
<mgrwt>
<rscale>  0 0.11267431E+04</rscale>
<asrwt>0</asrwt>
<pdfrwt beam="1">  1        2 0.50385267E-01 0.11267431E+04</pdfrwt>
<pdfrwt beam="2">  1       -1 0.14909380E+00 0.11267431E+04</pdfrwt>
<totfact> 0.40092725E+01</totfact>
</mgrwt>
</event>
<event>
12    6  0.1663299E-008  0.1087351E+04  0.7818608E-02  0.9217609E-01
          2   -1    0    0  501    0  0.00000000000E+00  0.00000000000E+00  0.90272244603E+03  0.90272244603E+03  0.00000000000E+00 0. -1.
         -1   -1    0    0    0  501 -0.00000000000E+00 -0.00000000000E+00 -0.32743531780E+03  0.32743531780E+03  0.00000000000E+00 0.  1.
         24    2    1    2    0    0 -0.73865454510E+02 -0.36041811266E+02 -0.84103308274E+02  0.14177491288E+03  0.79193698807E+02 0.  0.
        254    2    1    2    0    0  0.73865454510E+02  0.36041811266E+02  0.65939043650E+03  0.10883828510E+04  0.86198977080E+03 0.  0.
         23    2    4    4    0    0  0.32608848406E+03 -0.28228673956E+03  0.24980208869E+03  0.50441275398E+03  0.77534767021E+02 0.  0.
         23    2    4    4    0    0 -0.25222302955E+03  0.31832855082E+03  0.40958834781E+03  0.58397009697E+03  0.91153368519E+02 0.  0.
          2    1    3    3  502    0  0.83594935326E+01  0.74605539447E+01  0.56176083323E+01  0.12533894872E+02  0.00000000000E+00 0. -1.
         -1    1    3    3    0  502 -0.82224948042E+02 -0.43502365211E+02 -0.89720916606E+02  0.12924101801E+03  0.00000000000E+00 0.  1.
         11    1    5    5    0    0  0.27890831409E+03 -0.26256130798E+03  0.19636870426E+03  0.43045203697E+03  0.00000000000E+00 0. -1.
        -11    1    5    5    0    0  0.47180169966E+02 -0.19725431577E+02  0.53433384430E+02  0.73960717010E+02  0.00000000000E+00 0.  1.
          4    1    6    6  503    0 -0.25777297577E+01 -0.44005099728E+01  0.17014909069E+02  0.17762778762E+02  0.00000000000E+00 0.  1.
         -4    1    6    6    0  503 -0.24964529979E+03  0.32272906079E+03  0.39257343874E+03  0.56620731821E+03  0.00000000000E+00 0. -1.
<mgrwt>
<rscale>  0 0.10873513E+04</rscale>
<asrwt>0</asrwt>
<pdfrwt beam="1">  1        2 0.13888038E+00 0.10873513E+04</pdfrwt>
<pdfrwt beam="2">  1       -1 0.50374665E-01 0.10873513E+04</pdfrwt>
<totfact> 0.13093137E+02</totfact>
</mgrwt>
</event>
<event>
12    6  0.1663299E-008  0.1694823E+04  0.7818608E-02  0.8764322E-01
          2   -1    0    0  501    0  0.00000000000E+00  0.00000000000E+00  0.21336957688E+04  0.21336957688E+04  0.00000000000E+00 0. -1.
         -1   -1    0    0    0  501 -0.00000000000E+00 -0.00000000000E+00 -0.33655527650E+03  0.33655527650E+03  0.00000000000E+00 0.  1.
         24    2    1    2    0    0 -0.18820115033E+03  0.26105567694E+03  0.13963625450E+04  0.14349842733E+04  0.76037939680E+02 0.  0.
        254    2    1    2    0    0  0.18820115033E+03 -0.26105567694E+03  0.40077794736E+03  0.10352667720E+04  0.89865710181E+03 0.  0.
         23    2    4    4    0    0 -0.14066782691E+02 -0.31381825545E+02  0.62951088880E+03  0.64310953198E+03  0.12697723284E+03 0.  0.
         23    2    4    4    0    0  0.20226793302E+03 -0.22967385140E+03 -0.22873294144E+03  0.39215724001E+03  0.88352405995E+02 0.  0.
          2    1    3    3  502    0 -0.19300652975E+03  0.24627891803E+03  0.12852030530E+04  0.13227440090E+04  0.00000000000E+00 0. -1.
         -1    1    3    3    0  502  0.48053794186E+01  0.14776758913E+02  0.11115949197E+03  0.11224026430E+03  0.00000000000E+00 0.  1.
         11    1    5    5    0    0 -0.17612926559E+02 -0.80264049740E+02  0.41712231608E+03  0.42513945881E+03  0.00000000000E+00 0. -1.
        -11    1    5    5    0    0  0.35461438681E+01  0.48882224196E+02  0.21238857271E+03  0.21797007317E+03  0.00000000000E+00 0.  1.
          1    1    6    6  503    0  0.39588358874E+02 -0.38612974838E+01 -0.35798814172E+02  0.53513576527E+02  0.00000000000E+00 0. -1.
         -1    1    6    6    0  503  0.16267957415E+03 -0.22581255392E+03 -0.19293412726E+03  0.33864366348E+03  0.00000000000E+00 0.  1.
<mgrwt>
<rscale>  0 0.16948234E+04</rscale>
<asrwt>0</asrwt>
<pdfrwt beam="1">  1        2 0.32826088E+00 0.16948234E+04</pdfrwt>
<pdfrwt beam="2">  1       -1 0.51777736E-01 0.16948234E+04</pdfrwt>
<totfact> 0.22907827E+01</totfact>
</mgrwt>
</event>
<event>
11    6  0.1663299E-008  0.1606881E+04  0.7818608E-02  0.8816332E-01
          2   -1    0    0  501    0  0.00000000000E+00  0.00000000000E+00  0.34039474628E+04  0.34039474628E+04  0.00000000000E+00 0. -1.
         -3   -1    0    0    0  501 -0.00000000000E+00 -0.00000000000E+00 -0.18963765297E+03  0.18963765297E+03  0.00000000000E+00 0.  1.
         24    2    1    2    0    0  0.15131061268E+03 -0.38648240793E+03  0.18998063585E+04  0.19462501830E+04  0.79762284591E+02 0.  0.
        254    2    1    2    0    0 -0.15131061268E+03  0.38648240793E+03  0.13145034514E+04  0.16473349328E+04  0.90195870411E+03 0.  0.
         23    2    4    4    0    0  0.13431362125E+03 -0.17612125298E+03  0.13600674254E+03  0.27500185141E+03  0.89829503266E+02 0.  0.
          2    1    3    3  502    0  0.11848921503E+03 -0.23851403229E+03  0.10648790763E+04  0.10976775870E+04  0.00000000000E+00 0. -1.
         -1    1    3    3    0  502  0.32821397645E+02 -0.14796837563E+03  0.83492728210E+03  0.84857259603E+03  0.00000000000E+00 0.  1.
         11    1    4    4    0    0  0.59078169000E+02  0.14781830286E+03  0.33915350281E+03  0.37465394591E+03  0.00000000000E+00 0. -1.
        -11    1    4    4    0    0 -0.34470240293E+03  0.41478535804E+03  0.83934320604E+03  0.99767913548E+03  0.00000000000E+00 0.  1.
          2    1    5    5  503    0  0.45445202061E+02 -0.15944223383E+02  0.59345525077E+02  0.76428895035E+02  0.00000000000E+00 0. -1.
         -2    1    5    5    0  503  0.88868419191E+02 -0.16017702960E+03  0.76661217464E+02  0.19857295637E+03  0.00000000000E+00 0.  1.
<mgrwt>
<rscale>  0 0.16068810E+04</rscale>
<asrwt>0</asrwt>
<pdfrwt beam="1">  1        2 0.52368418E+00 0.16068810E+04</pdfrwt>
<pdfrwt beam="2">  1       -3 0.29175026E-01 0.16068810E+04</pdfrwt>
<totfact> 0.68305231E+00</totfact>
</mgrwt>
</event>
<event>
11    6  0.1663299E-008  0.2031116E+04  0.7818608E-02  0.8592209E-01
          2   -1    0    0  501    0  0.00000000000E+00  0.00000000000E+00  0.10629596744E+04  0.10629596744E+04  0.00000000000E+00 0. -1.
         -1   -1    0    0    0  501 -0.00000000000E+00 -0.00000000000E+00 -0.97027033060E+03  0.97027033060E+03  0.00000000000E+00 0.  1.
         24    2    1    2    0    0 -0.14029786547E+03  0.79565296616E+03  0.28029708556E+03  0.85882784611E+03  0.79193935774E+02 0.  0.
        254    2    1    2    0    0  0.14029786547E+03 -0.79565296616E+03 -0.18760774173E+03  0.11744021589E+04  0.83143047365E+03 0.  0.
         23    2    4    4    0    0 -0.90287077437E+02 -0.32490015389E+03  0.11480847688E+03  0.36775962276E+03  0.91401791101E+02 0.  0.
          2    1    3    3  502    0 -0.41224381473E+02  0.11114441298E+03  0.60581869177E+02  0.13312660530E+03  0.00000000000E+00 0. -1.
         -1    1    3    3    0  502 -0.99073483999E+02  0.68450855318E+03  0.21971521639E+03  0.72570124081E+03  0.00000000000E+00 0.  1.
         11    1    4    4    0    0  0.40881580075E+02 -0.40912895463E+03  0.37135788836E+02  0.41284000765E+03  0.00000000000E+00 0.  1.
        -11    1    4    4    0    0  0.18970336283E+03 -0.61623857643E+02 -0.33955200745E+03  0.39380252852E+03  0.00000000000E+00 0. -1.
          4    1    5    5  503    0 -0.67587334043E+02 -0.28849330206E+03  0.12814978716E+03  0.32282936825E+03  0.00000000000E+00 0. -1.
         -4    1    5    5    0  503 -0.22699743394E+02 -0.36406851825E+02 -0.13341310272E+02  0.44930254504E+02  0.00000000000E+00 0.  1.
<mgrwt>
<rscale>  0 0.20311162E+04</rscale>
<asrwt>0</asrwt>
<pdfrwt beam="1">  1        2 0.16353226E+00 0.20311162E+04</pdfrwt>
<pdfrwt beam="2">  1       -1 0.14927236E+00 0.20311162E+04</pdfrwt>
<totfact> 0.85842030E+00</totfact>
</mgrwt>
</event>
<event>
12    6  0.1663299E-008  0.1860287E+04  0.7818608E-02  0.8674880E-01
         -1   -1    0    0    0  501 -0.00000000000E+00  0.00000000000E+00  0.93790598558E+03  0.93790598558E+03  0.00000000000E+00 0.  1.
          2   -1    0    0  501    0  0.00000000000E+00 -0.00000000000E+00 -0.92244572714E+03  0.92244572714E+03  0.00000000000E+00 0. -1.
         24    2    1    2    0    0 -0.52740554272E+03  0.16565480791E+03 -0.47897957248E+03  0.73610359363E+03  0.82637448015E+02 0.  0.
        254    2    1    2    0    0  0.52740554272E+03 -0.16565480791E+03  0.49443983092E+03  0.11242481191E+04  0.84490529944E+03 0.  0.
         23    2    4    4    0    0  0.32973905749E+03  0.27620370651E+03  0.45395297435E+03  0.62982497126E+03  0.74765352807E+02 0.  0.
         23    2    4    4    0    0  0.19766648524E+03 -0.44185851443E+03  0.40486856568E+02  0.49442314784E+03  0.92217554763E+02 0.  0.
          2    1    3    3  502    0 -0.32045978486E+03  0.11277003882E+03 -0.34376105467E+03  0.48330447761E+03  0.00000000000E+00 0. -1.
         -1    1    3    3    0  502 -0.20694575787E+03  0.52884769089E+02 -0.13521851781E+03  0.25279911602E+03  0.00000000000E+00 0.  1.
         11    1    5    5    0    0  0.61466573322E+02  0.28459666628E+02  0.43772834625E+02  0.80648331114E+02  0.00000000000E+00 0. -1.
        -11    1    5    5    0    0  0.26827248417E+03  0.24774403988E+03  0.41018013972E+03  0.54917664015E+03  0.00000000000E+00 0.  1.
          2    1    6    6  503    0  0.15461136139E+03 -0.25463969100E+03 -0.92655881156E+00  0.29790418563E+03  0.00000000000E+00 0. -1.
         -2    1    6    6    0  503  0.43055123844E+02 -0.18721882342E+03  0.41413415379E+02  0.19651896221E+03  0.00000000000E+00 0.  1.
<mgrwt>
<rscale>  0 0.18602875E+04</rscale>
<asrwt>0</asrwt>
<pdfrwt beam="1">  1        2 0.14191473E+00 0.18602875E+04</pdfrwt>
<pdfrwt beam="2">  1       -1 0.14429323E+00 0.18602875E+04</pdfrwt>
<totfact> 0.11752146E+01</totfact>
</mgrwt>
</event>
<event>
11    6  0.1663299E-008  0.3826845E+04  0.7818608E-02  0.8040418E-01
          2   -1    0    0  501    0  0.00000000000E+00  0.00000000000E+00  0.18038495969E+04  0.18038495969E+04  0.00000000000E+00 0. -1.
         -1   -1    0    0    0  501 -0.00000000000E+00 -0.00000000000E+00 -0.20296513039E+04  0.20296513039E+04  0.00000000000E+00 0.  1.
         24    2    1    2    0    0 -0.16458702738E+04 -0.74672959013E+03 -0.12737596436E+03  0.18135655241E+04  0.79380319167E+02 0.  0.
        254    2    1    2    0    0  0.16458702738E+04  0.74672959013E+03 -0.98425742650E+02  0.20199353767E+04  0.89663663780E+03 0.  0.
         23    2    4    4    0    0  0.15195207789E+04  0.66745554366E+03  0.18466618266E+03  0.16726376660E+04  0.95785502049E+02 0.  0.
          2    1    3    3  502    0 -0.11622717919E+04 -0.56645833712E+03 -0.94792732298E+02  0.12964321918E+04  0.00000000000E+00 0. -1.
         -1    1    3    3    0  502 -0.48359848189E+03 -0.18027125302E+03 -0.32583232067E+02  0.51713333229E+03  0.00000000000E+00 0.  1.
         11    1    4    4    0    0 -0.56090166975E+01  0.43585460938E+02 -0.15121035578E+02  0.46473639737E+02  0.00000000000E+00 0. -1.
        -11    1    4    4    0    0  0.13195851156E+03  0.35688585539E+02 -0.26797088973E+03  0.30082407094E+03  0.00000000000E+00 0.  1.
          4    1    5    5  503    0  0.62080331985E+03  0.24475590954E+03  0.34626105576E+02  0.66820744113E+03  0.00000000000E+00 0. -1.
         -4    1    5    5    0  503  0.89871745904E+03  0.42269963412E+03  0.15004007709E+03  0.10044302249E+04  0.00000000000E+00 0.  1.
<mgrwt>
<rscale>  0 0.38268450E+04</rscale>
<asrwt>0</asrwt>
<pdfrwt beam="1">  1        2 0.27751532E+00 0.38268450E+04</pdfrwt>
<pdfrwt beam="2">  1       -1 0.31225405E+00 0.38268450E+04</pdfrwt>
<totfact> 0.21490725E-01</totfact>
</mgrwt>
</event>
<event>
11    6  0.1663299E-008  0.3419005E+04  0.7818608E-02  0.8133258E-01
         -1   -1    0    0    0  501 -0.00000000000E+00  0.00000000000E+00  0.22283837633E+04  0.22283837633E+04  0.00000000000E+00 0.  1.
          2   -1    0    0  501    0  0.00000000000E+00 -0.00000000000E+00 -0.13114429261E+04  0.13114429261E+04  0.00000000000E+00 0. -1.
         24    2    1    2    0    0 -0.56818166295E+03 -0.74594445632E+03 -0.90117934164E+03  0.13025636040E+04  0.72692520983E+02 0.  0.
        254    2    1    2    0    0  0.56818166295E+03  0.74594445632E+03  0.18181201789E+04  0.22372630854E+04  0.90582647040E+03 0.  0.
         23    2    4    4    0    0  0.76136295656E+03  0.47853499936E+03  0.16019076962E+04  0.18393991014E+04  0.92798113900E+02 0.  0.
          4    1    3    3  502    0 -0.34683607826E+03 -0.50911456127E+03 -0.57447782080E+03  0.84232871747E+03  0.00000000000E+00 0. -1.
         -3    1    3    3    0  502 -0.22134558468E+03 -0.23682989505E+03 -0.32670152084E+03  0.46023488652E+03  0.00000000000E+00 0.  1.
         11    1    4    4    0    0 -0.11575061387E+03  0.18574873385E+03  0.16570032594E+03  0.27451301382E+03  0.00000000000E+00 0.  1.
        -11    1    4    4    0    0 -0.77430679749E+02  0.81660723107E+02  0.50512156758E+02  0.12335097018E+03  0.00000000000E+00 0. -1.
          2    1    5    5  503    0  0.55286801949E+02  0.28884358028E+02  0.16559938176E+03  0.17695788156E+03  0.00000000000E+00 0. -1.
         -2    1    5    5    0  503  0.70607615461E+03  0.44965064134E+03  0.14363083144E+04  0.16624412198E+04  0.00000000000E+00 0.  1.
<mgrwt>
<rscale>  0 0.34190046E+04</rscale>
<asrwt>0</asrwt>
<pdfrwt beam="1">  1        2 0.20176045E+00 0.34190046E+04</pdfrwt>
<pdfrwt beam="2">  1       -1 0.34282827E+00 0.34190046E+04</pdfrwt>
<totfact> 0.26571602E-01</totfact>
</mgrwt>
</event>
<event>
12    6  0.1663299E-008  0.3040377E+04  0.7818608E-02  0.8232294E-01
          2   -1    0    0  501    0  0.00000000000E+00  0.00000000000E+00  0.17125832527E+04  0.17125832527E+04  0.00000000000E+00 0. -1.
         -1   -1    0    0    0  501 -0.00000000000E+00 -0.00000000000E+00 -0.13494078970E+04  0.13494078970E+04  0.00000000000E+00 0.  1.
         24    2    1    2    0    0 -0.10566803662E+01 -0.27618683361E+03  0.15347000315E+04  0.15611101146E+04  0.74029181358E+02 0.  0.
        254    2    1    2    0    0  0.10566803662E+01  0.27618683361E+03 -0.11715246758E+04  0.15008810351E+04  0.89660109963E+03 0.  0.
         23    2    4    4    0    0 -0.27737194843E+02  0.63466815790E+01 -0.12075351784E+04  0.12125949421E+04  0.10693761780E+03 0.  0.
         23    2    4    4    0    0  0.28793875209E+02  0.26984015203E+03  0.36010502592E+02  0.28828609303E+03  0.90384291993E+02 0.  0.
          2    1    3    3  502    0 -0.10347187376E+02 -0.27642829224E+03  0.14812200453E+04  0.15068286192E+04  0.00000000000E+00 0. -1.
         -1    1    3    3    0  502  0.92905070101E+01  0.24145862748E+00  0.53479986177E+02  0.54281495413E+02  0.00000000000E+00 0.  1.
         11    1    5    5    0    0 -0.56479330755E+02  0.23174151232E+02 -0.10394836244E+04  0.10412747772E+04  0.00000000000E+00 0. -1.
        -11    1    5    5    0    0  0.28742135912E+02 -0.16827469653E+02 -0.16805155400E+03  0.17132016493E+03  0.00000000000E+00 0.  1.
          1    1    6    6  503    0 -0.75737838632E+01  0.23354817019E+03  0.20258536635E+02  0.23454747559E+03  0.00000000000E+00 0. -1.
         -1    1    6    6    0  503  0.36367659072E+02  0.36291981846E+02  0.15751965958E+02  0.53738617439E+02  0.00000000000E+00 0.  1.
<mgrwt>
<rscale>  0 0.30403772E+04</rscale>
<asrwt>0</asrwt>
<pdfrwt beam="1">  1        2 0.26347435E+00 0.30403772E+04</pdfrwt>
<pdfrwt beam="2">  1       -1 0.20760121E+00 0.30403772E+04</pdfrwt>
<totfact> 0.12508591E+00</totfact>
</mgrwt>
</event>
<event>
12    6  0.1663299E-008  0.2428630E+04  0.7818608E-02  0.8428862E-01
          2   -1    0    0  501    0  0.00000000000E+00  0.00000000000E+00  0.79331498299E+03  0.79331498299E+03  0.00000000000E+00 0. -1.
         -1   -1    0    0    0  501 -0.00000000000E+00 -0.00000000000E+00 -0.18587333560E+04  0.18587333560E+04  0.00000000000E+00 0.  1.
         24    2    1    2    0    0  0.13883835117E+03 -0.34733199293E+03  0.60855974307E+03  0.71871584069E+03  0.79321483262E+02 0.  0.
        254    2    1    2    0    0 -0.13883835117E+03  0.34733199293E+03 -0.16739781161E+04  0.19333324983E+04  0.89199563606E+03 0.  0.
         23    2    4    4    0    0 -0.15396928412E+02 -0.29598647974E+03 -0.48601777002E+03  0.57379838220E+03  0.72015616618E+02 0.  0.
         23    2    4    4    0    0 -0.12344142276E+03  0.64331847268E+03 -0.11879603461E+04  0.13595341161E+04  0.89368824949E+02 0.  0.
          4    1    3    3  502    0  0.90507851628E+02 -0.30344037310E+03  0.51697573180E+03  0.60624387709E+03  0.00000000000E+00 0. -1.
         -3    1    3    3    0  502  0.48330499540E+02 -0.43891619836E+02  0.91584011268E+02  0.11247196361E+03  0.00000000000E+00 0.  1.
         11    1    5    5    0    0 -0.24639999056E+02 -0.44027028437E+02 -0.56502811956E+02  0.75750092709E+02  0.00000000000E+00 0.  1.
        -11    1    5    5    0    0  0.92430706439E+01 -0.25195945131E+03 -0.42951495807E+03  0.49804828949E+03  0.00000000000E+00 0. -1.
          4    1    6    6  503    0 -0.10435542142E+03  0.59595664863E+03 -0.11335968693E+04  0.12849498991E+04  0.00000000000E+00 0. -1.
         -4    1    6    6    0  503 -0.19086001334E+02  0.47361824046E+02 -0.54363476757E+02  0.74584217023E+02  0.00000000000E+00 0.  1.
<mgrwt>
<rscale>  0 0.24286301E+04</rscale>
<asrwt>0</asrwt>
<pdfrwt beam="1">  1        2 0.12204846E+00 0.24286301E+04</pdfrwt>
<pdfrwt beam="2">  1       -1 0.28595897E+00 0.24286301E+04</pdfrwt>
<totfact> 0.14516921E+00</totfact>
</mgrwt>
</event>
<event>
12    6  0.1663299E-008  0.1690293E+04  0.7818608E-02  0.8766920E-01
          2   -1    0    0  501    0  0.00000000000E+00  0.00000000000E+00  0.90912095909E+03  0.90912095909E+03  0.00000000000E+00 0. -1.
         -1   -1    0    0    0  501 -0.00000000000E+00 -0.00000000000E+00 -0.78567393555E+03  0.78567393555E+03  0.00000000000E+00 0.  1.
         24    2    1    2    0    0 -0.17828108257E+03 -0.16250807485E+02  0.62195909194E+03  0.65205049106E+03  0.79300048562E+02 0.  0.
        254    2    1    2    0    0  0.17828108257E+03  0.16250807485E+02 -0.49851206840E+03  0.10427444036E+04  0.89819450884E+03 0.  0.
         23    2    4    4    0    0 -0.14892422690E+03 -0.33561335530E+03 -0.37665686932E+03  0.53824184489E+03  0.11410143194E+03 0.  0.
         23    2    4    4    0    0  0.32720530948E+03  0.35186416279E+03 -0.12185519908E+03  0.50450255869E+03  0.93821311944E+02 0.  0.
          2    1    3    3  502    0 -0.13539211149E+03  0.22732428612E+02  0.45899024679E+03  0.47908228292E+03  0.00000000000E+00 0. -1.
         -1    1    3    3    0  502 -0.42888971089E+02 -0.38983236097E+02  0.16296884515E+03  0.17296820814E+03  0.00000000000E+00 0.  1.
         11    1    5    5    0    0 -0.16267234749E+03 -0.26575107625E+03 -0.32529885291E+03  0.45045007589E+03  0.00000000000E+00 0.  1.
        -11    1    5    5    0    0  0.13748120590E+02 -0.69862279057E+02 -0.51358016406E+02  0.87791768998E+02  0.00000000000E+00 0. -1.
          1    1    6    6  503    0  0.12171347596E+03  0.15887612112E+03 -0.74852840308E+01  0.20027935883E+03  0.00000000000E+00 0. -1.
         -1    1    6    6    0  503  0.20549183351E+03  0.19298804167E+03 -0.11436991505E+03  0.30422319986E+03  0.00000000000E+00 0.  1.
<mgrwt>
<rscale>  0 0.16902930E+04</rscale>
<asrwt>0</asrwt>
<pdfrwt beam="1">  1        2 0.13986476E+00 0.16902930E+04</pdfrwt>
<pdfrwt beam="2">  1       -1 0.12087291E+00 0.16902930E+04</pdfrwt>
<totfact> 0.19109292E+01</totfact>
</mgrwt>
</event>
<event>
12    6  0.1663299E-008  0.4540038E+04  0.7818608E-02  0.7903665E-01
         -1   -1    0    0    0  501 -0.00000000000E+00  0.00000000000E+00  0.20653057793E+04  0.20653057793E+04  0.00000000000E+00 0.  1.
          2   -1    0    0  501    0  0.00000000000E+00 -0.00000000000E+00 -0.24950233176E+04  0.24950233176E+04  0.00000000000E+00 0. -1.
         24    2    1    2    0    0 -0.10412446576E+04 -0.77847063278E+03  0.15494854944E+04  0.20242031488E+04  0.79285102154E+02 0.  0.
        254    2    1    2    0    0  0.10412446576E+04  0.77847063278E+03 -0.19792030327E+04  0.25361259481E+04  0.90801058176E+03 0.  0.
         23    2    4    4    0    0  0.24114035380E+02  0.35291373096E+03 -0.97150045160E+03  0.10400095434E+04  0.11259278299E+03 0.  0.
         23    2    4    4    0    0  0.10171306222E+04  0.42555690181E+03 -0.10077025811E+04  0.14961164046E+04  0.85125935136E+02 0.  0.
          4    1    3    3  502    0 -0.11209643081E+03 -0.92720304714E+02  0.21271875233E+03  0.25770512665E+03  0.00000000000E+00 0. -1.
         -3    1    3    3    0  502 -0.92914822678E+03 -0.68575032806E+03  0.13367667421E+04  0.17664980222E+04  0.00000000000E+00 0.  1.
         11    1    5    5    0    0 -0.90186374525E+01  0.10608498352E+02 -0.13295727053E+03  0.13368437398E+03  0.00000000000E+00 0.  1.
        -11    1    5    5    0    0  0.33132672833E+02  0.34230523261E+03 -0.83854318107E+03  0.90632516946E+03  0.00000000000E+00 0. -1.
          3    1    6    6  503    0  0.79418292386E+03  0.29991375479E+03 -0.74683540789E+03  0.11306802834E+04  0.00000000000E+00 0. -1.
         -3    1    6    6    0  503  0.22294769835E+03  0.12564314702E+03 -0.26086717324E+03  0.36543612118E+03  0.00000000000E+00 0.  1.
<mgrwt>
<rscale>  0 0.45400379E+04</rscale>
<asrwt>0</asrwt>
<pdfrwt beam="1">  1        2 0.38384974E+00 0.45400379E+04</pdfrwt>
<pdfrwt beam="2">  1       -1 0.31773935E+00 0.45400379E+04</pdfrwt>
<totfact> 0.76207481E-02</totfact>
</mgrwt>
</event>
<event>
12    6  0.1663299E-008  0.1495278E+04  0.7818608E-02  0.8887599E-01
         -1   -1    0    0    0  501 -0.00000000000E+00  0.00000000000E+00  0.47622285931E+03  0.47622285931E+03  0.00000000000E+00 0.  1.
          2   -1    0    0  501    0  0.00000000000E+00 -0.00000000000E+00 -0.11737448954E+04  0.11737448954E+04  0.00000000000E+00 0. -1.
         24    2    1    2    0    0 -0.51421855599E+02  0.38806412254E+03 -0.46758548996E+03  0.61484108327E+03  0.78456337072E+02 0.  0.
        254    2    1    2    0    0  0.51421855599E+02 -0.38806412254E+03 -0.22993654615E+03  0.10351266715E+04  0.93025719039E+03 0.  0.
         23    2    4    4    0    0  0.14228348769E+03 -0.63283586098E+03  0.27109844519E+02  0.65747686156E+03  0.10399549030E+03 0.  0.
         23    2    4    4    0    0 -0.90861632092E+02  0.24477173844E+03 -0.25704639067E+03  0.37764980989E+03  0.91528639399E+02 0.  0.
          2    1    3    3  502    0 -0.29641434801E+02  0.10673533957E+03 -0.18411995398E+03  0.21487485852E+03  0.00000000000E+00 0. -1.
         -1    1    3    3    0  502 -0.21780420798E+02  0.28132878297E+03 -0.28346553598E+03  0.39996622475E+03  0.00000000000E+00 0.  1.
         11    1    5    5    0    0  0.68911846793E+02 -0.36606219860E+03 -0.34287591060E+02  0.37406685869E+03  0.00000000000E+00 0.  1.
        -11    1    5    5    0    0  0.73371640899E+02 -0.26677366238E+03  0.61397435579E+02  0.28341000287E+03  0.00000000000E+00 0. -1.
          1    1    6    6  503    0 -0.74122512807E+02  0.21350177795E+03 -0.25692568883E+03  0.34218118837E+03  0.00000000000E+00 0. -1.
         -1    1    6    6    0  503 -0.16739119285E+02  0.31269960495E+02 -0.12070183378E+00  0.35468621522E+02  0.00000000000E+00 0.  1.
<mgrwt>
<rscale>  0 0.14952781E+04</rscale>
<asrwt>0</asrwt>
<pdfrwt beam="1">  1        2 0.18057614E+00 0.14952781E+04</pdfrwt>
<pdfrwt beam="2">  1       -1 0.73265056E-01 0.14952781E+04</pdfrwt>
<totfact> 0.40647999E+01</totfact>
</mgrwt>
</event>
<event>
12    6  0.1663299E-008  0.1516412E+04  0.7818608E-02  0.8873612E-01
          2   -1    0    0  501    0  0.00000000000E+00  0.00000000000E+00  0.14626883192E+04  0.14626883192E+04  0.00000000000E+00 0. -1.
         -1   -1    0    0    0  501 -0.00000000000E+00 -0.00000000000E+00 -0.39302741484E+03  0.39302741484E+03  0.00000000000E+00 0.  1.
         24    2    1    2    0    0 -0.27652921808E+03  0.22244234051E+03 -0.53801126800E+02  0.36788654304E+03  0.80603622753E+02 0.  0.
        254    2    1    2    0    0  0.27652921808E+03 -0.22244234051E+03  0.11234620312E+04  0.14878291910E+04  0.90858118121E+03 0.  0.
         23    2    4    4    0    0 -0.26511509895E+02 -0.43807840151E+03  0.97733397781E+03  0.10774709586E+04  0.11465782301E+03 0.  0.
         23    2    4    4    0    0  0.30304072798E+03  0.21563606100E+03  0.14612805339E+03  0.41035823245E+03  0.93316007952E+02 0.  0.
          2    1    3    3  502    0 -0.11124445663E+03  0.45216207411E+02 -0.33665842834E+02  0.12471256359E+03  0.00000000000E+00 0. -1.
         -3    1    3    3    0  502 -0.16528476145E+03  0.17722613310E+03 -0.20135283966E+02  0.24317397945E+03  0.00000000000E+00 0.  1.
         11    1    5    5    0    0  0.24404186083E+02 -0.37482810422E+02  0.57092695934E+02  0.72526555858E+02  0.00000000000E+00 0. -1.
        -11    1    5    5    0    0 -0.50915695979E+02 -0.40059559109E+03  0.92024128188E+03  0.10049444027E+04  0.00000000000E+00 0.  1.
          2    1    6    6  503    0  0.76910708950E+02  0.31754153635E+02 -0.23894323245E+01  0.83242373891E+02  0.00000000000E+00 0. -1.
         -2    1    6    6    0  503  0.22613001903E+03  0.18388190736E+03  0.14851748571E+03  0.32711585856E+03  0.00000000000E+00 0.  1.
<mgrwt>
<rscale>  0 0.15164124E+04</rscale>
<asrwt>0</asrwt>
<pdfrwt beam="1">  1        2 0.22502897E+00 0.15164124E+04</pdfrwt>
<pdfrwt beam="2">  1       -1 0.60465757E-01 0.15164124E+04</pdfrwt>
<totfact> 0.40647460E+01</totfact>
</mgrwt>
</event>
<event>
12    6  0.1663299E-008  0.1404063E+04  0.7818608E-02  0.8950883E-01
         -1   -1    0    0    0  501 -0.00000000000E+00  0.00000000000E+00  0.80329364952E+03  0.80329364952E+03  0.00000000000E+00 0.  1.
          2   -1    0    0  501    0  0.00000000000E+00 -0.00000000000E+00 -0.61353431233E+03  0.61353431233E+03  0.00000000000E+00 0. -1.
         24    2    1    2    0    0 -0.14899071547E+03  0.18279153453E+03 -0.28115887680E+03  0.37531370168E+03  0.78734250965E+02 0.  0.
        254    2    1    2    0    0  0.14899071547E+03 -0.18279153453E+03  0.47091821399E+03  0.10415142602E+04  0.89854160252E+03 0.  0.
         23    2    4    4    0    0 -0.12180014780E+03  0.33958964950E+02  0.62759455475E+03  0.64983659506E+03  0.11146384090E+03 0.  0.
         23    2    4    4    0    0  0.27079086327E+03 -0.21675049948E+03 -0.15667634076E+03  0.39167766510E+03  0.92495658941E+02 0.  0.
          4    1    3    3  502    0 -0.83698169835E+02  0.10467543360E+03 -0.21675551295E+03  0.25484364310E+03  0.00000000000E+00 0. -1.
         -3    1    3    3    0  502 -0.65292545634E+02  0.78116100929E+02 -0.64403363845E+02  0.12047005858E+03  0.00000000000E+00 0.  1.
         11    1    5    5    0    0 -0.84887548646E+02 -0.72861337949E+01  0.18360240497E+03  0.20240757587E+03  0.00000000000E+00 0.  1.
        -11    1    5    5    0    0 -0.36912599158E+02  0.41245098745E+02  0.44399214978E+03  0.44742901919E+03  0.00000000000E+00 0. -1.
          1    1    6    6  503    0  0.14953566388E+03 -0.16898224698E+03 -0.12334671650E+03  0.25715817513E+03  0.00000000000E+00 0. -1.
         -1    1    6    6    0  503  0.12125519939E+03 -0.47768252503E+02 -0.33329624264E+02  0.13451948996E+03  0.00000000000E+00 0.  1.
<mgrwt>
<rscale>  0 0.14040630E+04</rscale>
<asrwt>0</asrwt>
<pdfrwt beam="1">  1        2 0.94389894E-01 0.14040630E+04</pdfrwt>
<pdfrwt beam="2">  1       -1 0.12358364E+00 0.14040630E+04</pdfrwt>
<totfact> 0.30908136E+01</totfact>
</mgrwt>
</event>
<event>
11    6  0.1663299E-008  0.1846114E+04  0.7818608E-02  0.8682154E-01
         -1   -1    0    0    0  501 -0.00000000000E+00  0.00000000000E+00  0.79609533376E+03  0.79609533376E+03  0.00000000000E+00 0.  1.
          2   -1    0    0  501    0  0.00000000000E+00 -0.00000000000E+00 -0.10702669188E+04  0.10702669188E+04  0.00000000000E+00 0. -1.
         24    2    1    2    0    0 -0.12905813225E+03 -0.35063918968E+03 -0.70658443834E+03  0.80328531012E+03  0.80011737330E+02 0.  0.
        254    2    1    2    0    0  0.12905813225E+03  0.35063918968E+03  0.43241285331E+03  0.10630769424E+04  0.89640831486E+03 0.  0.
         23    2    4    4    0    0 -0.75002894058E+02 -0.23300493148E+03 -0.29701040227E+02  0.26319839598E+03  0.92057110768E+02 0.  0.
          4    1    3    3  502    0 -0.91327753049E+02 -0.31560630416E+03 -0.63680207879E+03  0.71656471115E+03  0.00000000000E+00 0. -1.
         -3    1    3    3    0  502 -0.37730379204E+02 -0.35032885514E+02 -0.69782359548E+02  0.86720598973E+02  0.00000000000E+00 0.  1.
         11    1    4    4    0    0  0.53354744340E+02  0.11204013400E+03  0.21857925929E+01  0.12411485834E+03  0.00000000000E+00 0. -1.
        -11    1    4    4    0    0  0.15070628197E+03  0.47160398715E+03  0.45992810095E+03  0.67576368811E+03  0.00000000000E+00 0.  1.
          1    1    5    5  503    0 -0.27102305121E+02 -0.15176167600E+02  0.16880680535E+02  0.35352629056E+02  0.00000000000E+00 0. -1.
         -1    1    5    5    0  503 -0.47900588937E+02 -0.21782876388E+03 -0.46581720762E+02  0.22784576692E+03  0.00000000000E+00 0.  1.
<mgrwt>
<rscale>  0 0.18461143E+04</rscale>
<asrwt>0</asrwt>
<pdfrwt beam="1">  1        2 0.16465645E+00 0.18461143E+04</pdfrwt>
<pdfrwt beam="2">  1       -1 0.12247620E+00 0.18461143E+04</pdfrwt>
<totfact> 0.14359710E+01</totfact>
</mgrwt>
</event>
<event>
12    6  0.1663299E-008  0.2012265E+04  0.7818608E-02  0.8600908E-01
          2   -1    0    0  501    0  0.00000000000E+00  0.00000000000E+00  0.47828204306E+03  0.47828204306E+03  0.00000000000E+00 0. -1.
         -1   -1    0    0    0  501 -0.00000000000E+00 -0.00000000000E+00 -0.21165385400E+04  0.21165385400E+04  0.00000000000E+00 0.  1.
         24    2    1    2    0    0 -0.37796000919E+03 -0.56648563051E+03 -0.11520561512E+03  0.69505168986E+03  0.77876695471E+02 0.  0.
        254    2    1    2    0    0  0.37796000919E+03  0.56648563051E+03 -0.15230508818E+04  0.18997688932E+04  0.90866832280E+03 0.  0.
         23    2    4    4    0    0  0.26875376520E+03 -0.13837084241E+03 -0.16230945408E+03  0.36067522040E+03  0.11120782071E+03 0.  0.
         23    2    4    4    0    0  0.10920624399E+03  0.70485647292E+03 -0.13607414278E+04  0.15390936728E+04  0.91888243839E+02 0.  0.
          4    1    3    3  502    0 -0.32195332277E+03 -0.46986873342E+03 -0.12434280425E+03  0.58300231703E+03  0.00000000000E+00 0. -1.
         -3    1    3    3    0  502 -0.56006686420E+02 -0.96616897095E+02  0.91371891254E+01  0.11204937284E+03  0.00000000000E+00 0.  1.
         11    1    5    5    0    0 -0.13625441449E+01  0.26034347302E+01 -0.27223089363E+02  0.27381216069E+02  0.00000000000E+00 0. -1.
        -11    1    5    5    0    0  0.27011630935E+03 -0.14097427714E+03 -0.13508636472E+03  0.33329400433E+03  0.00000000000E+00 0.  1.
          3    1    6    6  503    0  0.57576683732E+02  0.19259901245E+03 -0.45094806421E+03  0.49372422537E+03  0.00000000000E+00 0. -1.
         -3    1    6    6    0  503  0.51629560258E+02  0.51225746047E+03 -0.90979336354E+03  0.10453694474E+04  0.00000000000E+00 0.  1.
<mgrwt>
<rscale>  0 0.20122648E+04</rscale>
<asrwt>0</asrwt>
<pdfrwt beam="1">  1        2 0.73581853E-01 0.20122648E+04</pdfrwt>
<pdfrwt beam="2">  1       -1 0.32562131E+00 0.20122648E+04</pdfrwt>
<totfact> 0.15478755E+00</totfact>
</mgrwt>
</event>
<event>
11    6  0.1663299E-008  0.2198998E+04  0.7818608E-02  0.8518845E-01
         -1   -1    0    0    0  501 -0.00000000000E+00  0.00000000000E+00  0.83918277420E+03  0.83918277420E+03  0.00000000000E+00 0.  1.
          2   -1    0    0  501    0  0.00000000000E+00 -0.00000000000E+00 -0.14405659051E+04  0.14405659051E+04  0.00000000000E+00 0. -1.
         24    2    1    2    0    0  0.44491253800E+03 -0.64578283871E+03  0.23088545715E+03  0.82138142109E+03  0.79854263186E+02 0.  0.
        254    2    1    2    0    0 -0.44491253800E+03  0.64578283871E+03 -0.83226858803E+03  0.14583672582E+04  0.90508641349E+03 0.  0.
         23    2    4    4    0    0 -0.22111217947E+03  0.81398850358E+03 -0.67957551993E+03  0.10870169771E+04  0.91187396967E+02 0.  0.
          4    1    3    3  502    0  0.25811597913E+03 -0.33486471072E+03  0.90040470648E+02  0.43227944610E+03  0.00000000000E+00 0. -1.
         -3    1    3    3    0  502  0.18679655888E+03 -0.31091812800E+03  0.14084498650E+03  0.38910197500E+03  0.00000000000E+00 0.  1.
         11    1    4    4    0    0 -0.15946459386E+03 -0.86883484205E+02  0.60987457732E+01  0.18170000337E+03  0.00000000000E+00 0.  1.
        -11    1    4    4    0    0 -0.64335764666E+02 -0.81322180661E+02 -0.15879181388E+03  0.18965027771E+03  0.00000000000E+00 0. -1.
          1    1    5    5  503    0 -0.20933625018E+03  0.77646371446E+03 -0.66955148144E+03  0.10464304811E+04  0.00000000000E+00 0. -1.
         -1    1    5    5    0  503 -0.11775929291E+02  0.37524789118E+02 -0.10024038485E+02  0.40586495988E+02  0.00000000000E+00 0.  1.
<mgrwt>
<rscale>  0 0.21989980E+04</rscale>
<asrwt>0</asrwt>
<pdfrwt beam="1">  1        2 0.22162552E+00 0.21989980E+04</pdfrwt>
<pdfrwt beam="2">  1       -1 0.12910504E+00 0.21989980E+04</pdfrwt>
<totfact> 0.73741198E+00</totfact>
</mgrwt>
</event>
<event>
12    6  0.1663299E-008  0.1787877E+04  0.7818608E-02  0.8712773E-01
         -1   -1    0    0    0  501 -0.00000000000E+00  0.00000000000E+00  0.24226661131E+03  0.24226661131E+03  0.00000000000E+00 0.  1.
          2   -1    0    0  501    0  0.00000000000E+00 -0.00000000000E+00 -0.32985393780E+04  0.32985393780E+04  0.00000000000E+00 0. -1.
         24    2    1    2    0    0 -0.23760223575E+03 -0.57175086054E+03 -0.66460471628E+03  0.91188907176E+03  0.80550489315E+02 0.  0.
        254    2    1    2    0    0  0.23760223575E+03  0.57175086054E+03 -0.23916680504E+04  0.26289169176E+04  0.89876260886E+03 0.  0.
         23    2    4    4    0    0  0.91638902141E+02  0.26179091437E+03 -0.22101336029E+04  0.22302788009E+04  0.11189645182E+03 0.  0.
         23    2    4    4    0    0  0.14596333361E+03  0.30995994617E+03 -0.18153444753E+03  0.39863811665E+03  0.92612792959E+02 0.  0.
          4    1    3    3  502    0 -0.23257166672E+03 -0.52099611154E+03 -0.58355486019E+03  0.81612670784E+03  0.00000000000E+00 0. -1.
         -3    1    3    3    0  502 -0.50305690336E+01 -0.50754748996E+02 -0.81049856090E+02  0.95762363916E+02  0.00000000000E+00 0.  1.
         11    1    5    5    0    0  0.58071484878E+02  0.25159690811E+03 -0.20589749263E+04  0.20751026597E+04  0.00000000000E+00 0. -1.
        -11    1    5    5    0    0  0.33567417263E+02  0.10194006260E+02 -0.15115867665E+03  0.15517614118E+03  0.00000000000E+00 0.  1.
          3    1    6    6  503    0  0.43960471834E+02  0.57332832722E+02 -0.18371761669E+01  0.72269993829E+02  0.00000000000E+00 0. -1.
         -3    1    6    6    0  503  0.10200286178E+03  0.25262711345E+03 -0.17969727137E+03  0.32636812283E+03  0.00000000000E+00 0.  1.
<mgrwt>
<rscale>  0 0.17878769E+04</rscale>
<asrwt>0</asrwt>
<pdfrwt beam="1">  1        2 0.50746758E+00 0.17878769E+04</pdfrwt>
<pdfrwt beam="2">  1       -1 0.37271788E-01 0.17878769E+04</pdfrwt>
<totfact> 0.83738376E+00</totfact>
</mgrwt>
</event>
<event>
11    6  0.1663299E-008  0.2733752E+04  0.7818608E-02  0.8324136E-01
         -1   -1    0    0    0  501 -0.00000000000E+00  0.00000000000E+00  0.12302199756E+04  0.12302199756E+04  0.00000000000E+00 0.  1.
          2   -1    0    0  501    0  0.00000000000E+00 -0.00000000000E+00 -0.15187123665E+04  0.15187123665E+04  0.00000000000E+00 0. -1.
         24    2    1    2    0    0  0.11514627702E+03 -0.80063367385E+03 -0.10444296603E+04  0.13234299300E+04  0.79752864639E+02 0.  0.
        254    2    1    2    0    0 -0.11514627702E+03  0.80063367385E+03  0.75593726938E+03  0.14255024121E+04  0.89796604998E+03 0.  0.
         23    2    4    4    0    0  0.22372590131E+03  0.34272606066E+03 -0.43671083716E+02  0.42153743554E+03  0.90951714867E+02 0.  0.
          2    1    3    3  502    0  0.93942369152E+02 -0.76864002522E+03 -0.99187444041E+03  0.12583511285E+04  0.00000000000E+00 0. -1.
         -1    1    3    3    0  502  0.21203907872E+02 -0.31993648630E+02 -0.52555219893E+02  0.65078801462E+02  0.00000000000E+00 0.  1.
         11    1    4    4    0    0 -0.29463955576E+03  0.45398750314E+03  0.63934285459E+03  0.83766127196E+03  0.00000000000E+00 0. -1.
        -11    1    4    4    0    0 -0.44232622571E+02  0.39201100583E+01  0.16026549850E+03  0.16630370462E+03  0.00000000000E+00 0.  1.
          2    1    5    5  503    0  0.20875899135E+03  0.26244710341E+03 -0.17583307269E+02  0.33580942699E+03  0.00000000000E+00 0. -1.
         -2    1    5    5    0  503  0.14966909956E+02  0.80278957243E+02 -0.26087776447E+02  0.85728008548E+02  0.00000000000E+00 0.  1.
<mgrwt>
<rscale>  0 0.27337522E+04</rscale>
<asrwt>0</asrwt>
<pdfrwt beam="1">  1        2 0.23364806E+00 0.27337522E+04</pdfrwt>
<pdfrwt beam="2">  1       -1 0.18926461E+00 0.27337522E+04</pdfrwt>
<totfact> 0.22071685E+00</totfact>
</mgrwt>
</event>
<event>
11    6  0.1663299E-008  0.2170100E+04  0.7818608E-02  0.8530977E-01
          2   -1    0    0  501    0  0.00000000000E+00  0.00000000000E+00  0.97606810680E+03  0.97606810680E+03  0.00000000000E+00 0. -1.
         -1   -1    0    0    0  501 -0.00000000000E+00 -0.00000000000E+00 -0.12061997529E+04  0.12061997529E+04  0.00000000000E+00 0.  1.
         24    2    1    2    0    0 -0.83192425320E+03 -0.14418636803E+03  0.21379868323E+03  0.87462990289E+03  0.79874390705E+02 0.  0.
        254    2    1    2    0    0  0.83192425320E+03  0.14418636803E+03 -0.44393032935E+03  0.13076379568E+04  0.89440215622E+03 0.  0.
         23    2    4    4    0    0  0.87468127120E+02 -0.17761684669E+03 -0.33084550202E+03  0.39621671040E+03  0.91271670872E+02 0.  0.
          2    1    3    3  502    0 -0.25265054901E+03 -0.30772010998E+02  0.10017317279E+03  0.27352126265E+03  0.00000000000E+00 0. -1.
         -1    1    3    3    0  502 -0.57927370419E+03 -0.11341435703E+03  0.11362551044E+03  0.60110864024E+03  0.00000000000E+00 0.  1.
         11    1    4    4    0    0  0.32875384531E+03 -0.66543038299E+02 -0.47827522493E+02  0.33881342750E+03  0.00000000000E+00 0. -1.
        -11    1    4    4    0    0  0.41570228077E+03  0.38834625301E+03 -0.65257304844E+02  0.57260781894E+03  0.00000000000E+00 0.  1.
          3    1    5    5  503    0  0.79475064050E+01  0.10223054581E+02 -0.30699732678E+02  0.33318872873E+02  0.00000000000E+00 0. -1.
         -3    1    5    5    0  503  0.79520620715E+02 -0.18783990127E+03 -0.30014576934E+03  0.36289783752E+03  0.00000000000E+00 0.  1.
<mgrwt>
<rscale>  0 0.21700996E+04</rscale>
<asrwt>0</asrwt>
<pdfrwt beam="1">  1        2 0.15016433E+00 0.21700996E+04</pdfrwt>
<pdfrwt beam="2">  1       -1 0.18556919E+00 0.21700996E+04</pdfrwt>
<totfact> 0.51802151E+00</totfact>
</mgrwt>
</event>
<event>
12    6  0.1663299E-008  0.1860348E+04  0.7818608E-02  0.8674849E-01
         -1   -1    0    0    0  501 -0.00000000000E+00  0.00000000000E+00  0.49606123764E+03  0.49606123764E+03  0.00000000000E+00 0.  1.
          2   -1    0    0  501    0  0.00000000000E+00 -0.00000000000E+00 -0.17441868990E+04  0.17441868990E+04  0.00000000000E+00 0. -1.
         24    2    1    2    0    0 -0.15572840610E+03  0.58548157267E+03 -0.92808332567E+03  0.11111454146E+04  0.79154687587E+02 0.  0.
        254    2    1    2    0    0  0.15572840610E+03 -0.58548157267E+03 -0.32004233570E+03  0.11291027221E+04  0.89744406617E+03 0.  0.
         23    2    4    4    0    0  0.46403805550E+03 -0.43568691664E+03  0.89417214520E+01  0.64503007445E+03  0.10406457743E+03 0.  0.
         23    2    4    4    0    0 -0.30830964940E+03 -0.14979465603E+03 -0.32898405715E+03  0.48407264760E+03  0.92749875521E+02 0.  0.
          4    1    3    3  502    0 -0.86920715097E+02  0.44329500328E+03 -0.71833627238E+03  0.84857095806E+03  0.00000000000E+00 0. -1.
         -3    1    3    3    0  502 -0.68807691005E+02  0.14218656940E+03 -0.20974705329E+03  0.26257445653E+03  0.00000000000E+00 0.  1.
         11    1    5    5    0    0  0.22083839497E+03 -0.27542965819E+03  0.19674774265E+02  0.35357911426E+03  0.00000000000E+00 0. -1.
        -11    1    5    5    0    0  0.24319966053E+03 -0.16025725846E+03 -0.10733052813E+02  0.29145096019E+03  0.00000000000E+00 0.  1.
          3    1    6    6  503    0 -0.26625583253E+03 -0.10089714755E+03 -0.23043594131E+03  0.36629649983E+03  0.00000000000E+00 0. -1.
         -3    1    6    6    0  503 -0.42053816873E+02 -0.48897508481E+02 -0.98548115835E+02  0.11777614777E+03  0.00000000000E+00 0.  1.
<mgrwt>
<rscale>  0 0.18603478E+04</rscale>
<asrwt>0</asrwt>
<pdfrwt beam="1">  1        2 0.26833645E+00 0.18603478E+04</pdfrwt>
<pdfrwt beam="2">  1       -1 0.76317114E-01 0.18603478E+04</pdfrwt>
<totfact> 0.17093413E+01</totfact>
</mgrwt>
</event>
<event>
11    6  0.1663299E-008  0.2210110E+04  0.7818608E-02  0.8514232E-01
          2   -1    0    0  501    0  0.00000000000E+00  0.00000000000E+00  0.21982497537E+04  0.21982497537E+04  0.00000000000E+00 0. -1.
         -1   -1    0    0    0  501 -0.00000000000E+00 -0.00000000000E+00 -0.55550834186E+03  0.55550834186E+03  0.00000000000E+00 0.  1.
         24    2    1    2    0    0 -0.36238587699E+03 -0.18553736144E+03 -0.35093982750E+03  0.54335820158E+03  0.79572208530E+02 0.  0.
        254    2    1    2    0    0  0.36238587699E+03  0.18553736144E+03  0.19936812394E+04  0.22103998940E+04  0.86333954554E+03 0.  0.
         23    2    4    4    0    0  0.11199703734E+03 -0.11252938615E+03  0.38931607613E+02  0.18888430663E+03  0.94633039156E+02 0.  0.
          4    1    3    3  502    0 -0.19327155004E+02 -0.12820963357E+01 -0.33800208689E+00  0.19372582093E+02  0.00000000000E+00 0. -1.
         -3    1    3    3    0  502 -0.34305872198E+03 -0.18425526510E+03 -0.35060182541E+03  0.52398561948E+03  0.00000000000E+00 0.  1.
         11    1    4    4    0    0  0.87922452137E+02  0.22187474096E+03  0.16552952582E+04  0.16724117765E+04  0.00000000000E+00 0. -1.
        -11    1    4    4    0    0  0.16246638751E+03  0.76192006629E+02  0.29945437354E+03  0.34910381088E+03  0.00000000000E+00 0.  1.
          4    1    5    5  503    0  0.12375670890E+03 -0.11723612237E+03  0.29295445107E+02  0.17296894082E+03  0.00000000000E+00 0. -1.
         -4    1    5    5    0  503 -0.11759671555E+02  0.47067362224E+01  0.96361625066E+01  0.15915365808E+02  0.00000000000E+00 0.  1.
<mgrwt>
<rscale>  0 0.22101096E+04</rscale>
<asrwt>0</asrwt>
<pdfrwt beam="1">  1        2 0.33819227E+00 0.22101096E+04</pdfrwt>
<pdfrwt beam="2">  1       -1 0.85462823E-01 0.22101096E+04</pdfrwt>
<totfact> 0.72776611E+00</totfact>
</mgrwt>
</event>
<event>
12    6  0.1663299E-008  0.1659368E+04  0.7818608E-02  0.8784884E-01
          2   -1    0    0  501    0  0.00000000000E+00  0.00000000000E+00  0.16166753944E+04  0.16166753944E+04  0.00000000000E+00 0. -1.
         -1   -1    0    0    0  501 -0.00000000000E+00 -0.00000000000E+00 -0.42579677103E+03  0.42579677103E+03  0.00000000000E+00 0.  1.
         24    2    1    2    0    0  0.15252557914E+03 -0.44821723942E+03  0.81235871116E+03  0.94336888608E+03  0.76520805198E+02 0.  0.
        254    2    1    2    0    0 -0.15252557914E+03  0.44821723942E+03  0.37851991223E+03  0.10991032794E+04  0.91683583523E+03 0.  0.
         23    2    4    4    0    0 -0.10123482601E+03 -0.24033907655E+03 -0.42500230964E+02  0.28558252637E+03  0.10835011778E+03 0.  0.
         23    2    4    4    0    0 -0.51290753129E+02  0.68855631597E+03  0.42102014319E+03  0.81352075299E+03  0.88416700679E+02 0.  0.
          2    1    3    3  502    0 -0.57364606428E+01 -0.53817162380E+02  0.10625123843E+03  0.11924143414E+03  0.00000000000E+00 0. -1.
         -3    1    3    3    0  502  0.15826203979E+03 -0.39440007704E+03  0.70610747272E+03  0.82412745194E+03  0.00000000000E+00 0.  1.
         11    1    5    5    0    0 -0.12054920400E+03 -0.17140864069E+03 -0.43354510541E+02  0.21399216405E+03  0.00000000000E+00 0. -1.
        -11    1    5    5    0    0  0.19314377987E+02 -0.68930435856E+02  0.85427957653E+00  0.71590362325E+02  0.00000000000E+00 0.  1.
          1    1    6    6  503    0 -0.25184481605E+02  0.51359795408E+03  0.26925391966E+03  0.58044361467E+03  0.00000000000E+00 0. -1.
         -1    1    6    6    0  503 -0.26106271524E+02  0.17495836188E+03  0.15176622353E+03  0.23307713832E+03  0.00000000000E+00 0.  1.
<mgrwt>
<rscale>  0 0.16593675E+04</rscale>
<asrwt>0</asrwt>
<pdfrwt beam="1">  1        2 0.24871929E+00 0.16593675E+04</pdfrwt>
<pdfrwt beam="2">  1       -1 0.65507197E-01 0.16593675E+04</pdfrwt>
<totfact> 0.28039713E+01</totfact>
</mgrwt>
</event>
<event>
12    6  0.1663299E-008  0.2157891E+04  0.7818608E-02  0.8536162E-01
          2   -1    0    0  501    0  0.00000000000E+00  0.00000000000E+00  0.66887635070E+03  0.66887635070E+03  0.00000000000E+00 0. -1.
         -1   -1    0    0    0  501 -0.00000000000E+00 -0.00000000000E+00 -0.17404170950E+04  0.17404170950E+04  0.00000000000E+00 0.  1.
         24    2    1    2    0    0 -0.51434597538E+03 -0.72984017139E+03 -0.48587729595E+03  0.10196820861E+04  0.80351427244E+02 0.  0.
        254    2    1    2    0    0  0.51434597538E+03  0.72984017139E+03 -0.58566344839E+03  0.13896113596E+04  0.88926913692E+03 0.  0.
         23    2    4    4    0    0 -0.71667046096E+02  0.23472634950E+03 -0.55554630409E+03  0.61628713297E+03  0.10462078969E+03 0.  0.
         23    2    4    4    0    0  0.58601302148E+03  0.49511382189E+03 -0.30117144304E+02  0.77332422666E+03  0.92597835806E+02 0.  0.
          4    1    3    3  502    0 -0.43272555447E+03 -0.63255547766E+03 -0.38600195243E+03  0.85812315264E+03  0.00000000000E+00 0. -1.
         -3    1    3    3    0  502 -0.81620420915E+02 -0.97284693723E+02 -0.99875343518E+02  0.16155893348E+03  0.00000000000E+00 0.  1.
         11    1    5    5    0    0 -0.46318404426E+02  0.28367758424E+02 -0.16701720656E+03  0.17562708103E+03  0.00000000000E+00 0. -1.
        -11    1    5    5    0    0 -0.25348641670E+02  0.20635859108E+03 -0.38852909753E+03  0.44066005194E+03  0.00000000000E+00 0.  1.
          1    1    6    6  503    0  0.39857794927E+03  0.31914830627E+03 -0.61612218412E+02  0.51431127588E+03  0.00000000000E+00 0. -1.
         -1    1    6    6    0  503  0.18743507221E+03  0.17596551562E+03  0.31495074108E+02  0.25901295078E+03  0.00000000000E+00 0.  1.
<mgrwt>
<rscale>  0 0.21578914E+04</rscale>
<asrwt>0</asrwt>
<pdfrwt beam="1">  1        2 0.10290406E+00 0.21578914E+04</pdfrwt>
<pdfrwt beam="2">  1       -1 0.26775647E+00 0.21578914E+04</pdfrwt>
<totfact> 0.24272112E+00</totfact>
</mgrwt>
</event>
<event>
12    6  0.1663299E-008  0.1189363E+04  0.7818608E-02  0.9122218E-01
         -1   -1    0    0    0  501 -0.00000000000E+00  0.00000000000E+00  0.37736808699E+03  0.37736808699E+03  0.00000000000E+00 0.  1.
          2   -1    0    0  501    0  0.00000000000E+00 -0.00000000000E+00 -0.93713872213E+03  0.93713872213E+03  0.00000000000E+00 0. -1.
         24    2    1    2    0    0 -0.81947071026E+02 -0.12248475689E+02  0.15944413983E+03  0.20081941058E+03  0.89669695733E+02 0.  0.
        254    2    1    2    0    0  0.81947071026E+02  0.12248475689E+02 -0.71921477497E+03  0.11136873985E+04  0.84626495941E+03 0.  0.
         23    2    4    4    0    0 -0.10006026870E+03  0.38946968248E+03 -0.41621376333E+03  0.58852479158E+03  0.10690576495E+03 0.  0.
         23    2    4    4    0    0  0.18200733973E+03 -0.37722120679E+03 -0.30300101165E+03  0.52516260696E+03  0.92539937954E+02 0.  0.
          2    1    3    3  502    0 -0.62651046115E+02 -0.49635876074E+02  0.10801736784E+03  0.13437494382E+03  0.00000000000E+00 0. -1.
         -1    1    3    3    0  502 -0.19296024910E+02  0.37387400385E+02  0.51426771994E+02  0.66444466757E+02  0.00000000000E+00 0.  1.
         11    1    5    5    0    0  0.11410805766E+02  0.37369667003E+01 -0.30256307148E+01  0.12382481560E+02  0.00000000000E+00 0.  1.
        -11    1    5    5    0    0 -0.11147107447E+03  0.38573271578E+03 -0.41318813261E+03  0.57614231002E+03  0.00000000000E+00 0. -1.
          2    1    6    6  503    0  0.18949842057E+03 -0.33695593847E+03 -0.26065574996E+03  0.46625140842E+03  0.00000000000E+00 0. -1.
         -2    1    6    6    0  503 -0.74910808433E+01 -0.40265268324E+02 -0.42345261683E+02  0.58911198532E+02  0.00000000000E+00 0.  1.
<mgrwt>
<rscale>  0 0.11893633E+04</rscale>
<asrwt>0</asrwt>
<pdfrwt beam="1">  1        2 0.14417519E+00 0.11893633E+04</pdfrwt>
<pdfrwt beam="2">  1       -1 0.58056629E-01 0.11893633E+04</pdfrwt>
<totfact> 0.93754549E+01</totfact>
</mgrwt>
</event>
<event>
11    6  0.1663299E-008  0.1764671E+04  0.7818608E-02  0.8725316E-01
          2   -1    0    0  501    0  0.00000000000E+00  0.00000000000E+00  0.67836850760E+03  0.67836850760E+03  0.00000000000E+00 0. -1.
         -1   -1    0    0    0  501 -0.00000000000E+00 -0.00000000000E+00 -0.11476304341E+04  0.11476304341E+04  0.00000000000E+00 0.  1.
         24    2    1    2    0    0  0.58076977557E+03  0.12559111505E+03  0.10732894292E+03  0.60886468867E+03  0.78294614923E+02 0.  0.
        254    2    1    2    0    0 -0.58076977557E+03 -0.12559111505E+03 -0.57659086939E+03  0.12171342530E+04  0.89212784890E+03 0.  0.
         23    2    4    4    0    0  0.52166105669E+02  0.17888384600E+03 -0.44469661279E+03  0.48974707316E+03  0.85885885310E+02 0.  0.
          4    1    3    3  502    0  0.56480872247E+03  0.12931256612E+03  0.92494230766E+02  0.58675873701E+03  0.00000000000E+00 0. -1.
         -3    1    3    3    0  502  0.15961053102E+02 -0.37214510663E+01  0.14834712153E+02  0.22105951661E+02  0.00000000000E+00 0.  1.
         11    1    4    4    0    0 -0.83945105937E+02 -0.67150114627E+02 -0.64861544018E+02  0.12555054200E+03  0.00000000000E+00 0.  1.
        -11    1    4    4    0    0 -0.54899077531E+03 -0.23732484642E+03 -0.67032712584E+02  0.60183663785E+03  0.00000000000E+00 0. -1.
          3    1    5    5  503    0  0.71401110707E+02  0.10771543935E+03 -0.24724740437E+03  0.27898389461E+03  0.00000000000E+00 0. -1.
         -3    1    5    5    0  503 -0.19235005038E+02  0.71168406653E+02 -0.19744920842E+03  0.21076317855E+03  0.00000000000E+00 0.  1.
<mgrwt>
<rscale>  0 0.17646715E+04</rscale>
<asrwt>0</asrwt>
<pdfrwt beam="1">  1        2 0.10436439E+00 0.17646715E+04</pdfrwt>
<pdfrwt beam="2">  1       -1 0.17655853E+00 0.17646715E+04</pdfrwt>
<totfact> 0.10155282E+01</totfact>
</mgrwt>
</event>
<event>
11    6  0.1663299E-008  0.1911641E+04  0.7818608E-02  0.8649084E-01
         -1   -1    0    0    0  501 -0.00000000000E+00  0.00000000000E+00  0.57672203630E+03  0.57672203630E+03  0.00000000000E+00 0.  1.
          2   -1    0    0  501    0  0.00000000000E+00 -0.00000000000E+00 -0.15841128327E+04  0.15841128327E+04  0.00000000000E+00 0. -1.
         24    2    1    2    0    0 -0.44129450258E+03 -0.41108834928E+03  0.99917392037E+02  0.61614552742E+03  0.76924357677E+02 0.  0.
        254    2    1    2    0    0  0.44129450258E+03  0.41108834928E+03 -0.11073081885E+04  0.15446893416E+04  0.89229998817E+03 0.  0.
         23    2    4    4    0    0  0.49452019573E+03  0.45864680864E+03 -0.65555072107E+03  0.94558366933E+03  0.97337601877E+02 0.  0.
          4    1    3    3  502    0 -0.31557209523E+03 -0.28169941494E+03  0.10430273739E+03  0.43568264676E+03  0.00000000000E+00 0. -1.
         -3    1    3    3    0  502 -0.12572240735E+03 -0.12938893434E+03 -0.43853453509E+01  0.18046288065E+03  0.00000000000E+00 0.  1.
         11    1    4    4    0    0  0.58454463167E+02 -0.59565479392E+02  0.41510905154E+02  0.93210116650E+02  0.00000000000E+00 0. -1.
        -11    1    4    4    0    0 -0.11168015632E+03  0.12007020026E+02 -0.49326837253E+03  0.50589555561E+03  0.00000000000E+00 0.  1.
          2    1    5    5  503    0  0.13633117611E+03  0.12983124892E+03 -0.12528347134E+03  0.22613776989E+03  0.00000000000E+00 0. -1.
         -2    1    5    5    0  503  0.35818901962E+03  0.32881555972E+03 -0.53026724973E+03  0.71944589944E+03  0.00000000000E+00 0.  1.
<mgrwt>
<rscale>  0 0.19116409E+04</rscale>
<asrwt>0</asrwt>
<pdfrwt beam="1">  1        2 0.24370966E+00 0.19116409E+04</pdfrwt>
<pdfrwt beam="2">  1       -1 0.88726468E-01 0.19116409E+04</pdfrwt>
<totfact> 0.15124735E+01</totfact>
</mgrwt>
</event>
<event>
11    6  0.1663299E-008  0.1374712E+04  0.7818608E-02  0.8972329E-01
          2   -1    0    0  501    0  0.00000000000E+00  0.00000000000E+00  0.91675236099E+03  0.91675236099E+03  0.00000000000E+00 0. -1.
         -1   -1    0    0    0  501 -0.00000000000E+00 -0.00000000000E+00 -0.51536111009E+03  0.51536111009E+03  0.00000000000E+00 0.  1.
         24    2    1    2    0    0  0.27384529625E+02 -0.36159780015E+03  0.24688633121E+03  0.44565512601E+03  0.78439462376E+02 0.  0.
        254    2    1    2    0    0 -0.27384529625E+02  0.36159780015E+03  0.15450491968E+03  0.98645834507E+03  0.90428171209E+03 0.  0.
         23    2    4    4    0    0 -0.30183621476E+03 -0.13890508033E+03 -0.63144335876E+02  0.35063224213E+03  0.92498865871E+02 0.  0.
          2    1    3    3  502    0  0.16107842829E+01 -0.32996743518E+03  0.22468120561E+03  0.39920263909E+03  0.00000000000E+00 0. -1.
         -1    1    3    3    0  502  0.25773745342E+02 -0.31630364972E+02  0.22205125602E+02  0.46452486911E+02  0.00000000000E+00 0.  1.
         11    1    4    4    0    0  0.28168522201E+03  0.46987100276E+03  0.23909612144E+03  0.59773930674E+03  0.00000000000E+00 0. -1.
        -11    1    4    4    0    0 -0.72335368784E+01  0.30631877720E+02 -0.21446865883E+02  0.38086796198E+02  0.00000000000E+00 0.  1.
          2    1    5    5  503    0 -0.20418457141E+03 -0.12105185450E+03 -0.78856100422E+02  0.25012631859E+03  0.00000000000E+00 0. -1.
         -2    1    5    5    0  503 -0.97651643346E+02 -0.17853225835E+02  0.15711764546E+02  0.10050592354E+03  0.00000000000E+00 0.  1.
<mgrwt>
<rscale>  0 0.13747124E+04</rscale>
<asrwt>0</asrwt>
<pdfrwt beam="1">  1        2 0.14103883E+00 0.13747124E+04</pdfrwt>
<pdfrwt beam="2">  1       -1 0.79286324E-01 0.13747124E+04</pdfrwt>
<totfact> 0.50559939E+01</totfact>
</mgrwt>
</event>
<event>
11    6  0.1663299E-008  0.1209953E+04  0.7818608E-02  0.9104189E-01
         -1   -1    0    0    0  501 -0.00000000000E+00  0.00000000000E+00  0.28750203659E+03  0.28750203659E+03  0.00000000000E+00 0.  1.
          2   -1    0    0  501    0  0.00000000000E+00 -0.00000000000E+00 -0.12730222117E+04  0.12730222117E+04  0.00000000000E+00 0. -1.
         24    2    1    2    0    0  0.19048245908E+03  0.67395579610E+02 -0.42665040570E+03  0.47827892948E+03  0.76775219514E+02 0.  0.
        254    2    1    2    0    0 -0.19048245908E+03 -0.67395579610E+02 -0.55886976942E+03  0.10822453188E+04  0.90448536724E+03 0.  0.
         23    2    4    4    0    0 -0.10324605637E+03  0.39103057388E+03 -0.33566203981E+03  0.53274986746E+03  0.87113480254E+02 0.  0.
          2    1    3    3  502    0  0.15747574694E+03  0.69258396090E+02 -0.40129652284E+03  0.43661680630E+03  0.00000000000E+00 0. -1.
         -1    1    3    3    0  502  0.33006712142E+02 -0.18628164796E+01 -0.25353882868E+02  0.41662123184E+02  0.00000000000E+00 0.  1.
         11    1    4    4    0    0 -0.10657132839E+03 -0.46526097746E+03 -0.19736798751E+03  0.51650687089E+03  0.00000000000E+00 0. -1.
        -11    1    4    4    0    0  0.19334925679E+02  0.68348239700E+01 -0.25839742091E+02  0.32988580464E+02  0.00000000000E+00 0.  1.
          4    1    5    5  503    0 -0.49871806417E+02  0.58570564939E+02 -0.66076451706E+02  0.10140910030E+03  0.00000000000E+00 0.  1.
         -4    1    5    5    0  503 -0.53374249950E+02  0.33246000894E+03 -0.26958558810E+03  0.43134076716E+03  0.00000000000E+00 0. -1.
<mgrwt>
<rscale>  0 0.12099529E+04</rscale>
<asrwt>0</asrwt>
<pdfrwt beam="1">  1        2 0.19584957E+00 0.12099529E+04</pdfrwt>
<pdfrwt beam="2">  1       -1 0.44231083E-01 0.12099529E+04</pdfrwt>
<totfact> 0.97412895E+01</totfact>
</mgrwt>
</event>
<event>
11    6  0.1663299E-008  0.2134929E+04  0.7818608E-02  0.8546011E-01
         -1   -1    0    0    0  501 -0.00000000000E+00  0.00000000000E+00  0.89448806018E+03  0.89448806018E+03  0.00000000000E+00 0.  1.
          2   -1    0    0  501    0  0.00000000000E+00 -0.00000000000E+00 -0.12738911533E+04  0.12738911533E+04  0.00000000000E+00 0. -1.
         24    2    1    2    0    0 -0.40892576496E+02  0.19976370816E+03  0.72783962520E+03  0.76009710307E+03  0.80120809923E+02 0.  0.
        254    2    1    2    0    0  0.40892576496E+02 -0.19976370816E+03 -0.11072427183E+04  0.14082821104E+04  0.84598718864E+03 0.  0.
         23    2    4    4    0    0  0.57993860306E+02  0.15403771106E+01 -0.11040146634E+04  0.11092730958E+04  0.90954733842E+02 0.  0.
          2    1    3    3  502    0  0.15406655539E+02  0.25852572208E+02  0.53108292414E+02  0.61042700200E+02  0.00000000000E+00 0. -1.
         -1    1    3    3    0  502 -0.56299232034E+02  0.17391113595E+03  0.67473133278E+03  0.69905440287E+03  0.00000000000E+00 0.  1.
         11    1    4    4    0    0 -0.87873286161E+02 -0.13491191073E+03 -0.75680632913E+02  0.17790586352E+03  0.00000000000E+00 0. -1.
        -11    1    4    4    0    0  0.70772002350E+02 -0.66392174537E+02  0.72452577928E+02  0.12110315109E+03  0.00000000000E+00 0.  1.
          2    1    5    5  503    0  0.61798219408E+02  0.31755344472E+02 -0.54218654363E+03  0.54662022457E+03  0.00000000000E+00 0. -1.
         -2    1    5    5    0  503 -0.38043591012E+01 -0.30214967361E+02 -0.56182811973E+03  0.56265287125E+03  0.00000000000E+00 0.  1.
<mgrwt>
<rscale>  0 0.21349290E+04</rscale>
<asrwt>0</asrwt>
<pdfrwt beam="1">  1        2 0.19598326E+00 0.21349290E+04</pdfrwt>
<pdfrwt beam="2">  1       -1 0.13761355E+00 0.21349290E+04</pdfrwt>
<totfact> 0.78636722E+00</totfact>
</mgrwt>
</event>
<event>
12    6  0.1663299E-008  0.1359932E+04  0.7818608E-02  0.8983344E-01
         -1   -1    0    0    0  501 -0.00000000000E+00  0.00000000000E+00  0.22697032940E+04  0.22697032940E+04  0.00000000000E+00 0.  1.
          2   -1    0    0  501    0  0.00000000000E+00 -0.00000000000E+00 -0.20370672143E+03  0.20370672143E+03  0.00000000000E+00 0. -1.
         24    2    1    2    0    0 -0.12354929050E+03 -0.15672175870E+03  0.81137445859E+03  0.83945972239E+03  0.80857755545E+02 0.  0.
        254    2    1    2    0    0  0.12354929050E+03  0.15672175870E+03  0.12546221140E+04  0.16339502930E+04  0.10275654599E+04 0.  0.
         23    2    4    4    0    0 -0.27829738348E+03  0.44873894425E+03  0.60317878229E+03  0.80964738693E+03  0.11352609395E+03 0.  0.
         23    2    4    4    0    0  0.40184667398E+03 -0.29201718555E+03  0.65144333167E+03  0.82430290611E+03  0.91334991056E+02 0.  0.
          4    1    3    3  502    0  0.74399133363E+01 -0.37249884132E+02  0.15002764469E+03  0.15476175351E+03  0.00000000000E+00 0. -1.
         -3    1    3    3    0  502 -0.13098920383E+03 -0.11947187457E+03  0.66134681390E+03  0.68469796888E+03  0.00000000000E+00 0.  1.
         11    1    5    5    0    0 -0.26532847137E+03  0.43189675945E+03  0.52969675633E+03  0.73315255044E+03  0.00000000000E+00 0. -1.
        -11    1    5    5    0    0 -0.12968912110E+02  0.16842184799E+02  0.73482025960E+02  0.76494836488E+02  0.00000000000E+00 0.  1.
          2    1    6    6  503    0  0.39713349323E+03 -0.29755416845E+03  0.64819357052E+03  0.81633840990E+03  0.00000000000E+00 0. -1.
         -2    1    6    6    0  503  0.47131807444E+01  0.55369828975E+01  0.32497611529E+01  0.79644962106E+01  0.00000000000E+00 0.  1.
<mgrwt>
<rscale>  0 0.13599321E+04</rscale>
<asrwt>0</asrwt>
<pdfrwt beam="1">  1        2 0.31339497E-01 0.13599321E+04</pdfrwt>
<pdfrwt beam="2">  1       -1 0.34918510E+00 0.13599321E+04</pdfrwt>
<totfact> 0.30065347E+00</totfact>
</mgrwt>
</event>
<event>
11    6  0.1663299E-008  0.1249325E+04  0.7818608E-02  0.9070745E-01
          2   -1    0    0  501    0  0.00000000000E+00  0.00000000000E+00  0.22552612039E+03  0.22552612039E+03  0.00000000000E+00 0. -1.
         -1   -1    0    0    0  501 -0.00000000000E+00 -0.00000000000E+00 -0.17301921935E+04  0.17301921935E+04  0.00000000000E+00 0.  1.
         24    2    1    2    0    0 -0.16537238132E+03  0.98571183509E+02 -0.69467625215E+03  0.72565000222E+03  0.83237778080E+02 0.  0.
        254    2    1    2    0    0  0.16537238132E+03 -0.98571183509E+02 -0.80998982093E+03  0.12300683116E+04  0.90549447186E+03 0.  0.
         23    2    4    4    0    0  0.50803270181E+03 -0.18466092979E+03 -0.46048208195E+03  0.71582698244E+03  0.90374973845E+02 0.  0.
          4    1    3    3  502    0 -0.39320187416E+02 -0.31279999044E+01 -0.70306587668E+02  0.80615617540E+02  0.00000000000E+00 0. -1.
         -3    1    3    3    0  502 -0.12605219390E+03  0.10169918341E+03 -0.62436966449E+03  0.64503438468E+03  0.00000000000E+00 0.  1.
         11    1    4    4    0    0  0.35059108746E+01  0.24133475944E+02 -0.13589002904E+02  0.27917325662E+02  0.00000000000E+00 0. -1.
        -11    1    4    4    0    0 -0.34616623136E+03  0.61956270333E+02 -0.33591873608E+03  0.48632400354E+03  0.00000000000E+00 0.  1.
          3    1    5    5  503    0  0.15062776087E+03 -0.98595606085E+02 -0.16444018732E+03  0.24382450880E+03  0.00000000000E+00 0. -1.
         -3    1    5    5    0  503  0.35740494094E+03 -0.86065323701E+02 -0.29604189463E+03  0.47200247365E+03  0.00000000000E+00 0.  1.
<mgrwt>
<rscale>  0 0.12493255E+04</rscale>
<asrwt>0</asrwt>
<pdfrwt beam="1">  1        2 0.34696326E-01 0.12493255E+04</pdfrwt>
<pdfrwt beam="2">  1       -1 0.26618342E+00 0.12493255E+04</pdfrwt>
<totfact> 0.93502648E+00</totfact>
</mgrwt>
</event>
<event>
12    6  0.1663299E-008  0.1380474E+04  0.7818608E-02  0.8968075E-01
         -1   -1    0    0    0  501 -0.00000000000E+00  0.00000000000E+00  0.69128449676E+03  0.69128449676E+03  0.00000000000E+00 0.  1.
          2   -1    0    0  501    0  0.00000000000E+00 -0.00000000000E+00 -0.68919151570E+03  0.68919151570E+03  0.00000000000E+00 0. -1.
         24    2    1    2    0    0 -0.21200489335E+03  0.34238496468E+02 -0.38563909221E+03  0.44796026891E+03  0.76371091570E+02 0.  0.
        254    2    1    2    0    0  0.21200489335E+03 -0.34238496468E+02  0.38773207328E+03  0.93251574355E+03  0.82044567271E+03 0.  0.
         23    2    4    4    0    0  0.26763162784E+03 -0.33187761798E+03  0.42813408586E+03  0.61307789489E+03  0.10390509225E+03 0.  0.
         23    2    4    4    0    0 -0.55626734482E+02  0.29763912151E+03 -0.40402012588E+02  0.31943784865E+03  0.93406832138E+02 0.  0.
          4    1    3    3  502    0 -0.12049502076E+03 -0.10460090068E+02 -0.25573173233E+03  0.28289076060E+03  0.00000000000E+00 0. -1.
         -3    1    3    3    0  502 -0.91509872591E+02  0.44698586536E+02 -0.12990735989E+03  0.16506950831E+03  0.00000000000E+00 0.  1.
         11    1    5    5    0    0  0.24983165383E+03 -0.24596809670E+03  0.35380533865E+03  0.49809073220E+03  0.00000000000E+00 0. -1.
        -11    1    5    5    0    0  0.17799974003E+02 -0.85909521280E+02  0.74328747215E+02  0.11498716269E+03  0.00000000000E+00 0.  1.
          4    1    6    6  503    0 -0.67822003029E+02  0.21667804247E+03  0.23857970965E+01  0.22705701973E+03  0.00000000000E+00 0. -1.
         -4    1    6    6    0  503  0.12195268547E+02  0.80961079041E+02 -0.42787809685E+02  0.92380828920E+02  0.00000000000E+00 0.  1.
<mgrwt>
<rscale>  0 0.13804744E+04</rscale>
<asrwt>0</asrwt>
<pdfrwt beam="1">  1        2 0.10602946E+00 0.13804744E+04</pdfrwt>
<pdfrwt beam="2">  1       -1 0.10635146E+00 0.13804744E+04</pdfrwt>
<totfact> 0.38459281E+01</totfact>
</mgrwt>
</event>
<event>
12    6  0.1663299E-008  0.2141011E+04  0.7818608E-02  0.8543390E-01
          2   -1    0    0  501    0  0.00000000000E+00  0.00000000000E+00  0.22188371353E+04  0.22188371353E+04  0.00000000000E+00 0. -1.
         -1   -1    0    0    0  501 -0.00000000000E+00 -0.00000000000E+00 -0.51647874250E+03  0.51647874250E+03  0.00000000000E+00 0.  1.
         24    2    1    2    0    0 -0.42285860171E+02 -0.73601343457E+03  0.13163035149E+04  0.15110124500E+04  0.83664873085E+02 0.  0.
        254    2    1    2    0    0  0.42285860171E+02  0.73601343457E+03  0.38605487790E+03  0.12243034278E+04  0.89798476861E+03 0.  0.
         23    2    4    4    0    0 -0.78483899967E+02  0.30423815177E+03 -0.27329480666E+03  0.42198156769E+03  0.68248198340E+02 0.  0.
         23    2    4    4    0    0  0.12076976014E+03  0.43177528280E+03  0.65934968456E+03  0.80232186007E+03  0.89236376110E+02 0.  0.
          4    1    3    3  502    0 -0.42139752230E+02 -0.55451463553E+03  0.91801631209E+03  0.10733201708E+04  0.00000000000E+00 0. -1.
         -3    1    3    3    0  502 -0.14610794158E+00 -0.18149879904E+03  0.39828720280E+03  0.43769227925E+03  0.00000000000E+00 0.  1.
         11    1    5    5    0    0 -0.38907939366E+02  0.23958056725E+03 -0.18235518312E+03  0.30358868351E+03  0.00000000000E+00 0.  1.
        -11    1    5    5    0    0 -0.39575960601E+02  0.64657584529E+02 -0.90939623540E+02  0.11839288418E+03  0.00000000000E+00 0. -1.
          3    1    6    6  503    0  0.27088363188E+02  0.20460876179E+02  0.34480140613E+02  0.48387053753E+02  0.00000000000E+00 0. -1.
         -3    1    6    6    0  503  0.93681396950E+02  0.41131440662E+03  0.62486954395E+03  0.75393480632E+03  0.00000000000E+00 0.  1.
<mgrwt>
<rscale>  0 0.21410112E+04</rscale>
<asrwt>0</asrwt>
<pdfrwt beam="1">  1        2 0.34135955E+00 0.21410112E+04</pdfrwt>
<pdfrwt beam="2">  1       -1 0.79458269E-01 0.21410112E+04</pdfrwt>
<totfact> 0.83367533E+00</totfact>
</mgrwt>
</event>
<event>
11    6  0.1663299E-008  0.1858169E+04  0.7818608E-02  0.8675963E-01
          2   -1    0    0  501    0  0.00000000000E+00  0.00000000000E+00  0.20631832493E+04  0.20631832493E+04  0.00000000000E+00 0. -1.
         -1   -1    0    0    0  501 -0.00000000000E+00 -0.00000000000E+00 -0.41838156294E+03  0.41838156294E+03  0.00000000000E+00 0.  1.
         24    2    1    2    0    0 -0.58683746254E+01  0.64725703720E+03  0.99088655530E+03  0.11863281363E+04  0.80883691121E+02 0.  0.
        254    2    1    2    0    0  0.58683746254E+01 -0.64725703720E+03  0.65391513108E+03  0.12952366760E+04  0.91162324348E+03 0.  0.
         23    2    4    4    0    0 -0.26435458260E+02  0.20737889031E+03  0.12333066648E+03  0.25929061243E+03  0.91193918652E+02 0.  0.
          4    1    3    3  502    0  0.70676801888E+01  0.12059458959E+03  0.13368632804E+03  0.18018058011E+03  0.00000000000E+00 0. -1.
         -3    1    3    3    0  502 -0.12936054814E+02  0.52666244761E+03  0.85720022726E+03  0.10061475562E+04  0.00000000000E+00 0.  1.
         11    1    4    4    0    0 -0.54308938008E+02 -0.75600360948E+03  0.43922654194E+03  0.87601990471E+03  0.00000000000E+00 0. -1.
        -11    1    4    4    0    0  0.86612770893E+02 -0.98632318033E+02  0.91357922658E+02  0.15992615882E+03  0.00000000000E+00 0.  1.
          3    1    5    5  503    0  0.18604187987E+02  0.14151084793E+03  0.50922974697E+02  0.15154070491E+03  0.00000000000E+00 0. -1.
         -3    1    5    5    0  503 -0.45039646247E+02  0.65868042383E+02  0.72407691781E+02  0.10774990752E+03  0.00000000000E+00 0.  1.
<mgrwt>
<rscale>  0 0.18581688E+04</rscale>
<asrwt>0</asrwt>
<pdfrwt beam="1">  1        2 0.31741280E+00 0.18581688E+04</pdfrwt>
<pdfrwt beam="2">  1       -1 0.64366396E-01 0.18581688E+04</pdfrwt>
<totfact> 0.16135910E+01</totfact>
</mgrwt>
</event>
<event>
12    6  0.1663299E-008  0.2727957E+04  0.7818608E-02  0.8325991E-01
         -1   -1    0    0    0  501 -0.00000000000E+00  0.00000000000E+00  0.89721753404E+03  0.89721753404E+03  0.00000000000E+00 0.  1.
          2   -1    0    0  501    0  0.00000000000E+00 -0.00000000000E+00 -0.20735627149E+04  0.20735627149E+04  0.00000000000E+00 0. -1.
         24    2    1    2    0    0 -0.47143732794E+03 -0.11175408734E+04 -0.57861510773E+03  0.13459802122E+04  0.75607744153E+02 0.  0.
        254    2    1    2    0    0  0.47143732794E+03  0.11175408734E+04 -0.59773007313E+03  0.16248000367E+04  0.90085690378E+03 0.  0.
         23    2    4    4    0    0  0.26742396514E+03  0.80216997876E+03 -0.81894740721E+03  0.11796079393E+04  0.76208810107E+02 0.  0.
         23    2    4    4    0    0  0.20401336280E+03  0.31537089462E+03  0.22121733408E+03  0.44519209740E+03  0.90435840851E+02 0.  0.
          4    1    3    3  502    0 -0.12420421328E+03 -0.30261053311E+03 -0.19356974303E+03  0.38009086646E+03  0.00000000000E+00 0. -1.
         -3    1    3    3    0  502 -0.34723311466E+03 -0.81493034027E+03 -0.38504536471E+03  0.96588934578E+03  0.00000000000E+00 0.  1.
         11    1    5    5    0    0  0.99166502187E+01  0.67297145609E+02 -0.91342173554E+02  0.11388871071E+03  0.00000000000E+00 0. -1.
        -11    1    5    5    0    0  0.25750731492E+03  0.73487283315E+03 -0.72760523366E+03  0.10657192286E+04  0.00000000000E+00 0.  1.
          4    1    6    6  503    0  0.13009998802E+01  0.61279717754E+02  0.35516076651E+02  0.70839876548E+02  0.00000000000E+00 0. -1.
         -4    1    6    6    0  503  0.20271236292E+03  0.25409117687E+03  0.18570125743E+03  0.37435222085E+03  0.00000000000E+00 0.  1.
<mgrwt>
<rscale>  0 0.27279566E+04</rscale>
<asrwt>0</asrwt>
<pdfrwt beam="1">  1        2 0.31900965E+00 0.27279566E+04</pdfrwt>
<pdfrwt beam="2">  1       -1 0.13803347E+00 0.27279566E+04</pdfrwt>
<totfact> 0.26324878E+00</totfact>
</mgrwt>
</event>
<event>
11    6  0.1663299E-008  0.1245948E+04  0.7818608E-02  0.9073563E-01
         -1   -1    0    0    0  501 -0.00000000000E+00  0.00000000000E+00  0.81197649837E+03  0.81197649837E+03  0.00000000000E+00 0.  1.
          2   -1    0    0  501    0  0.00000000000E+00 -0.00000000000E+00 -0.47796524935E+03  0.47796524935E+03  0.00000000000E+00 0. -1.
         24    2    1    2    0    0  0.76563689359E+02  0.16006157546E+03  0.31404484480E+03  0.36938790224E+03  0.79633857784E+02 0.  0.
        254    2    1    2    0    0 -0.76563689359E+02 -0.16006157546E+03  0.19966404211E+02  0.92055384548E+03  0.90307198975E+03 0.  0.
         23    2    4    4    0    0  0.52865121385E+02  0.22452465412E+03 -0.29581706584E+03  0.38611626572E+03  0.91498594784E+02 0.  0.
          4    1    3    3  502    0  0.11280068955E+02 -0.14884648738E+01  0.13951709690E+01  0.11463070502E+02  0.00000000000E+00 0. -1.
         -3    1    3    3    0  502  0.65283620404E+02  0.16155004033E+03  0.31264967383E+03  0.35792483173E+03  0.00000000000E+00 0.  1.
         11    1    4    4    0    0 -0.80038844462E+01 -0.18449841319E+02 -0.15949400789E+02  0.25667921545E+02  0.00000000000E+00 0. -1.
        -11    1    4    4    0    0 -0.12142492630E+03 -0.36613638825E+03  0.33173287084E+03  0.50876965822E+03  0.00000000000E+00 0.  1.
          1    1    5    5  503    0  0.25220834181E+02  0.17154401928E+02 -0.10374633821E+02  0.32217960972E+02  0.00000000000E+00 0. -1.
         -1    1    5    5    0  503  0.27644287204E+02  0.20737025219E+03 -0.28544243202E+03  0.35389830475E+03  0.00000000000E+00 0.  1.
<mgrwt>
<rscale>  0 0.12459479E+04</rscale>
<asrwt>0</asrwt>
<pdfrwt beam="1">  1        2 0.73533115E-01 0.12459479E+04</pdfrwt>
<pdfrwt beam="2">  1       -1 0.12491946E+00 0.12459479E+04</pdfrwt>
<totfact> 0.40937945E+01</totfact>
</mgrwt>
</event>
<event>
11    6  0.1663299E-008  0.1231456E+04  0.7818608E-02  0.9085760E-01
          2   -1    0    0  501    0  0.00000000000E+00  0.00000000000E+00  0.11924277606E+04  0.11924277606E+04  0.00000000000E+00 0. -1.
         -1   -1    0    0    0  501 -0.00000000000E+00 -0.00000000000E+00 -0.31794025237E+03  0.31794025237E+03  0.00000000000E+00 0.  1.
         24    2    1    2    0    0 -0.11169767149E+03  0.17721282172E+03  0.16035867871E+01  0.22352764062E+03  0.77982566234E+02 0.  0.
        254    2    1    2    0    0  0.11169767149E+03 -0.17721282172E+03  0.87288392142E+03  0.12868403723E+04  0.92203636021E+03 0.  0.
         23    2    4    4    0    0 -0.54577460054E+02 -0.94684219828E+02 -0.16912718427E+03  0.21838788178E+03  0.84530833534E+02 0.  0.
          4    1    3    3  502    0  0.21618741364E+01  0.16789264226E+02  0.19700861320E+02  0.25974545805E+02  0.00000000000E+00 0. -1.
         -3    1    3    3    0  502 -0.11385954562E+03  0.16042355749E+03 -0.18097274533E+02  0.19755309482E+03  0.00000000000E+00 0.  1.
         11    1    4    4    0    0  0.15561966017E+03 -0.25144577029E+02  0.91746437077E+03  0.93090848101E+03  0.00000000000E+00 0.  1.
        -11    1    4    4    0    0  0.10655471370E+02 -0.57384024859E+02  0.12454673492E+03  0.13754400953E+03  0.00000000000E+00 0. -1.
          1    1    5    5  503    0 -0.24768396823E+02  0.11690901232E+02 -0.39590158378E+02  0.48140744626E+02  0.00000000000E+00 0. -1.
         -1    1    5    5    0  503 -0.29809063231E+02 -0.10637512106E+03 -0.12953702589E+03  0.17024713715E+03  0.00000000000E+00 0.  1.
<mgrwt>
<rscale>  0 0.12314557E+04</rscale>
<asrwt>0</asrwt>
<pdfrwt beam="1">  1        2 0.18345042E+00 0.12314557E+04</pdfrwt>
<pdfrwt beam="2">  1       -1 0.48913886E-01 0.12314557E+04</pdfrwt>
<totfact> 0.89898518E+01</totfact>
</mgrwt>
</event>
<event>
12    6  0.1663299E-008  0.1131281E+04  0.7818608E-02  0.9175229E-01
         -1   -1    0    0    0  501 -0.00000000000E+00  0.00000000000E+00  0.76779316734E+03  0.76779316734E+03  0.00000000000E+00 0.  1.
          2   -1    0    0  501    0  0.00000000000E+00 -0.00000000000E+00 -0.41671254559E+03  0.41671254559E+03  0.00000000000E+00 0. -1.
         24    2    1    2    0    0  0.12477997510E+03  0.13314395032E+03  0.15055594510E+03  0.24993179374E+03  0.80631601877E+02 0.  0.
        254    2    1    2    0    0 -0.12477997510E+03 -0.13314395032E+03  0.20052467665E+03  0.93457391920E+03  0.89438297770E+03 0.  0.
         23    2    4    4    0    0 -0.34620286706E+03  0.21169483131E+03  0.28102469613E+03  0.50514214471E+03  0.10734328003E+03 0.  0.
         23    2    4    4    0    0  0.22142289195E+03 -0.34483878163E+03 -0.80500019479E+02  0.42943177449E+03  0.99947553281E+02 0.  0.
          2    1    3    3  502    0  0.22602076613E+02  0.77525586659E+02  0.42963760172E+02  0.91471061775E+02  0.00000000000E+00 0. -1.
         -1    1    3    3    0  502  0.10217789849E+03  0.55618363665E+02  0.10759218493E+03  0.15846073196E+03  0.00000000000E+00 0.  1.
         11    1    5    5    0    0 -0.15897981702E+02  0.31075975250E+02 -0.73721605720E+00  0.34914259945E+02  0.00000000000E+00 0.  1.
        -11    1    5    5    0    0 -0.33030488535E+03  0.18061885606E+03  0.28176191219E+03  0.47022788477E+03  0.00000000000E+00 0. -1.
          1    1    6    6  503    0  0.17901129157E+03 -0.33077994293E+03 -0.62540666343E+02  0.38127647200E+03  0.00000000000E+00 0. -1.
         -1    1    6    6    0  503  0.42411600384E+02 -0.14058838701E+02 -0.17959353136E+02  0.48155302489E+02  0.00000000000E+00 0.  1.
<mgrwt>
<rscale>  0 0.11312808E+04</rscale>
<asrwt>0</asrwt>
<pdfrwt beam="1">  1        2 0.64109622E-01 0.11312808E+04</pdfrwt>
<pdfrwt beam="2">  1       -1 0.11812203E+00 0.11312808E+04</pdfrwt>
<totfact> 0.55421624E+01</totfact>
</mgrwt>
</event>
<event>
11    6  0.1663299E-008  0.2507211E+04  0.7818608E-02  0.8400421E-01
          2   -1    0    0  501    0  0.00000000000E+00  0.00000000000E+00  0.23843467679E+04  0.23843467679E+04  0.00000000000E+00 0. -1.
         -1   -1    0    0    0  501 -0.00000000000E+00 -0.00000000000E+00 -0.65910184713E+03  0.65910184713E+03  0.00000000000E+00 0.  1.
         24    2    1    2    0    0 -0.39104738122E+03  0.29082138538E+03 -0.43222206302E+03  0.65626871734E+03  0.79859783705E+02 0.  0.
        254    2    1    2    0    0  0.39104738122E+03 -0.29082138538E+03  0.21574669838E+04  0.23871798977E+04  0.89803616032E+03 0.  0.
         23    2    4    4    0    0 -0.48323843950E+02 -0.40903398927E+03  0.52337726375E+03  0.67189392697E+03  0.88733818932E+02 0.  0.
          4    1    3    3  502    0 -0.87275264022E+02  0.57447088318E+02 -0.13882577590E+03  0.17375193732E+03  0.00000000000E+00 0. -1.
         -3    1    3    3    0  502 -0.30377211720E+03  0.23337429706E+03 -0.29339628711E+03  0.48251678003E+03  0.00000000000E+00 0.  1.
         11    1    4    4    0    0  0.10144842962E+03  0.94811633165E+02  0.84839998681E+03  0.85968806394E+03  0.00000000000E+00 0.  1.
        -11    1    4    4    0    0  0.33792279555E+03  0.23400970727E+02  0.78568973326E+03  0.85559790681E+03  0.00000000000E+00 0. -1.
          2    1    5    5  503    0 -0.46567029642E+02 -0.39377445508E+03  0.52326765514E+03  0.65653320452E+03  0.00000000000E+00 0. -1.
         -2    1    5    5    0  503 -0.17568143074E+01 -0.15259534192E+02  0.10960860978E+00  0.15360722454E+02  0.00000000000E+00 0.  1.
<mgrwt>
<rscale>  0 0.25072115E+04</rscale>
<asrwt>0</asrwt>
<pdfrwt beam="1">  1        2 0.36682258E+00 0.25072115E+04</pdfrwt>
<pdfrwt beam="2">  1       -1 0.10140029E+00 0.25072115E+04</pdfrwt>
<totfact> 0.37976148E+00</totfact>
</mgrwt>
</event>
<event>
11    6  0.1663299E-008  0.1272468E+04  0.7818608E-02  0.9051688E-01
          2   -1    0    0  501    0  0.00000000000E+00  0.00000000000E+00  0.13253563387E+04  0.13253563387E+04  0.00000000000E+00 0. -1.
         -1   -1    0    0    0  501 -0.00000000000E+00 -0.00000000000E+00 -0.30542248956E+03  0.30542248956E+03  0.00000000000E+00 0.  1.
         24    2    1    2    0    0  0.22548178797E+03 -0.10125513103E+03  0.49448255392E+03  0.55866899404E+03  0.80643725747E+02 0.  0.
        254    2    1    2    0    0 -0.22548178797E+03  0.10125513103E+03  0.52545129517E+03  0.10721098342E+04  0.90123570429E+03 0.  0.
         23    2    4    4    0    0 -0.20341982488E+03  0.78794272569E+02 -0.20783544347E+03  0.31445128411E+03  0.89977085800E+02 0.  0.
          4    1    3    3  502    0  0.13145382219E+03 -0.73024821149E+02  0.21439403345E+03  0.26187312472E+03  0.00000000000E+00 0. -1.
         -3    1    3    3    0  502  0.94027965779E+02 -0.28230309879E+02  0.28008852047E+03  0.29679586932E+03  0.00000000000E+00 0.  1.
         11    1    4    4    0    0  0.12032808965E+02  0.86682386583E+02  0.18595859747E+03  0.20552183487E+03  0.00000000000E+00 0.  1.
        -11    1    4    4    0    0 -0.34094772053E+02 -0.64221528124E+02  0.54732814118E+03  0.55213671521E+03  0.00000000000E+00 0. -1.
          3    1    5    5  503    0 -0.16447528401E+03  0.98395847249E+02 -0.17844323177E+03  0.26186990811E+03  0.00000000000E+00 0. -1.
         -3    1    5    5    0  503 -0.38944540868E+02 -0.19601574680E+02 -0.29392211698E+02  0.52581375998E+02  0.00000000000E+00 0.  1.
<mgrwt>
<rscale>  0 0.12724679E+04</rscale>
<asrwt>0</asrwt>
<pdfrwt beam="1">  1        2 0.20390097E+00 0.12724679E+04</pdfrwt>
<pdfrwt beam="2">  1       -1 0.46988076E-01 0.12724679E+04</pdfrwt>
<totfact> 0.80733256E+01</totfact>
</mgrwt>
</event>
<event>
11    6  0.1663299E-008  0.1814581E+04  0.7818608E-02  0.8698584E-01
         -1   -1    0    0    0  501 -0.00000000000E+00  0.00000000000E+00  0.95109323815E+03  0.95109323815E+03  0.00000000000E+00 0.  1.
          2   -1    0    0  501    0  0.00000000000E+00 -0.00000000000E+00 -0.86550514462E+03  0.86550514462E+03  0.00000000000E+00 0. -1.
         24    2    1    2    0    0 -0.53812346339E+03 -0.14719476532E+03 -0.36602256834E+03  0.67192845184E+03  0.79196988992E+02 0.  0.
        254    2    1    2    0    0  0.53812346339E+03  0.14719476532E+03  0.45161066187E+03  0.11446699309E+04  0.89166916515E+03 0.  0.
         23    2    4    4    0    0  0.37334917199E+03  0.16091682149E+03 -0.20615222898E+03  0.46484069769E+03  0.91073075363E+02 0.  0.
          2    1    3    3  502    0 -0.29002465584E+03 -0.11561531650E+03 -0.18168724580E+03  0.36123601383E+03  0.00000000000E+00 0. -1.
         -1    1    3    3    0  502 -0.24809880755E+03 -0.31579448816E+02 -0.18433532255E+03  0.31069243800E+03  0.00000000000E+00 0.  1.
         11    1    4    4    0    0  0.15858747705E+03 -0.13096627316E+02  0.56851532733E+03  0.59036529957E+03  0.00000000000E+00 0.  1.
        -11    1    4    4    0    0  0.61868143490E+01 -0.62542885730E+00  0.89247563518E+02  0.89463933666E+02  0.00000000000E+00 0. -1.
          1    1    5    5  503    0 -0.37462789124E+01 -0.28253002770E+01 -0.59379725470E+01  0.75681203290E+01  0.00000000000E+00 0. -1.
         -1    1    5    5    0  503  0.37709545090E+03  0.16374212177E+03 -0.20021425644E+03  0.45727257737E+03  0.00000000000E+00 0.  1.
<mgrwt>
<rscale>  0 0.18145810E+04</rscale>
<asrwt>0</asrwt>
<pdfrwt beam="1">  1        2 0.13315464E+00 0.18145810E+04</pdfrwt>
<pdfrwt beam="2">  1       -1 0.14632204E+00 0.18145810E+04</pdfrwt>
<totfact> 0.12427282E+01</totfact>
</mgrwt>
</event>
<event>
11    6  0.1663299E-008  0.2349392E+04  0.7818608E-02  0.8458697E-01
         -1   -1    0    0    0  501 -0.00000000000E+00  0.00000000000E+00  0.46749969966E+03  0.46749969966E+03  0.00000000000E+00 0.  1.
          2   -1    0    0  501    0  0.00000000000E+00 -0.00000000000E+00 -0.29516824155E+04  0.29516824155E+04  0.00000000000E+00 0. -1.
         24    2    1    2    0    0 -0.64537475692E+02  0.93495222279E+03 -0.55014763628E+03  0.10897096590E+04  0.80647222221E+02 0.  0.
        254    2    1    2    0    0  0.64537475692E+02 -0.93495222279E+03 -0.19340350796E+04  0.23294724562E+04  0.89869321273E+03 0.  0.
         23    2    4    4    0    0 -0.20078926432E+03 -0.26873149949E+02 -0.19752808454E+03  0.29664865910E+03  0.89132417840E+02 0.  0.
          2    1    3    3  502    0 -0.53637798066E+02  0.40053242097E+03 -0.20183172949E+03  0.45170707395E+03  0.00000000000E+00 0. -1.
         -1    1    3    3    0  502 -0.10899677626E+02  0.53441980182E+03 -0.34831590680E+03  0.63800258501E+03  0.00000000000E+00 0.  1.
         11    1    4    4    0    0 -0.25296973609E+02 -0.89797110539E+02 -0.57544023347E+03  0.58295361757E+03  0.00000000000E+00 0. -1.
        -11    1    4    4    0    0  0.29062371363E+03 -0.81828196230E+03 -0.11610667616E+04  0.14498701796E+04  0.00000000000E+00 0.  1.
          2    1    5    5  503    0 -0.19479613493E+03 -0.45529474344E+02 -0.18923910848E+03  0.27537230688E+03  0.00000000000E+00 0.  1.
         -2    1    5    5    0  503 -0.59931293940E+01  0.18656324394E+02 -0.82889760583E+01  0.21276352224E+02  0.00000000000E+00 0. -1.
<mgrwt>
<rscale>  0 0.23493920E+04</rscale>
<asrwt>0</asrwt>
<pdfrwt beam="1">  1        2 0.45410498E+00 0.23493920E+04</pdfrwt>
<pdfrwt beam="2">  1       -1 0.71923032E-01 0.23493920E+04</pdfrwt>
<totfact> 0.37422851E+00</totfact>
</mgrwt>
</event>
<event>
12    6  0.1663299E-008  0.1551322E+04  0.7818608E-02  0.8851024E-01
         -1   -1    0    0    0  501 -0.00000000000E+00  0.00000000000E+00  0.32354915841E+03  0.32354915841E+03  0.00000000000E+00 0.  1.
          2   -1    0    0  501    0  0.00000000000E+00 -0.00000000000E+00 -0.18595322210E+04  0.18595322210E+04  0.00000000000E+00 0. -1.
         24    2    1    2    0    0  0.92840750751E+02 -0.31682901713E+03  0.32045957059E+02  0.34135856658E+03  0.80614493227E+02 0.  0.
        254    2    1    2    0    0 -0.92840750751E+02  0.31682901713E+03 -0.15680290197E+04  0.18417228128E+04  0.90786996962E+03 0.  0.
         23    2    4    4    0    0  0.38464916922E+03  0.18771083443E+03 -0.49868687503E+03  0.65978074480E+03  0.58580637891E+02 0.  0.
         23    2    4    4    0    0 -0.47748991997E+03  0.12911818270E+03 -0.10693421446E+04  0.11819420680E+04  0.93948396174E+02 0.  0.
          4    1    3    3  502    0  0.38645345688E+02 -0.17515274317E+03 -0.21161171217E+02  0.18060936119E+03  0.00000000000E+00 0. -1.
         -3    1    3    3    0  502  0.54195405064E+02 -0.14167627396E+03  0.53207128276E+02  0.16074920539E+03  0.00000000000E+00 0.  1.
         11    1    5    5    0    0  0.25639074571E+03  0.12349229549E+03 -0.28783938063E+03  0.40476915715E+03  0.00000000000E+00 0.  1.
        -11    1    5    5    0    0  0.12825842351E+03  0.64218538940E+02 -0.21084749440E+03  0.25501158765E+03  0.00000000000E+00 0. -1.
          1    1    6    6  503    0 -0.86360292360E+02  0.22259246579E+02 -0.11892833048E+03  0.14865235264E+03  0.00000000000E+00 0. -1.
         -1    1    6    6    0  503 -0.39112962761E+03  0.10685893612E+03 -0.95041381416E+03  0.10332897154E+04  0.00000000000E+00 0.  1.
<mgrwt>
<rscale>  0 0.15513221E+04</rscale>
<asrwt>0</asrwt>
<pdfrwt beam="1">  1        2 0.28608188E+00 0.15513221E+04</pdfrwt>
<pdfrwt beam="2">  1       -1 0.49776794E-01 0.15513221E+04</pdfrwt>
<totfact> 0.35494560E+01</totfact>
</mgrwt>
</event>
<event>
12    6  0.1663299E-008  0.4252937E+04  0.7818608E-02  0.7955378E-01
          2   -1    0    0  501    0  0.00000000000E+00  0.00000000000E+00  0.26993656889E+04  0.26993656889E+04  0.00000000000E+00 0. -1.
         -1   -1    0    0    0  501 -0.00000000000E+00 -0.00000000000E+00 -0.16751597498E+04  0.16751597498E+04  0.00000000000E+00 0.  1.
         24    2    1    2    0    0  0.30777579155E+02  0.11096750301E+04 -0.12595079419E+04  0.16808398496E+04  0.80848080641E+02 0.  0.
        254    2    1    2    0    0 -0.30777579155E+02 -0.11096750301E+04  0.22837138811E+04  0.26936855892E+04  0.89903672387E+03 0.  0.
         23    2    4    4    0    0  0.33025974314E+03 -0.31222274228E+03  0.12516150199E+04  0.13372588872E+04  0.12315289098E+03 0.  0.
         23    2    4    4    0    0 -0.36103732229E+03 -0.79745228787E+03  0.10320988612E+04  0.13564267020E+04  0.91581871507E+02 0.  0.
          4    1    3    3  502    0 -0.22229666347E+02  0.53013640184E+03 -0.62541263074E+03  0.82017054404E+03  0.00000000000E+00 0. -1.
         -3    1    3    3    0  502  0.53007245501E+02  0.57953862831E+03 -0.63409531120E+03  0.86066930552E+03  0.00000000000E+00 0.  1.
         11    1    5    5    0    0  0.17469361171E+03 -0.82882638819E+02  0.48777770975E+03  0.52470418706E+03  0.00000000000E+00 0. -1.
        -11    1    5    5    0    0  0.15556613143E+03 -0.22934010346E+03  0.76383731012E+03  0.81255470009E+03  0.00000000000E+00 0.  1.
          1    1    6    6  503    0 -0.58366688169E+02 -0.84284485591E+02  0.87747208624E+02  0.13494486808E+03  0.00000000000E+00 0. -1.
         -1    1    6    6    0  503 -0.30267063412E+03 -0.71316780228E+03  0.94435165256E+03  0.12214818339E+04  0.00000000000E+00 0.  1.
<mgrwt>
<rscale>  0 0.42529372E+04</rscale>
<asrwt>0</asrwt>
<pdfrwt beam="1">  1        2 0.41528703E+00 0.42529372E+04</pdfrwt>
<pdfrwt beam="2">  1       -1 0.25771688E+00 0.42529372E+04</pdfrwt>
<totfact> 0.14493683E-01</totfact>
</mgrwt>
</event>
<event>
12    6  0.1663299E-008  0.2010492E+04  0.7818608E-02  0.8601731E-01
         -1   -1    0    0    0  501 -0.00000000000E+00  0.00000000000E+00  0.53089449209E+03  0.53089449209E+03  0.00000000000E+00 0.  1.
          2   -1    0    0  501    0  0.00000000000E+00 -0.00000000000E+00 -0.19034279104E+04  0.19034279104E+04  0.00000000000E+00 0. -1.
         24    2    1    2    0    0  0.17486897992E+03 -0.63617615502E+03  0.28891588633E+01  0.66443006180E+03  0.78483752616E+02 0.  0.
        254    2    1    2    0    0 -0.17486897992E+03  0.63617615502E+03 -0.13754225772E+04  0.17698923407E+04  0.89745884114E+03 0.  0.
         23    2    4    4    0    0 -0.35289098676E+03  0.73586666374E+03 -0.76594992547E+03  0.11209865984E+04  0.62448940901E+02 0.  0.
         23    2    4    4    0    0  0.17802200684E+03 -0.99690508721E+02 -0.60947265173E+03  0.64890574229E+03  0.89396402147E+02 0.  0.
          4    1    3    3  502    0  0.11994576475E+03 -0.34307160993E+03 -0.28640032963E+02  0.36456188434E+03  0.00000000000E+00 0. -1.
         -3    1    3    3    0  502  0.54923215175E+02 -0.29310454509E+03  0.31529191827E+02  0.29986817746E+03  0.00000000000E+00 0.  1.
         11    1    5    5    0    0 -0.58554223221E+02  0.76750200395E+02 -0.96267204817E+02  0.13633255312E+03  0.00000000000E+00 0.  1.
        -11    1    5    5    0    0 -0.29433676354E+03  0.65911646335E+03 -0.66968272065E+03  0.98465404532E+03  0.00000000000E+00 0. -1.
          3    1    6    6  503    0  0.66076190880E+02 -0.88162672668E+02 -0.29493171275E+03  0.31483874450E+03  0.00000000000E+00 0. -1.
         -3    1    6    6    0  503  0.11194581596E+03 -0.11527836053E+02 -0.31454093898E+03  0.33406699779E+03  0.00000000000E+00 0.  1.
<mgrwt>
<rscale>  0 0.20104919E+04</rscale>
<asrwt>0</asrwt>
<pdfrwt beam="1">  1        2 0.29283506E+00 0.20104919E+04</pdfrwt>
<pdfrwt beam="2">  1       -1 0.81676076E-01 0.20104919E+04</pdfrwt>
<totfact> 0.11923505E+01</totfact>
</mgrwt>
</event>
<event>
11    6  0.1663299E-008  0.1591979E+04  0.7818608E-02  0.8825491E-01
          2   -1    0    0  501    0  0.00000000000E+00  0.00000000000E+00  0.87474293807E+03  0.87474293807E+03  0.00000000000E+00 0. -1.
         -1   -1    0    0    0  501 -0.00000000000E+00 -0.00000000000E+00 -0.72432618981E+03  0.72432618981E+03  0.00000000000E+00 0.  1.
         24    2    1    2    0    0  0.20231818310E+03  0.53997483199E+01 -0.45097495872E+03  0.50066832455E+03  0.79552204976E+02 0.  0.
        254    2    1    2    0    0 -0.20231818310E+03 -0.53997483199E+01  0.60139170698E+03  0.10984008033E+04  0.89657712163E+03 0.  0.
         23    2    4    4    0    0 -0.39091090162E+03  0.20401799103E+03  0.60199739659E+03  0.75171121890E+03  0.90742588892E+02 0.  0.
          2    1    3    3  502    0  0.17609566065E+03 -0.20594831831E+02 -0.40177027580E+03  0.43915052467E+03  0.00000000000E+00 0. -1.
         -1    1    3    3    0  502  0.26222522445E+02  0.25994580151E+02 -0.49204682921E+02  0.61517799880E+02  0.00000000000E+00 0.  1.
         11    1    4    4    0    0 -0.16849038745E+02  0.98619010456E+01  0.38994459031E+02  0.43608657787E+02  0.00000000000E+00 0.  1.
        -11    1    4    4    0    0  0.20544175727E+03 -0.21927964040E+03 -0.39600148643E+02  0.30308092664E+03  0.00000000000E+00 0. -1.
          1    1    5    5  503    0 -0.35617199962E+03  0.18177303741E+03  0.58130778253E+03  0.70556266091E+03  0.00000000000E+00 0. -1.
         -1    1    5    5    0  503 -0.34738902009E+02  0.22244953622E+02  0.20689614065E+02  0.46148557990E+02  0.00000000000E+00 0.  1.
<mgrwt>
<rscale>  0 0.15919789E+04</rscale>
<asrwt>0</asrwt>
<pdfrwt beam="1">  1        2 0.13457584E+00 0.15919789E+04</pdfrwt>
<pdfrwt beam="2">  1       -1 0.11143480E+00 0.15919789E+04</pdfrwt>
<totfact> 0.24734505E+01</totfact>
</mgrwt>
</event>
<event>
12    6  0.1663299E-008  0.2397247E+04  0.7818608E-02  0.8440535E-01
         -1   -1    0    0    0  501 -0.00000000000E+00  0.00000000000E+00  0.66357920522E+03  0.66357920522E+03  0.00000000000E+00 0.  1.
          4   -1    0    0  501    0  0.00000000000E+00 -0.00000000000E+00 -0.21650743268E+04  0.21650743268E+04  0.00000000000E+00 0. -1.
         24    2    1    2    0    0  0.11139247195E+03  0.23568074260E+03  0.52823952973E+03  0.59464954493E+03  0.81347312627E+02 0.  0.
        254    2    1    2    0    0 -0.11139247195E+03 -0.23568074260E+03 -0.20297346514E+04  0.22340039871E+04  0.89610120208E+03 0.  0.
         23    2    4    4    0    0 -0.48794079997E+03 -0.20145664771E+03 -0.12948737553E+04  0.14023378721E+04  0.10574715163E+03 0.  0.
         23    2    4    4    0    0  0.37654832802E+03 -0.34224094895E+02 -0.73486089606E+03  0.83166611508E+03  0.93209754853E+02 0.  0.
          2    1    3    3  502    0  0.80027427853E+02  0.13061575076E+03  0.22499176883E+03  0.27218772859E+03  0.00000000000E+00 0. -1.
         -1    1    3    3    0  502  0.31365044094E+02  0.10506499184E+03  0.30324776090E+03  0.32246181633E+03  0.00000000000E+00 0.  1.
         11    1    5    5    0    0 -0.18790559428E+03 -0.93647322372E+02 -0.64805492598E+03  0.68121473885E+03  0.00000000000E+00 0.  1.
        -11    1    5    5    0    0 -0.30003520569E+03 -0.10780932533E+03 -0.64681882931E+03  0.72112313320E+03  0.00000000000E+00 0. -1.
          3    1    6    6  503    0  0.36389720775E+03 -0.49282187225E+02 -0.67186106975E+03  0.76566781885E+03  0.00000000000E+00 0. -1.
         -3    1    6    6    0  503  0.12651120270E+02  0.15058092329E+02 -0.62999826317E+02  0.65998296225E+02  0.00000000000E+00 0.  1.
<mgrwt>
<rscale>  0 0.23972470E+04</rscale>
<asrwt>0</asrwt>
<pdfrwt beam="1">  1        4 0.33308836E+00 0.23972470E+04</pdfrwt>
<pdfrwt beam="2">  1       -1 0.10208911E+00 0.23972470E+04</pdfrwt>
<totfact> 0.63276794E-02</totfact>
</mgrwt>
</event>
<event>
12    6  0.1663299E-008  0.2180756E+04  0.7818608E-02  0.8526481E-01
          2   -1    0    0  501    0  0.00000000000E+00  0.00000000000E+00  0.27841948409E+04  0.27841948409E+04  0.00000000000E+00 0. -1.
         -3   -1    0    0    0  501 -0.00000000000E+00 -0.00000000000E+00 -0.42702617852E+03  0.42702617852E+03  0.00000000000E+00 0.  1.
         24    2    1    2    0    0  0.25231569487E+03 -0.78533633400E+03  0.15439024899E+04  0.17522876450E+04  0.80378636732E+02 0.  0.
        254    2    1    2    0    0 -0.25231569487E+03  0.78533633400E+03  0.81326617250E+03  0.14589333744E+04  0.88694326550E+03 0.  0.
         23    2    4    4    0    0  0.19904430329E+03 -0.29002840911E+02  0.34202681832E+03  0.41146242767E+03  0.10889988740E+03 0.  0.
         23    2    4    4    0    0 -0.45135999816E+03  0.81433917491E+03  0.47123935418E+03  0.10474709467E+04  0.90855465290E+02 0.  0.
          4    1    3    3  502    0  0.69559925896E+02 -0.33992081291E+03  0.62109210739E+03  0.71143527337E+03  0.00000000000E+00 0. -1.
         -3    1    3    3    0  502  0.18275576897E+03 -0.44541552109E+03  0.92281038250E+03  0.10408523716E+04  0.00000000000E+00 0.  1.
         11    1    5    5    0    0  0.15057114903E+03 -0.10584887581E+02  0.32245946315E+03  0.35603906547E+03  0.00000000000E+00 0. -1.
        -11    1    5    5    0    0  0.48473154260E+02 -0.18417953329E+02  0.19567355171E+02  0.55423362196E+02  0.00000000000E+00 0.  1.
          3    1    6    6  503    0 -0.33144910319E+03  0.65919978031E+03  0.34713312991E+03  0.81541662250E+03  0.00000000000E+00 0. -1.
         -3    1    6    6    0  503 -0.11991089497E+03  0.15513939460E+03  0.12410622427E+03  0.23205432423E+03  0.00000000000E+00 0.  1.
<mgrwt>
<rscale>  0 0.21807559E+04</rscale>
<asrwt>0</asrwt>
<pdfrwt beam="1">  1        2 0.42833766E+00 0.21807559E+04</pdfrwt>
<pdfrwt beam="2">  1       -3 0.65696337E-01 0.21807559E+04</pdfrwt>
<totfact> 0.31154605E+00</totfact>
</mgrwt>
</event>
<event>
11    6  0.1663299E-008  0.2477368E+04  0.7818608E-02  0.8411093E-01
          2   -1    0    0  501    0  0.00000000000E+00  0.00000000000E+00  0.20567941062E+04  0.20567941062E+04  0.00000000000E+00 0. -1.
         -1   -1    0    0    0  501 -0.00000000000E+00 -0.00000000000E+00 -0.74598494719E+03  0.74598494719E+03  0.00000000000E+00 0.  1.
         24    2    1    2    0    0 -0.12977654355E+03  0.25745123202E+03  0.17451689590E+04  0.17706600427E+04  0.80617635649E+02 0.  0.
        254    2    1    2    0    0  0.12977654355E+03 -0.25745123202E+03 -0.43435980000E+03  0.10321190107E+04  0.89077389289E+03 0.  0.
         23    2    4    4    0    0 -0.60861454257E+02  0.26788720110E+03  0.32167918719E+02  0.29058621185E+03  0.89094906689E+02 0.  0.
          2    1    3    3  502    0 -0.50446796236E+02  0.54363171475E+02  0.29434265860E+03  0.30354214590E+03  0.00000000000E+00 0. -1.
         -1    1    3    3    0  502 -0.79329747310E+02  0.20308806054E+03  0.14508263004E+04  0.14671178968E+04  0.00000000000E+00 0.  1.
         11    1    4    4    0    0 -0.77275243126E+01 -0.55663565024E+02 -0.98305141441E+01  0.57050732787E+02  0.00000000000E+00 0. -1.
        -11    1    4    4    0    0  0.19836552212E+03 -0.46967486809E+03 -0.45669720458E+03  0.68448206605E+03  0.00000000000E+00 0.  1.
          1    1    5    5  503    0 -0.41948122791E+01  0.27512830253E+01  0.18445252830E+02  0.19115265112E+02  0.00000000000E+00 0. -1.
         -1    1    5    5    0  503 -0.56666641978E+02  0.26513591807E+03  0.13722665889E+02  0.27147094674E+03  0.00000000000E+00 0.  1.
<mgrwt>
<rscale>  0 0.24773675E+04</rscale>
<asrwt>0</asrwt>
<pdfrwt beam="1">  1        2 0.31642986E+00 0.24773675E+04</pdfrwt>
<pdfrwt beam="2">  1       -1 0.11476692E+00 0.24773675E+04</pdfrwt>
<totfact> 0.43556668E+00</totfact>
</mgrwt>
</event>
<event>
12    6  0.1663299E-008  0.1766896E+04  0.7818608E-02  0.8724104E-01
         -1   -1    0    0    0  501 -0.00000000000E+00  0.00000000000E+00  0.49792542412E+03  0.49792542412E+03  0.00000000000E+00 0.  1.
          2   -1    0    0  501    0  0.00000000000E+00 -0.00000000000E+00 -0.15674652106E+04  0.15674652106E+04  0.00000000000E+00 0. -1.
         24    2    1    2    0    0  0.47196122965E+03 -0.40086014697E+03 -0.62937816640E+03  0.88652321314E+03  0.79813979851E+02 0.  0.
        254    2    1    2    0    0 -0.47196122965E+03  0.40086014697E+03 -0.44016162007E+03  0.11788674216E+04  0.90141549027E+03 0.  0.
         23    2    4    4    0    0 -0.54256868227E+03  0.57148598209E+02 -0.56789471065E+03  0.79430224616E+03  0.10375412578E+03 0.  0.
         23    2    4    4    0    0  0.70607452626E+02  0.34371154876E+03  0.12773309058E+03  0.38456517539E+03  0.91932532728E+02 0.  0.
          4    1    3    3  502    0  0.39284132653E+03 -0.36701182129E+03 -0.52774264971E+03  0.75334871681E+03  0.00000000000E+00 0. -1.
         -3    1    3    3    0  502  0.79119903118E+02 -0.33848325684E+02 -0.10163551669E+03  0.13317449634E+03  0.00000000000E+00 0.  1.
         11    1    5    5    0    0 -0.38600491128E+02 -0.22582720913E+02 -0.54222881935E+02  0.70285831606E+02  0.00000000000E+00 0. -1.
        -11    1    5    5    0    0 -0.50396819115E+03  0.79731319122E+02 -0.51367182872E+03  0.72401641456E+03  0.00000000000E+00 0.  1.
          3    1    6    6  503    0  0.11816023160E+02  0.26091012191E+03  0.92793756534E+02  0.27717213310E+03  0.00000000000E+00 0. -1.
         -3    1    6    6    0  503  0.58791429467E+02  0.82801426856E+02  0.34939334047E+02  0.10739304229E+03  0.00000000000E+00 0.  1.
<mgrwt>
<rscale>  0 0.17668965E+04</rscale>
<asrwt>0</asrwt>
<pdfrwt beam="1">  1        2 0.24114849E+00 0.17668965E+04</pdfrwt>
<pdfrwt beam="2">  1       -1 0.76603911E-01 0.17668965E+04</pdfrwt>
<totfact> 0.21449496E+01</totfact>
</mgrwt>
</event>
<event>
12    6  0.1663299E-008  0.1240467E+04  0.7818608E-02  0.9078155E-01
         -1   -1    0    0    0  501 -0.00000000000E+00  0.00000000000E+00  0.30911493758E+03  0.30911493758E+03  0.00000000000E+00 0.  1.
          2   -1    0    0  501    0  0.00000000000E+00 -0.00000000000E+00 -0.12444872357E+04  0.12444872357E+04  0.00000000000E+00 0. -1.
         24    2    1    2    0    0 -0.23360085127E+03  0.16080539603E+03 -0.23798671550E+03  0.38025554773E+03  0.86769071219E+02 0.  0.
        254    2    1    2    0    0  0.23360085127E+03 -0.16080539603E+03 -0.69738558264E+03  0.11733466256E+04  0.89998217747E+03 0.  0.
         23    2    4    4    0    0  0.41881609040E+03  0.20856503759E+03 -0.54874755462E+03  0.72479925088E+03  0.72827075302E+02 0.  0.
         23    2    4    4    0    0 -0.18521523914E+03 -0.36937043362E+03 -0.14863802802E+03  0.44854737469E+03  0.91445513403E+02 0.  0.
          4    1    3    3  502    0 -0.32354563620E+02 -0.85605699533E+01 -0.24174265752E+02  0.41285545529E+02  0.00000000000E+00 0. -1.
         -3    1    3    3    0  502 -0.20124628765E+03  0.16936596599E+03 -0.21381244975E+03  0.33897000220E+03  0.00000000000E+00 0.  1.
         11    1    5    5    0    0 -0.30631786272E+01  0.22823758850E+01 -0.33397368799E+01  0.50740659643E+01  0.00000000000E+00 0. -1.
        -11    1    5    5    0    0  0.42187926903E+03  0.20628266170E+03 -0.54540781774E+03  0.71972518492E+03  0.00000000000E+00 0.  1.
          4    1    6    6  503    0  0.64101621218E+01 -0.52196325167E+02 -0.20728600729E+02  0.56526289703E+02  0.00000000000E+00 0. -1.
         -4    1    6    6    0  503 -0.19162540126E+03 -0.31717410845E+03 -0.12790942730E+03  0.39202108498E+03  0.00000000000E+00 0.  1.
<mgrwt>
<rscale>  0 0.12404670E+04</rscale>
<asrwt>0</asrwt>
<pdfrwt beam="1">  1        2 0.19145958E+00 0.12404670E+04</pdfrwt>
<pdfrwt beam="2">  1       -1 0.47556144E-01 0.12404670E+04</pdfrwt>
<totfact> 0.88222163E+01</totfact>
</mgrwt>
</event>
<event>
12    6  0.1663299E-008  0.1591090E+04  0.7818608E-02  0.8826040E-01
          2   -1    0    0  501    0  0.00000000000E+00  0.00000000000E+00  0.56120893127E+03  0.56120893127E+03  0.00000000000E+00 0. -1.
         -1   -1    0    0    0  501 -0.00000000000E+00 -0.00000000000E+00 -0.11277301267E+04  0.11277301267E+04  0.00000000000E+00 0.  1.
         24    2    1    2    0    0 -0.11690205236E+03  0.26265442960E+03 -0.67728412973E+03  0.74019302778E+03  0.80737146050E+02 0.  0.
        254    2    1    2    0    0  0.11690205236E+03 -0.26265442960E+03  0.11076293432E+03  0.94874603017E+03  0.89732779012E+03 0.  0.
         23    2    4    4    0    0 -0.23742060303E+03  0.20237465595E+03 -0.52158007152E+02  0.33506510958E+03  0.11056276876E+03 0.  0.
         23    2    4    4    0    0  0.35432265539E+03 -0.46502908554E+03  0.16292094147E+03  0.61368092059E+03  0.90908990770E+02 0.  0.
          4    1    3    3  502    0 -0.37068350879E+02  0.13047615364E+03 -0.23015227274E+03  0.26714819474E+03  0.00000000000E+00 0. -1.
         -3    1    3    3    0  502 -0.79833701479E+02  0.13217827596E+03 -0.44713185699E+03  0.47304483304E+03  0.00000000000E+00 0.  1.
         11    1    5    5    0    0  0.72600410144E+01  0.31925871011E+02 -0.67738214917E+01  0.33434325071E+02  0.00000000000E+00 0. -1.
        -11    1    5    5    0    0 -0.24468064405E+03  0.17044878494E+03 -0.45384185660E+02  0.30163078451E+03  0.00000000000E+00 0.  1.
          2    1    6    6  503    0  0.15730552304E+02 -0.49908718017E+02 -0.42660856792E+01  0.52502665618E+02  0.00000000000E+00 0. -1.
         -2    1    6    6    0  503  0.33859210309E+03 -0.41512036753E+03  0.16718702715E+03  0.56117825497E+03  0.00000000000E+00 0.  1.
<mgrwt>
<rscale>  0 0.15910905E+04</rscale>
<asrwt>0</asrwt>
<pdfrwt beam="1">  1        2 0.86339837E-01 0.15910905E+04</pdfrwt>
<pdfrwt beam="2">  1       -1 0.17349694E+00 0.15910905E+04</pdfrwt>
<totfact> 0.13670263E+01</totfact>
</mgrwt>
</event>
<event>
12    6  0.1663299E-008  0.1567502E+04  0.7818608E-02  0.8840765E-01
         -1   -1    0    0    0  501 -0.00000000000E+00  0.00000000000E+00  0.26192700219E+03  0.26192700219E+03  0.00000000000E+00 0.  1.
          2   -1    0    0  501    0  0.00000000000E+00 -0.00000000000E+00 -0.23451787207E+04  0.23451787207E+04  0.00000000000E+00 0. -1.
         24    2    1    2    0    0  0.34102944085E+03 -0.36053192006E+03 -0.47084176352E+03  0.68885663829E+03  0.80914503805E+02 0.  0.
        254    2    1    2    0    0 -0.34102944085E+03  0.36053192006E+03 -0.16124099550E+04  0.19182490846E+04  0.91297828164E+03 0.  0.
         23    2    4    4    0    0 -0.58425156161E+03  0.22435899118E+02 -0.11031309311E+04  0.12541143288E+04  0.11853962048E+03 0.  0.
         23    2    4    4    0    0  0.24322212075E+03  0.33809602094E+03 -0.50927902391E+03  0.66413475587E+03  0.90796092240E+02 0.  0.
          2    1    3    3  502    0 -0.17004772756E+00 -0.81189109021E+01  0.10638818795E+01  0.81900839507E+01  0.00000000000E+00 0. -1.
         -1    1    3    3    0  502  0.34119948858E+03 -0.35241300916E+03 -0.47190564540E+03  0.68066655434E+03  0.00000000000E+00 0.  1.
         11    1    5    5    0    0 -0.26977359754E+02 -0.18576335677E+02 -0.30961789707E+02  0.45072060174E+02  0.00000000000E+00 0. -1.
        -11    1    5    5    0    0 -0.55727420185E+03  0.41012234795E+02 -0.10721691414E+04  0.12090422686E+04  0.00000000000E+00 0.  1.
          1    1    6    6  503    0  0.12131667812E+02  0.37143300928E+02 -0.92989251082E+02  0.10086527145E+03  0.00000000000E+00 0. -1.
         -1    1    6    6    0  503  0.23109045294E+03  0.30095272001E+03 -0.41628977283E+03  0.56326948442E+03  0.00000000000E+00 0.  1.
<mgrwt>
<rscale>  0 0.15675020E+04</rscale>
<asrwt>0</asrwt>
<pdfrwt beam="1">  1        2 0.36079674E+00 0.15675020E+04</pdfrwt>
<pdfrwt beam="2">  1       -1 0.40296461E-01 0.15675020E+04</pdfrwt>
<totfact> 0.28152677E+01</totfact>
</mgrwt>
</event>
<event>
12    6  0.1663299E-008  0.2487571E+04  0.7818608E-02  0.8407427E-01
         -1   -1    0    0    0  501 -0.00000000000E+00  0.00000000000E+00  0.43058809167E+03  0.43058809167E+03  0.00000000000E+00 0.  1.
          2   -1    0    0  501    0  0.00000000000E+00 -0.00000000000E+00 -0.35927650073E+04  0.35927650073E+04  0.00000000000E+00 0. -1.
         24    2    1    2    0    0 -0.28726107329E+03 -0.19352019616E+03 -0.30290823991E+04  0.30497887504E+04  0.76826109665E+02 0.  0.
        254    2    1    2    0    0  0.28726107329E+03  0.19352019616E+03 -0.13309451652E+03  0.97356434854E+03  0.90008021857E+03 0.  0.
         23    2    4    4    0    0 -0.15620099417E+03 -0.11096577150E+03  0.22484535892E+03  0.32073965115E+03  0.12492531915E+03 0.  0.
         23    2    4    4    0    0  0.44346206746E+03  0.30448596766E+03 -0.35793987544E+03  0.65282469739E+03  0.93213847208E+02 0.  0.
          4    1    3    3  502    0 -0.23805389983E+03 -0.12484960543E+03 -0.21785758139E+04  0.21950967314E+04  0.00000000000E+00 0. -1.
         -3    1    3    3    0  502 -0.49207173463E+02 -0.68670590727E+02 -0.85050658522E+03  0.85469201906E+03  0.00000000000E+00 0.  1.
         11    1    5    5    0    0 -0.15414361756E+03 -0.13205044551E+03  0.21935530390E+03  0.29885502228E+03  0.00000000000E+00 0.  1.
        -11    1    5    5    0    0 -0.20573766036E+01  0.21084674004E+02  0.54900550244E+01  0.21884628864E+02  0.00000000000E+00 0. -1.
          4    1    6    6  503    0  0.61585121176E+01  0.23545858441E+02 -0.58603668372E+01  0.25033549902E+02  0.00000000000E+00 0. -1.
         -4    1    6    6    0  503  0.43730355534E+03  0.28094010922E+03 -0.35207950860E+03  0.62779114749E+03  0.00000000000E+00 0.  1.
<mgrwt>
<rscale>  0 0.24875706E+04</rscale>
<asrwt>0</asrwt>
<pdfrwt beam="1">  1        2 0.55273309E+00 0.24875706E+04</pdfrwt>
<pdfrwt beam="2">  1       -1 0.66244320E-01 0.24875706E+04</pdfrwt>
<totfact> 0.16410934E+00</totfact>
</mgrwt>
</event>
<event>
12    6  0.1663299E-008  0.1916261E+04  0.7818608E-02  0.8646804E-01
          2   -1    0    0  501    0  0.00000000000E+00  0.00000000000E+00  0.22575680973E+04  0.22575680973E+04  0.00000000000E+00 0. -1.
         -3   -1    0    0    0  501 -0.00000000000E+00 -0.00000000000E+00 -0.40663847715E+03  0.40663847715E+03  0.00000000000E+00 0.  1.
         24    2    1    2    0    0 -0.32104213516E+03  0.49926855626E+03  0.96213821916E+02  0.60641392225E+03  0.78381131336E+02 0.  0.
        254    2    1    2    0    0  0.32104213516E+03 -0.49926855626E+03  0.17547157983E+04  0.20577926522E+04  0.89618408995E+03 0.  0.
         23    2    4    4    0    0 -0.27714239217E+03 -0.11047392661E+03  0.80884569060E+03  0.86898869476E+03  0.10907614964E+03 0.  0.
         23    2    4    4    0    0  0.59818452734E+03 -0.38879462965E+03  0.94587010767E+03  0.11888039575E+04  0.97972424370E+02 0.  0.
          4    1    3    3  502    0 -0.17701130975E+03  0.26276818262E+03  0.90295243266E+02  0.32944400515E+03  0.00000000000E+00 0. -1.
         -3    1    3    3    0  502 -0.14403082542E+03  0.23650037364E+03  0.59185786494E+01  0.27696991710E+03  0.00000000000E+00 0.  1.
         11    1    5    5    0    0 -0.36120890495E+02  0.53196372161E+01  0.21008907156E+03  0.21323797800E+03  0.00000000000E+00 0. -1.
        -11    1    5    5    0    0 -0.24102150168E+03 -0.11579356382E+03  0.59875661904E+03  0.65575071676E+03  0.00000000000E+00 0.  1.
          1    1    6    6  503    0  0.45363376908E+02 -0.80491243577E+01  0.37943811617E+02  0.59685485736E+02  0.00000000000E+00 0. -1.
         -1    1    6    6    0  503  0.55282115043E+03 -0.38074550529E+03  0.90792629606E+03  0.11291184717E+04  0.00000000000E+00 0.  1.
<mgrwt>
<rscale>  0 0.19162610E+04</rscale>
<asrwt>0</asrwt>
<pdfrwt beam="1">  1        2 0.34731816E+00 0.19162610E+04</pdfrwt>
<pdfrwt beam="2">  1       -3 0.62559767E-01 0.19162610E+04</pdfrwt>
<totfact> 0.71493217E+00</totfact>
</mgrwt>
</event>
<event>
11    6  0.1663299E-008  0.1600934E+04  0.7818608E-02  0.8819974E-01
          2   -1    0    0  501    0  0.00000000000E+00  0.00000000000E+00  0.68124327514E+03  0.68124327514E+03  0.00000000000E+00 0. -1.
         -1   -1    0    0    0  501 -0.00000000000E+00 -0.00000000000E+00 -0.94055636488E+03  0.94055636488E+03  0.00000000000E+00 0.  1.
         24    2    1    2    0    0 -0.32380173969E+02 -0.45516206415E+03 -0.39099381506E+03  0.60610894652E+03  0.79189085903E+02 0.  0.
        254    2    1    2    0    0  0.32380173969E+02  0.45516206415E+03  0.13168072533E+03  0.10156906935E+04  0.89781222487E+03 0.  0.
         23    2    4    4    0    0 -0.24468104401E+03  0.50853912982E+03  0.31666067351E+03  0.65240156585E+03  0.82903323932E+02 0.  0.
          2    1    3    3  502    0 -0.29478016192E+02 -0.64587239631E+02 -0.78978759558E+02  0.10619844360E+03  0.00000000000E+00 0. -1.
         -1    1    3    3    0  502 -0.29021577777E+01 -0.39057482452E+03 -0.31201505551E+03  0.49991050292E+03  0.00000000000E+00 0.  1.
         11    1    4    4    0    0  0.53143776356E+02  0.16441033085E+02 -0.98844954832E+02  0.11342351445E+03  0.00000000000E+00 0. -1.
        -11    1    4    4    0    0  0.22391744162E+03 -0.69818098757E+02 -0.86134993353E+02  0.24986561320E+03  0.00000000000E+00 0.  1.
          1    1    5    5  503    0 -0.23028758603E+03  0.44263554959E+03  0.30243781159E+03  0.58346142282E+03  0.00000000000E+00 0. -1.
         -1    1    5    5    0  503 -0.14393457981E+02  0.65903580229E+02  0.14222861921E+02  0.68940143029E+02  0.00000000000E+00 0.  1.
<mgrwt>
<rscale>  0 0.16009344E+04</rscale>
<asrwt>0</asrwt>
<pdfrwt beam="1">  1        2 0.10480666E+00 0.16009344E+04</pdfrwt>
<pdfrwt beam="2">  1       -1 0.14470098E+00 0.16009344E+04</pdfrwt>
<totfact> 0.17843016E+01</totfact>
</mgrwt>
</event>
<event>
11    6  0.1663299E-008  0.1190253E+04  0.7818608E-02  0.9121431E-01
         -1   -1    0    0    0  501 -0.00000000000E+00  0.00000000000E+00  0.18465422727E+03  0.18465422727E+03  0.00000000000E+00 0.  1.
          2   -1    0    0  501    0  0.00000000000E+00 -0.00000000000E+00 -0.19180488978E+04  0.19180488978E+04  0.00000000000E+00 0. -1.
         24    2    1    2    0    0  0.21775079797E+03 -0.65986496665E+01 -0.53877319022E+03  0.58685556475E+03  0.81633027533E+02 0.  0.
        254    2    1    2    0    0 -0.21775079797E+03  0.65986496665E+01 -0.11946214804E+04  0.15158475604E+04  0.90731162935E+03 0.  0.
         23    2    4    4    0    0 -0.49057917329E+03 -0.17532245299E+02 -0.33944938543E+03  0.60386902614E+03  0.91959831340E+02 0.  0.
          4    1    3    3  502    0  0.18283381788E+03  0.10009722866E+02 -0.49831624244E+03  0.53089309375E+03  0.00000000000E+00 0. -1.
         -3    1    3    3    0  502  0.34916980091E+02 -0.16608372533E+02 -0.40456947785E+02  0.55962471004E+02  0.00000000000E+00 0.  1.
         11    1    4    4    0    0  0.19193573642E+03 -0.58534668128E+02 -0.56712374761E+03  0.60157707685E+03  0.00000000000E+00 0.  1.
        -11    1    4    4    0    0  0.80892638890E+02  0.82665563093E+02 -0.28804834731E+03  0.31040145737E+03  0.00000000000E+00 0. -1.
          1    1    5    5  503    0 -0.40401933161E+03 -0.36274559472E+02 -0.24270895921E+03  0.47271037948E+03  0.00000000000E+00 0. -1.
         -1    1    5    5    0  503 -0.86559841673E+02  0.18742314174E+02 -0.96740426218E+02  0.13115864667E+03  0.00000000000E+00 0.  1.
<mgrwt>
<rscale>  0 0.11902535E+04</rscale>
<asrwt>0</asrwt>
<pdfrwt beam="1">  1        2 0.29508446E+00 0.11902535E+04</pdfrwt>
<pdfrwt beam="2">  1       -1 0.28408342E-01 0.11902535E+04</pdfrwt>
<totfact> 0.93779887E+01</totfact>
</mgrwt>
</event>
<event>
12    6  0.1663299E-008  0.1699146E+04  0.7818608E-02  0.8761852E-01
         -1   -1    0    0    0  501 -0.00000000000E+00  0.00000000000E+00  0.74565569826E+03  0.74565569826E+03  0.00000000000E+00 0.  1.
          2   -1    0    0  501    0  0.00000000000E+00 -0.00000000000E+00 -0.96797231245E+03  0.96797231245E+03  0.00000000000E+00 0. -1.
         24    2    1    2    0    0  0.35013668887E+03  0.14542058178E+03  0.40130336629E+03  0.55784754450E+03  0.80041518046E+02 0.  0.
        254    2    1    2    0    0 -0.35013668887E+03 -0.14542058178E+03 -0.62361998047E+03  0.11557804662E+04  0.89620519945E+03 0.  0.
         23    2    4    4    0    0 -0.20553604985E+03  0.14944423734E+03  0.15610413534E+03  0.30466470237E+03  0.62236901732E+02 0.  0.
         23    2    4    4    0    0 -0.14460063902E+03 -0.29486481913E+03 -0.77972411582E+03  0.85111576384E+03  0.92594493916E+02 0.  0.
          2    1    3    3  502    0  0.44822227379E+02  0.45870039523E+02  0.46003458678E+02  0.78926616572E+02  0.00000000000E+00 0. -1.
         -1    1    3    3    0  502  0.30531446149E+03  0.99550542259E+02  0.35529990761E+03  0.47892092793E+03  0.00000000000E+00 0.  1.
         11    1    5    5    0    0 -0.70062408714E+02  0.84455766659E+02  0.82886402585E+02  0.13751971993E+03  0.00000000000E+00 0. -1.
        -11    1    5    5    0    0 -0.13547364114E+03  0.64988470685E+02  0.73217732758E+02  0.16714498244E+03  0.00000000000E+00 0.  1.
          4    1    6    6  503    0 -0.13034500835E+03 -0.25372692793E+03 -0.73630457179E+03  0.78962750560E+03  0.00000000000E+00 0. -1.
         -4    1    6    6    0  503 -0.14255630664E+02 -0.41137891198E+02 -0.43419544029E+02  0.61488258241E+02  0.00000000000E+00 0.  1.
<mgrwt>
<rscale>  0 0.16991458E+04</rscale>
<asrwt>0</asrwt>
<pdfrwt beam="1">  1        2 0.14891882E+00 0.16991458E+04</pdfrwt>
<pdfrwt beam="2">  1       -1 0.11471626E+00 0.16991458E+04</pdfrwt>
<totfact> 0.19813412E+01</totfact>
</mgrwt>
</event>
<event>
12    6  0.1663299E-008  0.1351219E+04  0.7818608E-02  0.8989906E-01
         -1   -1    0    0    0  501 -0.00000000000E+00  0.00000000000E+00  0.12592628758E+03  0.12592628758E+03  0.00000000000E+00 0.  1.
          2   -1    0    0  501    0  0.00000000000E+00 -0.00000000000E+00 -0.36247233745E+04  0.36247233745E+04  0.00000000000E+00 0. -1.
         24    2    1    2    0    0 -0.53269968755E+02 -0.36888082578E+03 -0.93288168171E+03  0.10077132916E+04  0.79417206881E+02 0.  0.
        254    2    1    2    0    0  0.53269968755E+02  0.36888082578E+03 -0.25659154052E+04  0.27429363705E+04  0.89491190224E+03 0.  0.
         23    2    4    4    0    0  0.39087677632E+03  0.44633826196E+03 -0.17314127237E+04  0.18346374247E+04  0.12689350764E+03 0.  0.
         23    2    4    4    0    0 -0.33760680756E+03 -0.77457436174E+02 -0.83450268159E+03  0.90829894580E+03  0.92920602813E+02 0.  0.
          2    1    3    3  502    0 -0.26904605877E+02 -0.25802951029E+03 -0.73407526632E+03  0.77856893248E+03  0.00000000000E+00 0. -1.
         -1    1    3    3    0  502 -0.26365362878E+02 -0.11085131549E+03 -0.19880641538E+03  0.22914435909E+03  0.00000000000E+00 0.  1.
         11    1    5    5    0    0  0.13351785845E+03  0.72621108898E+02 -0.48070611942E+03  0.50416189585E+03  0.00000000000E+00 0.  1.
        -11    1    5    5    0    0  0.25735891787E+03  0.37371715306E+03 -0.12507066042E+04  0.13304755289E+04  0.00000000000E+00 0. -1.
          2    1    6    6  503    0 -0.26953557860E+03 -0.36975426300E+02 -0.71423752884E+03  0.76429827809E+03  0.00000000000E+00 0. -1.
         -2    1    6    6    0  503 -0.68071228962E+02 -0.40482009874E+02 -0.12026515275E+03  0.14400066771E+03  0.00000000000E+00 0.  1.
<mgrwt>
<rscale>  0 0.13512186E+04</rscale>
<asrwt>0</asrwt>
<pdfrwt beam="1">  1        2 0.55764971E+00 0.13512186E+04</pdfrwt>
<pdfrwt beam="2">  1       -1 0.19373276E-01 0.13512186E+04</pdfrwt>
<totfact> 0.16247385E+01</totfact>
</mgrwt>
</event>
<event>
12    6  0.1663299E-008  0.1821081E+04  0.7818608E-02  0.8695169E-01
         -1   -1    0    0    0  501 -0.00000000000E+00  0.00000000000E+00  0.40777626083E+03  0.40777626083E+03  0.00000000000E+00 0.  1.
          2   -1    0    0  501    0  0.00000000000E+00 -0.00000000000E+00 -0.20331830451E+04  0.20331830451E+04  0.00000000000E+00 0. -1.
         24    2    1    2    0    0 -0.64044529617E+03  0.22422741280E+03 -0.64315764785E+03  0.93871679771E+03  0.84198315217E+02 0.  0.
        254    2    1    2    0    0  0.64044529617E+03 -0.22422741280E+03 -0.98224913639E+03  0.15022425082E+04  0.91185035912E+03 0.  0.
         23    2    4    4    0    0  0.65650239631E+03  0.14840832030E+03 -0.34661826716E+03  0.76006422505E+03  0.67327387981E+02 0.  0.
         23    2    4    4    0    0 -0.16057100141E+02 -0.37263573311E+03 -0.63563086923E+03  0.74217828314E+03  0.87674294948E+02 0.  0.
          4    1    3    3  502    0 -0.10195901723E+03  0.31893672888E+02 -0.62456629951E+02  0.12374844722E+03  0.00000000000E+00 0. -1.
         -3    1    3    3    0  502 -0.53848627894E+03  0.19233373992E+03 -0.58070101790E+03  0.81496835049E+03  0.00000000000E+00 0.  1.
         11    1    5    5    0    0  0.50546694842E+03  0.11184410440E+03 -0.29750799742E+03  0.59709040200E+03  0.00000000000E+00 0. -1.
        -11    1    5    5    0    0  0.15103544789E+03  0.36564215906E+02 -0.49110269738E+02  0.16297382305E+03  0.00000000000E+00 0.  1.
          1    1    6    6  503    0 -0.36870326626E+02 -0.34221898094E+03 -0.59448411753E+03  0.68693858379E+03  0.00000000000E+00 0. -1.
         -1    1    6    6    0  503  0.20813226485E+02 -0.30416752172E+02 -0.41146751701E+02  0.55239699356E+02  0.00000000000E+00 0.  1.
<mgrwt>
<rscale>  0 0.18210808E+04</rscale>
<asrwt>0</asrwt>
<pdfrwt beam="1">  1        2 0.31279739E+00 0.18210808E+04</pdfrwt>
<pdfrwt beam="2">  1       -1 0.62734810E-01 0.18210808E+04</pdfrwt>
<totfact> 0.17710917E+01</totfact>
</mgrwt>
</event>
<event>
12    6  0.1663299E-008  0.1450472E+04  0.7818608E-02  0.8918074E-01
         -1   -1    0    0    0  501 -0.00000000000E+00  0.00000000000E+00  0.26743520055E+03  0.26743520055E+03  0.00000000000E+00 0.  1.
          2   -1    0    0  501    0  0.00000000000E+00 -0.00000000000E+00 -0.19667079479E+04  0.19667079479E+04  0.00000000000E+00 0. -1.
         24    2    1    2    0    0 -0.42034032215E+03  0.13648913296E+03 -0.46940143559E+03  0.64956380819E+03  0.79247481593E+02 0.  0.
        254    2    1    2    0    0  0.42034032215E+03 -0.13648913296E+03 -0.12298713118E+04  0.15845793403E+04  0.89609875140E+03 0.  0.
         23    2    4    4    0    0  0.55355566513E+03 -0.18536750836E+03 -0.34000883812E+03  0.67881072611E+03  0.66279742988E+02 0.  0.
         23    2    4    4    0    0 -0.13321534298E+03  0.48878375403E+02 -0.88986247368E+03  0.90576861418E+03  0.91793993223E+02 0.  0.
          4    1    3    3  502    0 -0.30773357850E+03  0.73471711306E+02 -0.29470152312E+03  0.43237372194E+03  0.00000000000E+00 0. -1.
         -3    1    3    3    0  502 -0.11260674365E+03  0.63017421654E+02 -0.17469991248E+03  0.21719008625E+03  0.00000000000E+00 0.  1.
         11    1    5    5    0    0  0.43653257115E+03 -0.12494961054E+03 -0.24108109085E+03  0.51409452751E+03  0.00000000000E+00 0.  1.
        -11    1    5    5    0    0  0.11702309397E+03 -0.60417897824E+02 -0.98927747271E+02  0.16471619860E+03  0.00000000000E+00 0. -1.
          2    1    6    6  503    0 -0.74068535264E+02 -0.32410397141E+01 -0.62617950986E+03  0.63055327359E+03  0.00000000000E+00 0.  1.
         -2    1    6    6    0  503 -0.59146807714E+02  0.52119415117E+02 -0.26368296381E+03  0.27521534060E+03  0.00000000000E+00 0. -1.
<mgrwt>
<rscale>  0 0.14504716E+04</rscale>
<asrwt>0</asrwt>
<pdfrwt beam="1">  1        2 0.30257047E+00 0.14504716E+04</pdfrwt>
<pdfrwt beam="2">  1       -1 0.41143875E-01 0.14504716E+04</pdfrwt>
<totfact> 0.44560785E+01</totfact>
</mgrwt>
</event>
<event>
11    6  0.1663299E-008  0.2071634E+04  0.7818608E-02  0.8573843E-01
         -1   -1    0    0    0  501 -0.00000000000E+00  0.00000000000E+00  0.13722235996E+04  0.13722235996E+04  0.00000000000E+00 0.  1.
          2   -1    0    0  501    0  0.00000000000E+00 -0.00000000000E+00 -0.78188186495E+03  0.78188186495E+03  0.00000000000E+00 0. -1.
         24    2    1    2    0    0 -0.45456627473E+03  0.20863578343E+01  0.97658273741E+03  0.10801752610E+04  0.80186660439E+02 0.  0.
        254    2    1    2    0    0  0.45456627473E+03 -0.20863578343E+01 -0.38624100275E+03  0.10739302035E+04  0.89303366054E+03 0.  0.
         23    2    4    4    0    0  0.64405141053E+03  0.21022848411E+03 -0.29529074190E+03  0.74470094313E+03  0.91567666356E+02 0.  0.
          2    1    3    3  502    0 -0.43678833446E+02 -0.16858017267E+01  0.49053255883E+02  0.65703153131E+02  0.00000000000E+00 0. -1.
         -1    1    3    3    0  502 -0.41088744128E+03  0.37721595611E+01  0.92752948153E+03  0.10144721079E+04  0.00000000000E+00 0.  1.
         11    1    4    4    0    0 -0.26806191048E+02 -0.75209053236E+02 -0.84681839726E+02  0.11638723103E+03  0.00000000000E+00 0.  1.
        -11    1    4    4    0    0 -0.16267894475E+03 -0.13710578871E+03 -0.62684211278E+01  0.21284202937E+03  0.00000000000E+00 0. -1.
          4    1    5    5  503    0  0.61861833134E+03  0.18469883877E+03 -0.29183842205E+03  0.70849979923E+03  0.00000000000E+00 0. -1.
         -4    1    5    5    0  503  0.25433079183E+02  0.25529645341E+02 -0.34523198452E+01  0.36201143908E+02  0.00000000000E+00 0.  1.
<mgrwt>
<rscale>  0 0.20716339E+04</rscale>
<asrwt>0</asrwt>
<pdfrwt beam="1">  1        2 0.12028952E+00 0.20716339E+04</pdfrwt>
<pdfrwt beam="2">  1       -1 0.21111132E+00 0.20716339E+04</pdfrwt>
<totfact> 0.47286869E+00</totfact>
</mgrwt>
</event>
<event>
11    6  0.1663299E-008  0.3854278E+04  0.7818608E-02  0.8034606E-01
          2   -1    0    0  501    0  0.00000000000E+00  0.00000000000E+00  0.15407822334E+04  0.15407822334E+04  0.00000000000E+00 0. -1.
         -1   -1    0    0    0  501 -0.00000000000E+00 -0.00000000000E+00 -0.24103760117E+04  0.24103760117E+04  0.00000000000E+00 0.  1.
         24    2    1    2    0    0 -0.17116843543E+03 -0.16864376109E+04  0.27498937711E+03  0.17190813887E+04  0.79064623843E+02 0.  0.
        254    2    1    2    0    0  0.17116843543E+03  0.16864376109E+04 -0.11445831554E+04  0.22320768564E+04  0.89371474442E+03 0.  0.
         23    2    4    4    0    0 -0.14367355743E+03  0.17689407133E+03 -0.49522728272E+03  0.55119359280E+03  0.81429181615E+02 0.  0.
          2    1    3    3  502    0 -0.13564845891E+03 -0.13722894127E+04  0.25452202674E+03  0.14022696598E+04  0.00000000000E+00 0. -1.
         -1    1    3    3    0  502 -0.35519976524E+02 -0.31414819819E+03  0.20467350375E+02  0.31681172894E+03  0.00000000000E+00 0.  1.
         11    1    4    4    0    0  0.24833583656E+03  0.11467588957E+04 -0.41838673833E+03  0.12457022580E+04  0.00000000000E+00 0. -1.
        -11    1    4    4    0    0  0.66506156299E+02  0.36278464384E+03 -0.23096913434E+03  0.43518100562E+03  0.00000000000E+00 0.  1.
          1    1    5    5  503    0 -0.14864760246E+03  0.13813854265E+03 -0.41622080826E+03  0.46305305086E+03  0.00000000000E+00 0. -1.
         -1    1    5    5    0  503  0.49740450277E+01  0.38755528678E+02 -0.79006474462E+02  0.88140541943E+02  0.00000000000E+00 0.  1.
<mgrwt>
<rscale>  0 0.38542779E+04</rscale>
<asrwt>0</asrwt>
<pdfrwt beam="1">  1        2 0.23704342E+00 0.38542779E+04</pdfrwt>
<pdfrwt beam="2">  1       -1 0.37082708E+00 0.38542779E+04</pdfrwt>
<totfact> 0.12337811E-01</totfact>
</mgrwt>
</event>
<event>
11    6  0.1663299E-008  0.2009779E+04  0.7818608E-02  0.8602062E-01
         -3   -1    0    0    0  501 -0.00000000000E+00  0.00000000000E+00  0.17147023227E+04  0.17147023227E+04  0.00000000000E+00 0.  1.
          2   -1    0    0  501    0  0.00000000000E+00 -0.00000000000E+00 -0.58890876866E+03  0.58890876866E+03  0.00000000000E+00 0. -1.
         24    2    1    2    0    0  0.69136537003E+01 -0.64804190408E+03  0.10091485033E+04  0.12019828647E+04  0.79849842548E+02 0.  0.
        254    2    1    2    0    0 -0.69136537003E+01  0.64804190408E+03  0.11664505074E+03  0.11016282266E+04  0.88316055946E+03 0.  0.
         23    2    4    4    0    0  0.87006072284E+02  0.88017811849E+02  0.37858884055E+03  0.40850233423E+03  0.90705319928E+02 0.  0.
          2    1    3    3  502    0 -0.60093921947E+01 -0.16744573641E+02  0.55144093633E+02  0.57942770071E+02  0.00000000000E+00 0. -1.
         -1    1    3    3    0  502  0.12923045895E+02 -0.63129733043E+03  0.95400440962E+03  0.11440400946E+04  0.00000000000E+00 0.  1.
         11    1    4    4    0    0 -0.24439594994E+02  0.64243154922E+02 -0.17101257545E+03  0.18430891927E+03  0.00000000000E+00 0. -1.
        -11    1    4    4    0    0 -0.69480130991E+02  0.49578093730E+03 -0.90931214361E+02  0.50881697313E+03  0.00000000000E+00 0.  1.
          2    1    5    5  503    0  0.93371620331E+02  0.93393484200E+02  0.28020963798E+03  0.30977095344E+03  0.00000000000E+00 0. -1.
         -2    1    5    5    0  503 -0.63655480472E+01 -0.53756723510E+01  0.98379202568E+02  0.98731380792E+02  0.00000000000E+00 0.  1.
<mgrwt>
<rscale>  0 0.20097793E+04</rscale>
<asrwt>0</asrwt>
<pdfrwt beam="1">  1        2 0.90601350E-01 0.20097793E+04</pdfrwt>
<pdfrwt beam="2">  1       -3 0.26380036E+00 0.20097793E+04</pdfrwt>
<totfact> 0.17920006E+00</totfact>
</mgrwt>
</event>
<event>
11    6  0.1663299E-008  0.1301821E+04  0.7818608E-02  0.9028122E-01
          2   -1    0    0  501    0  0.00000000000E+00  0.00000000000E+00  0.65304611814E+03  0.65304611814E+03  0.00000000000E+00 0. -1.
         -1   -1    0    0    0  501 -0.00000000000E+00 -0.00000000000E+00 -0.64878222242E+03  0.64878222242E+03  0.00000000000E+00 0.  1.
         24    2    1    2    0    0 -0.22599246955E+03 -0.16302287657E+03  0.15992577323E+03  0.33111558825E+03  0.80076371416E+02 0.  0.
        254    2    1    2    0    0  0.22599246955E+03  0.16302287657E+03 -0.15566187750E+03  0.97071275231E+03  0.91673527957E+03 0.  0.
         23    2    4    4    0    0 -0.99753760437E+02  0.22575529252E+03  0.16187335055E+03  0.30937249844E+03  0.92693561530E+02 0.  0.
          4    1    3    3  502    0 -0.94318103528E+02 -0.79550933956E+02  0.11549056546E+03  0.16900392438E+03  0.00000000000E+00 0. -1.
         -3    1    3    3    0  502 -0.13167436602E+03 -0.83471942616E+02  0.44435207765E+02  0.16211166386E+03  0.00000000000E+00 0.  1.
         11    1    4    4    0    0  0.20671989493E+03 -0.22563696840E+03 -0.34105596725E+03  0.45821864789E+03  0.00000000000E+00 0. -1.
        -11    1    4    4    0    0  0.11902633506E+03  0.16290455245E+03  0.23520739203E+02  0.20312160599E+03  0.00000000000E+00 0.  1.
          2    1    5    5  503    0 -0.10147322739E+03  0.11818023123E+03  0.10282358929E+03  0.18664424300E+03  0.00000000000E+00 0. -1.
         -2    1    5    5    0  503  0.17194669487E+01  0.10757506130E+03  0.59049761258E+02  0.12272825544E+03  0.00000000000E+00 0.  1.
<mgrwt>
<rscale>  0 0.13018214E+04</rscale>
<asrwt>0</asrwt>
<pdfrwt beam="1">  1        2 0.10046863E+00 0.13018214E+04</pdfrwt>
<pdfrwt beam="2">  1       -1 0.99812649E-01 0.13018214E+04</pdfrwt>
<totfact> 0.47936896E+01</totfact>
</mgrwt>
</event>
<event>
12    6  0.1663299E-008  0.1758768E+04  0.7818608E-02  0.8728539E-01
          2   -1    0    0  501    0  0.00000000000E+00  0.00000000000E+00  0.64008550615E+03  0.64008550615E+03  0.00000000000E+00 0. -1.
         -1   -1    0    0    0  501 -0.00000000000E+00 -0.00000000000E+00 -0.12081446554E+04  0.12081446554E+04  0.00000000000E+00 0.  1.
         24    2    1    2    0    0  0.25345026752E+03  0.41583222883E+03  0.22293175932E+03  0.54145036747E+03  0.79476100082E+02 0.  0.
        254    2    1    2    0    0 -0.25345026752E+03 -0.41583222883E+03 -0.79099090857E+03  0.13067797941E+04  0.91915903528E+03 0.  0.
         23    2    4    4    0    0 -0.46377151928E+03 -0.60528096868E+02 -0.96515208667E+02  0.49358588616E+03  0.12475643836E+03 0.  0.
         23    2    4    4    0    0  0.21032125176E+03 -0.35530413196E+03 -0.69447569991E+03  0.81319390792E+03  0.92259302952E+02 0.  0.
          2    1    3    3  502    0  0.12204549297E+03  0.13768095791E+03  0.10607378944E+03  0.21237419178E+03  0.00000000000E+00 0. -1.
         -1    1    3    3    0  502  0.13140477454E+03  0.27815127091E+03  0.11685796988E+03  0.32907617569E+03  0.00000000000E+00 0.  1.
         11    1    5    5    0    0 -0.49886948542E+02  0.14744011737E+02  0.22084014955E+02  0.56513690673E+02  0.00000000000E+00 0. -1.
        -11    1    5    5    0    0 -0.41388457074E+03 -0.75272108605E+02 -0.11859922362E+03  0.43707219549E+03  0.00000000000E+00 0.  1.
          2    1    6    6  503    0 -0.88224138348E+01 -0.25748997095E+02 -0.48819787138E+02  0.55894699690E+02  0.00000000000E+00 0. -1.
         -2    1    6    6    0  503  0.21914366559E+03 -0.32955513486E+03 -0.64565591277E+03  0.75729920823E+03  0.00000000000E+00 0.  1.
<mgrwt>
<rscale>  0 0.17587676E+04</rscale>
<asrwt>0</asrwt>
<pdfrwt beam="1">  1        2 0.98474693E-01 0.17587676E+04</pdfrwt>
<pdfrwt beam="2">  1       -1 0.18586841E+00 0.17587676E+04</pdfrwt>
<totfact> 0.93667578E+00</totfact>
</mgrwt>
</event>
<event>
11    6  0.1663299E-008  0.3447774E+04  0.7818608E-02  0.8126280E-01
         -1   -1    0    0    0  501 -0.00000000000E+00  0.00000000000E+00  0.20922230435E+04  0.20922230435E+04  0.00000000000E+00 0.  1.
          2   -1    0    0  501    0  0.00000000000E+00 -0.00000000000E+00 -0.14203965349E+04  0.14203965349E+04  0.00000000000E+00 0. -1.
         24    2    1    2    0    0 -0.63429541616E+03  0.73586551149E+03 -0.98869323817E+03  0.13884502495E+04  0.80318429890E+02 0.  0.
        254    2    1    2    0    0  0.63429541616E+03 -0.73586551149E+03  0.16605197468E+04  0.21241693290E+04  0.90052250534E+03 0.  0.
         23    2    4    4    0    0  0.79048946977E+03 -0.54473946686E+03  0.13828989564E+04  0.16858249059E+04  0.89338688794E+02 0.  0.
          4    1    3    3  502    0 -0.33000056375E+03  0.40835938072E+03 -0.48193595629E+03  0.71268507902E+03  0.00000000000E+00 0. -1.
         -3    1    3    3    0  502 -0.30429485242E+03  0.32750613077E+03 -0.50675728188E+03  0.67576517048E+03  0.00000000000E+00 0.  1.
         11    1    4    4    0    0 -0.62956699698E+02 -0.22865410918E+03  0.17529486080E+03  0.29491445523E+03  0.00000000000E+00 0. -1.
        -11    1    4    4    0    0 -0.93237353909E+02  0.37528064552E+02  0.10232592964E+03  0.14342996782E+03  0.00000000000E+00 0.  1.
          3    1    5    5  503    0  0.22052266871E+03 -0.18796781709E+03  0.36810625846E+03  0.46847023939E+03  0.00000000000E+00 0. -1.
         -3    1    5    5    0  503  0.56996680106E+03 -0.35677164977E+03  0.10147926979E+04  0.12173546665E+04  0.00000000000E+00 0.  1.
<mgrwt>
<rscale>  0 0.34477740E+04</rscale>
<asrwt>0</asrwt>
<pdfrwt beam="1">  1        2 0.21852254E+00 0.34477740E+04</pdfrwt>
<pdfrwt beam="2">  1       -1 0.32188047E+00 0.34477740E+04</pdfrwt>
<totfact> 0.31487655E-01</totfact>
</mgrwt>
</event>
<event>
12    6  0.1663299E-008  0.1772455E+04  0.7818608E-02  0.8721086E-01
         -1   -1    0    0    0  501 -0.00000000000E+00  0.00000000000E+00  0.24855685007E+03  0.24855685007E+03  0.00000000000E+00 0.  1.
          2   -1    0    0  501    0  0.00000000000E+00 -0.00000000000E+00 -0.31598381245E+04  0.31598381245E+04  0.00000000000E+00 0. -1.
         24    2    1    2    0    0  0.94070693725E+02 -0.40838032769E+03 -0.11866887313E+03  0.44337429831E+03  0.82913686998E+02 0.  0.
        254    2    1    2    0    0 -0.94070693725E+02  0.40838032769E+03 -0.27926124013E+04  0.29650206763E+04  0.90390253857E+03 0.  0.
         23    2    4    4    0    0 -0.36208747785E+02 -0.26090067255E+03 -0.53641728072E+03  0.60919283472E+03  0.11828853057E+03 0.  0.
         23    2    4    4    0    0 -0.57861945940E+02  0.66928100024E+03 -0.22561951206E+04  0.23558278416E+04  0.90682604355E+02 0.  0.
          4    1    3    3  502    0 -0.10583080058E+02 -0.10536119494E+03 -0.40725314717E+02  0.11345278420E+03  0.00000000000E+00 0. -1.
         -3    1    3    3    0  502  0.10465377378E+03 -0.30301913275E+03 -0.77943558415E+02  0.32992151412E+03  0.00000000000E+00 0.  1.
         11    1    5    5    0    0  0.15555862998E+02  0.25115055467E+01 -0.11154150614E+02  0.19305636732E+02  0.00000000000E+00 0.  1.
        -11    1    5    5    0    0 -0.51764610783E+02 -0.26341217810E+03 -0.52526313010E+03  0.58988719798E+03  0.00000000000E+00 0. -1.
          3    1    6    6  503    0 -0.57135465421E+02  0.29573788614E+03 -0.89602719321E+03  0.94529894197E+03  0.00000000000E+00 0. -1.
         -3    1    6    6    0  503 -0.72648051832E+00  0.37354311410E+03 -0.13601679274E+04  0.14105288996E+04  0.00000000000E+00 0.  1.
<mgrwt>
<rscale>  0 0.17724553E+04</rscale>
<asrwt>0</asrwt>
<pdfrwt beam="1">  1        2 0.48612892E+00 0.17724553E+04</pdfrwt>
<pdfrwt beam="2">  1       -1 0.38239518E-01 0.17724553E+04</pdfrwt>
<totfact> 0.98623956E+00</totfact>
</mgrwt>
</event>
<event>
12    6  0.1663299E-008  0.1467674E+04  0.7818608E-02  0.8906239E-01
          4   -1    0    0  501    0  0.00000000000E+00  0.00000000000E+00  0.68161117968E+03  0.68161117968E+03  0.00000000000E+00 0. -1.
         -3   -1    0    0    0  501 -0.00000000000E+00 -0.00000000000E+00 -0.79006391449E+03  0.79006391449E+03  0.00000000000E+00 0.  1.
         24    2    1    2    0    0  0.31672479753E+03 -0.22988101661E+03  0.21996483221E+03  0.45599474058E+03  0.79917437748E+02 0.  0.
        254    2    1    2    0    0 -0.31672479753E+03  0.22988101661E+03 -0.32841756702E+03  0.10156803536E+04  0.87783176246E+03 0.  0.
         23    2    4    4    0    0 -0.52486803902E+03 -0.10793882400E+03 -0.14341539623E+03  0.56846370301E+03  0.12428096252E+03 0.  0.
         23    2    4    4    0    0  0.20814324149E+03  0.33781984061E+03 -0.18500217079E+03  0.44721665059E+03  0.91274726402E+02 0.  0.
          4    1    3    3  502    0  0.10973089657E+03 -0.45393670489E+02  0.93980926482E+02  0.15143932621E+03  0.00000000000E+00 0. -1.
         -3    1    3    3    0  502  0.20699390096E+03 -0.18448734612E+03  0.12598390573E+03  0.30455541436E+03  0.00000000000E+00 0.  1.
         11    1    5    5    0    0 -0.11625513651E+03 -0.72047444482E+02 -0.62494614814E+02  0.15037176564E+03  0.00000000000E+00 0. -1.
        -11    1    5    5    0    0 -0.40861290252E+03 -0.35891379514E+02 -0.80920781418E+02  0.41809193737E+03  0.00000000000E+00 0.  1.
          2    1    6    6  503    0  0.15417712562E+03  0.25787415656E+03 -0.18083301898E+03  0.35067113859E+03  0.00000000000E+00 0.  1.
         -2    1    6    6    0  503  0.53966115875E+02  0.79945684049E+02 -0.41691518078E+01  0.96545512001E+02  0.00000000000E+00 0. -1.
<mgrwt>
<rscale>  0 0.14676735E+04</rscale>
<asrwt>0</asrwt>
<pdfrwt beam="1">  1        4 0.10486326E+00 0.14676735E+04</pdfrwt>
<pdfrwt beam="2">  1       -3 0.12154829E+00 0.14676735E+04</pdfrwt>
<totfact> 0.89422515E-01</totfact>
</mgrwt>
</event>
<event>
12    6  0.1663299E-008  0.1174156E+04  0.7818608E-02  0.9135784E-01
          2   -1    0    0  501    0  0.00000000000E+00  0.00000000000E+00  0.27589003218E+04  0.27589003218E+04  0.00000000000E+00 0. -1.
         -1   -1    0    0    0  501 -0.00000000000E+00 -0.00000000000E+00 -0.12492673066E+03  0.12492673066E+03  0.00000000000E+00 0.  1.
         24    2    1    2    0    0  0.74752637492E+02 -0.17337706031E+03  0.88345131890E+03  0.90696304471E+03  0.80300496598E+02 0.  0.
        254    2    1    2    0    0 -0.74752637492E+02  0.17337706031E+03  0.17505222722E+04  0.19768640077E+04  0.89889683370E+03 0.  0.
         23    2    4    4    0    0  0.47086838374E+01  0.14214998805E+03 -0.54693558954E+02  0.16737247419E+03  0.69234160081E+02 0.  0.
         23    2    4    4    0    0 -0.79461321329E+02  0.31227072263E+02  0.18052158312E+04  0.18094915336E+04  0.90366925064E+02 0.  0.
          2    1    3    3  502    0  0.55053859286E+02 -0.17665795875E+03  0.80760806098E+03  0.82853469569E+03  0.00000000000E+00 0. -1.
         -3    1    3    3    0  502  0.19698778206E+02  0.32808984436E+01  0.75843257922E+02  0.78428349018E+02  0.00000000000E+00 0.  1.
         11    1    5    5    0    0  0.15874189664E+02  0.11434427298E+03 -0.13203028841E+02  0.11619347069E+03  0.00000000000E+00 0. -1.
        -11    1    5    5    0    0 -0.11165505827E+02  0.27805715071E+02 -0.41490530113E+02  0.51179003508E+02  0.00000000000E+00 0.  1.
          3    1    6    6  503    0 -0.73880138668E+02 -0.14101585961E+02  0.90601630874E+03  0.90913292830E+03  0.00000000000E+00 0. -1.
         -3    1    6    6    0  503 -0.55811826616E+01  0.45328658224E+02  0.89919952246E+03  0.90035860525E+03  0.00000000000E+00 0.  1.
<mgrwt>
<rscale>  0 0.11741557E+04</rscale>
<asrwt>0</asrwt>
<pdfrwt beam="1">  1        2 0.42444616E+00 0.11741557E+04</pdfrwt>
<pdfrwt beam="2">  1       -1 0.19219499E-01 0.11741557E+04</pdfrwt>
<totfact> 0.60928224E+01</totfact>
</mgrwt>
</event>
<event>
12    6  0.1663299E-008  0.1517437E+04  0.7818608E-02  0.8872939E-01
         -1   -1    0    0    0  501 -0.00000000000E+00  0.00000000000E+00  0.39516378524E+03  0.39516378524E+03  0.00000000000E+00 0.  1.
          2   -1    0    0  501    0  0.00000000000E+00 -0.00000000000E+00 -0.14567481821E+04  0.14567481821E+04  0.00000000000E+00 0. -1.
         24    2    1    2    0    0 -0.25192040063E+03  0.35753508480E+03 -0.60850695008E+03  0.75374703126E+03  0.80985515504E+02 0.  0.
        254    2    1    2    0    0  0.25192040063E+03 -0.35753508480E+03 -0.45307744678E+03  0.10981649361E+04  0.89966206373E+03 0.  0.
         23    2    4    4    0    0  0.21217256244E+03 -0.29859606739E+03 -0.71592365121E+03  0.81092769940E+03  0.10430844438E+03 0.  0.
         23    2    4    4    0    0  0.39747838189E+02 -0.58939017410E+02  0.26284620444E+03  0.28723723667E+03  0.91451651322E+02 0.  0.
          4    1    3    3  502    0 -0.32842508595E+02  0.56986582328E+02 -0.14689900077E+03  0.16095159944E+03  0.00000000000E+00 0. -1.
         -3    1    3    3    0  502 -0.21907789203E+03  0.30054850247E+03 -0.46160794931E+03  0.59279543181E+03  0.00000000000E+00 0.  1.
         11    1    5    5    0    0  0.21090470912E+03 -0.25289912415E+03 -0.57315221216E+03  0.66101605247E+03  0.00000000000E+00 0. -1.
        -11    1    5    5    0    0  0.12678533215E+01 -0.45696943241E+02 -0.14277143906E+03  0.14991164693E+03  0.00000000000E+00 0.  1.
          3    1    6    6  503    0 -0.12407653213E+02 -0.51636127360E+02  0.19042806190E+03  0.19769442649E+03  0.00000000000E+00 0. -1.
         -3    1    6    6    0  503  0.52155491401E+02 -0.73028900496E+01  0.72418142544E+02  0.89542810185E+02  0.00000000000E+00 0.  1.
<mgrwt>
<rscale>  0 0.15174375E+04</rscale>
<asrwt>0</asrwt>
<pdfrwt beam="1">  1        2 0.22411510E+00 0.15174375E+04</pdfrwt>
<pdfrwt beam="2">  1       -1 0.60794429E-01 0.15174375E+04</pdfrwt>
<totfact> 0.40522989E+01</totfact>
</mgrwt>
</event>
<event>
12    6  0.1663299E-008  0.1374583E+04  0.7818608E-02  0.8972425E-01
          2   -1    0    0  501    0  0.00000000000E+00  0.00000000000E+00  0.10887039264E+04  0.10887039264E+04  0.00000000000E+00 0. -1.
         -1   -1    0    0    0  501 -0.00000000000E+00 -0.00000000000E+00 -0.43388234119E+03  0.43388234119E+03  0.00000000000E+00 0.  1.
         24    2    1    2    0    0 -0.98649975633E+02  0.87625890677E+02 -0.20667555282E+03  0.25748647328E+03  0.78577257396E+02 0.  0.
        254    2    1    2    0    0  0.98649975633E+02 -0.87625890677E+02  0.86149713805E+03  0.12650997943E+04  0.91700057597E+03 0.  0.
         23    2    4    4    0    0  0.36071519963E+03  0.27827542238E+03  0.35073449496E+03  0.57830503474E+03  0.62204190403E+02 0.  0.
         23    2    4    4    0    0 -0.26206522400E+03 -0.36590131306E+03  0.51076264309E+03  0.68679475958E+03  0.90810856680E+02 0.  0.
          4    1    3    3  502    0  0.30721883579E+01 -0.11280135026E+02 -0.15394832777E+02  0.19330821600E+02  0.00000000000E+00 0. -1.
         -3    1    3    3    0  502 -0.10172216399E+03  0.98906025703E+02 -0.19128072005E+03  0.23815565168E+03  0.00000000000E+00 0.  1.
         11    1    5    5    0    0  0.32534396646E+03  0.26209296746E+03  0.29981230314E+03  0.51422644547E+03  0.00000000000E+00 0. -1.
        -11    1    5    5    0    0  0.35371233164E+02  0.16182454927E+02  0.50922191824E+02  0.64078589273E+02  0.00000000000E+00 0.  1.
          1    1    6    6  503    0 -0.26514722439E+03 -0.36771987252E+03  0.51111609830E+03  0.68319881527E+03  0.00000000000E+00 0. -1.
         -1    1    6    6    0  503  0.30820003898E+01  0.18185594624E+01 -0.35345521050E+00  0.35959443136E+01  0.00000000000E+00 0.  1.
<mgrwt>
<rscale>  0 0.13745827E+04</rscale>
<asrwt>0</asrwt>
<pdfrwt beam="1">  1        2 0.16749291E+00 0.13745827E+04</pdfrwt>
<pdfrwt beam="2">  1       -1 0.66751130E-01 0.13745827E+04</pdfrwt>
<totfact> 0.55992443E+01</totfact>
</mgrwt>
</event>
<event>
11    6  0.1663299E-008  0.2339336E+04  0.7818608E-02  0.8462571E-01
         -1   -1    0    0    0  501 -0.00000000000E+00  0.00000000000E+00  0.45025682946E+03  0.45025682946E+03  0.00000000000E+00 0.  1.
          2   -1    0    0  501    0  0.00000000000E+00 -0.00000000000E+00 -0.30385386265E+04  0.30385386265E+04  0.00000000000E+00 0. -1.
         24    2    1    2    0    0 -0.76495012177E+03  0.80463936624E+02 -0.20203345068E+04  0.21632918848E+04  0.80356241895E+02 0.  0.
        254    2    1    2    0    0  0.76495012177E+03 -0.80463936624E+02 -0.56794729031E+03  0.13255035712E+04  0.91802639332E+03 0.  0.
         23    2    4    4    0    0 -0.29148039756E+02  0.20388507752E+03  0.13151501174E+02  0.22688569447E+03  0.94262523398E+02 0.  0.
          2    1    3    3  502    0 -0.28647429683E+02 -0.67488983237E+01 -0.11684650062E+03  0.12049617240E+03  0.00000000000E+00 0. -1.
         -1    1    3    3    0  502 -0.73630269209E+03  0.87212834948E+02 -0.19034880061E+04  0.20427957124E+04  0.00000000000E+00 0.  1.
         11    1    4    4    0    0  0.60570934515E+03 -0.52043613598E+02 -0.26421060042E+03  0.66287222743E+03  0.00000000000E+00 0. -1.
        -11    1    4    4    0    0  0.18838881638E+03 -0.23230540054E+03 -0.31688819107E+03  0.43574564931E+03  0.00000000000E+00 0.  1.
          4    1    5    5  503    0  0.34089821847E+02  0.81984844798E+02  0.11647354555E+02  0.89550497476E+02  0.00000000000E+00 0. -1.
         -4    1    5    5    0  503 -0.63237861602E+02  0.12190023272E+03  0.15041466191E+01  0.13733519700E+03  0.00000000000E+00 0.  1.
<mgrwt>
<rscale>  0 0.23393356E+04</rscale>
<asrwt>0</asrwt>
<pdfrwt beam="1">  1        2 0.46746749E+00 0.23393356E+04</pdfrwt>
<pdfrwt beam="2">  1       -1 0.69270281E-01 0.23393356E+04</pdfrwt>
<totfact> 0.35711877E+00</totfact>
</mgrwt>
</event>
<event>
12    6  0.3049415E-008  0.2366601E+04  0.7818608E-02  0.8452114E-01
         -1   -1    0    0    0  501 -0.00000000000E+00  0.00000000000E+00  0.72162706225E+03  0.72162706225E+03  0.00000000000E+00 0.  1.
          2   -1    0    0  501    0  0.00000000000E+00 -0.00000000000E+00 -0.19403378611E+04  0.19403378611E+04  0.00000000000E+00 0. -1.
         24    2    1    2    0    0 -0.31365763804E+03 -0.72463189675E+03  0.19335248748E+03  0.81682743125E+03  0.79682923776E+02 0.  0.
        254    2    1    2    0    0  0.31365763804E+03  0.72463189675E+03 -0.14120632864E+04  0.18451374921E+04  0.88720749572E+03 0.  0.
         23    2    4    4    0    0 -0.43868589190E+02  0.25954315907E+03  0.30462038190E+02  0.28519911018E+03  0.10546796736E+03 0.  0.
         23    2    4    4    0    0  0.35752622723E+03  0.46508873768E+03 -0.14425253246E+04  0.15599383820E+04  0.91629178791E+02 0.  0.
          2    1    3    3  502    0 -0.21188088927E+02 -0.74364139624E+02  0.41754312260E+02  0.87877090112E+02  0.00000000000E+00 0. -1.
         -1    1    3    3    0  502 -0.29246954911E+03 -0.65026775713E+03  0.15159817522E+03  0.72895034114E+03  0.00000000000E+00 0.  1.
         11    1    5    5    0    0 -0.67959075282E+02  0.92442546328E+02  0.11522346591E+02  0.11531185870E+03  0.00000000000E+00 0.  1.
        -11    1    5    5    0    0  0.24090486092E+02  0.16710061274E+03  0.18939691599E+02  0.16988725148E+03  0.00000000000E+00 0. -1.
          3    1    6    6  503    0  0.36158087325E+03  0.44688059568E+03 -0.13887823440E+04  0.15030500304E+04  0.00000000000E+00 0. -1.
         -3    1    6    6    0  503 -0.40546460200E+01  0.18208142001E+02 -0.53742980554E+02  0.56888351604E+02  0.00000000000E+00 0.  1.
<mgrwt>
<rscale>  0 0.23666012E+04</rscale>
<asrwt>0</asrwt>
<pdfrwt beam="1">  1        2 0.29851351E+00 0.23666012E+04</pdfrwt>
<pdfrwt beam="2">  1       -1 0.11101955E+00 0.23666012E+04</pdfrwt>
<totfact> 0.55256821E+00</totfact>
</mgrwt>
</event>
<event>
12    6  0.1663299E-008  0.1431974E+04  0.7818608E-02  0.8930994E-01
         -1   -1    0    0    0  501 -0.00000000000E+00  0.00000000000E+00  0.27280478183E+03  0.27280478183E+03  0.00000000000E+00 0.  1.
          2   -1    0    0  501    0  0.00000000000E+00 -0.00000000000E+00 -0.18791352859E+04  0.18791352859E+04  0.00000000000E+00 0. -1.
         24    2    1    2    0    0  0.27920621164E+03  0.32249389910E+03 -0.50487859292E+03  0.66581919341E+03  0.80339163275E+02 0.  0.
        254    2    1    2    0    0 -0.27920621164E+03 -0.32249389910E+03 -0.11014519111E+04  0.14861208743E+04  0.90188719744E+03 0.  0.
         23    2    4    4    0    0  0.11684951879E+03 -0.14076951399E+03  0.74454515684E+02  0.22915987140E+03  0.11619339758E+03 0.  0.
         23    2    4    4    0    0 -0.39605573043E+03 -0.18172438511E+03 -0.11759064268E+04  0.12569610029E+04  0.85505230391E+02 0.  0.
          2    1    3    3  502    0  0.80108083226E+02  0.12772640031E+03 -0.13189955457E+03  0.20032181816E+03  0.00000000000E+00 0. -1.
         -1    1    3    3    0  502  0.19909812842E+03  0.19476749879E+03 -0.37297903835E+03  0.46549737526E+03  0.00000000000E+00 0.  1.
         11    1    5    5    0    0  0.59284130613E+02 -0.14650267734E+03  0.45466093124E+02  0.16445305784E+03  0.00000000000E+00 0.  1.
        -11    1    5    5    0    0  0.57565388176E+02  0.57331633454E+01  0.28988422561E+02  0.64706813554E+02  0.00000000000E+00 0. -1.
          3    1    6    6  503    0 -0.65264147718E+02 -0.56661589368E+02 -0.17016540784E+03  0.19085651866E+03  0.00000000000E+00 0. -1.
         -3    1    6    6    0  503 -0.33079158271E+03 -0.12506279574E+03 -0.10057410190E+04  0.10661044842E+04  0.00000000000E+00 0.  1.
<mgrwt>
<rscale>  0 0.14319736E+04</rscale>
<asrwt>0</asrwt>
<pdfrwt beam="1">  1        2 0.28909773E+00 0.14319736E+04</pdfrwt>
<pdfrwt beam="2">  1       -1 0.41969968E-01 0.14319736E+04</pdfrwt>
<totfact> 0.48105517E+01</totfact>
</mgrwt>
</event>
<event>
12    6  0.1663299E-008  0.3043158E+04  0.7818608E-02  0.8231513E-01
          2   -1    0    0  501    0  0.00000000000E+00  0.00000000000E+00  0.17341331695E+04  0.17341331695E+04  0.00000000000E+00 0. -1.
         -1   -1    0    0    0  501 -0.00000000000E+00 -0.00000000000E+00 -0.13350781513E+04  0.13350781513E+04  0.00000000000E+00 0.  1.
         24    2    1    2    0    0  0.11153792472E+04  0.47690693975E+02  0.10377079874E+04  0.15263179507E+04  0.80394976038E+02 0.  0.
        254    2    1    2    0    0 -0.11153792472E+04 -0.47690693975E+02 -0.63865296919E+03  0.15428933701E+04  0.85223064319E+03 0.  0.
         23    2    4    4    0    0 -0.10975217852E+04  0.21109512461E+03 -0.56840645507E+03  0.12587645832E+04  0.11084744938E+03 0.  0.
         23    2    4    4    0    0 -0.17857461947E+02 -0.25878581858E+03 -0.70246514114E+02  0.28412878694E+03  0.92225842229E+02 0.  0.
          4    1    3    3  502    0  0.68725169803E+03  0.56637579888E+02  0.60161349819E+03  0.91512923301E+03  0.00000000000E+00 0. -1.
         -3    1    3    3    0  502  0.42812754912E+03 -0.89468859124E+01  0.43609448923E+03  0.61118871768E+03  0.00000000000E+00 0.  1.
         11    1    5    5    0    0 -0.10540255215E+03 -0.23858343633E+01 -0.81032499267E+02  0.13297238865E+03  0.00000000000E+00 0. -1.
        -11    1    5    5    0    0 -0.99211923306E+03  0.21348095897E+03 -0.48737395581E+03  0.11257921945E+04  0.00000000000E+00 0.  1.
          1    1    6    6  503    0  0.21198169312E+02 -0.76281288468E+02  0.12175570499E+02  0.80102695769E+02  0.00000000000E+00 0. -1.
         -1    1    6    6    0  503 -0.39055631259E+02 -0.18250453011E+03 -0.82422084614E+02  0.20402609117E+03  0.00000000000E+00 0.  1.
<mgrwt>
<rscale>  0 0.30431584E+04</rscale>
<asrwt>0</asrwt>
<pdfrwt beam="1">  1        2 0.26678972E+00 0.30431584E+04</pdfrwt>
<pdfrwt beam="2">  1       -1 0.20539664E+00 0.30431584E+04</pdfrwt>
<totfact> 0.12593675E+00</totfact>
</mgrwt>
</event>
<event>
11    6  0.1663299E-008  0.4523852E+04  0.7818608E-02  0.7906474E-01
         -1   -1    0    0    0  501 -0.00000000000E+00  0.00000000000E+00  0.14656678249E+04  0.14656678249E+04  0.00000000000E+00 0.  1.
          2   -1    0    0  501    0  0.00000000000E+00 -0.00000000000E+00 -0.34907699184E+04  0.34907699184E+04  0.00000000000E+00 0. -1.
         24    2    1    2    0    0 -0.19272880441E+04  0.89071259413E+03 -0.14563565786E+04  0.25761939427E+04  0.89401431593E+02 0.  0.
        254    2    1    2    0    0  0.19272880441E+04 -0.89071259413E+03 -0.56874551487E+03  0.23802438007E+04  0.91338981800E+03 0.  0.
         23    2    4    4    0    0  0.23027648147E+03 -0.27573330581E+03  0.14598865221E+03  0.39798909939E+03  0.89590863418E+02 0.  0.
          4    1    3    3  502    0 -0.10143334526E+04  0.49526039770E+03 -0.72845683955E+03  0.13434301551E+04  0.00000000000E+00 0. -1.
         -3    1    3    3    0  502 -0.91295459150E+03  0.39545219642E+03 -0.72789973904E+03  0.12327637876E+04  0.00000000000E+00 0.  1.
         11    1    4    4    0    0  0.13797420714E+04 -0.49198868616E+03 -0.73981603293E+03  0.16410572243E+04  0.00000000000E+00 0. -1.
        -11    1    4    4    0    0  0.31726949124E+03 -0.12299060216E+03  0.25081865844E+02  0.34119747697E+03  0.00000000000E+00 0.  1.
          3    1    5    5  503    0  0.22888852868E+03 -0.27998856734E+03  0.15043387769E+03  0.39168087515E+03  0.00000000000E+00 0. -1.
         -3    1    5    5    0  503  0.13879527917E+01  0.42552615261E+01 -0.44452254739E+01  0.63082242447E+01  0.00000000000E+00 0.  1.
<mgrwt>
<rscale>  0 0.45238520E+04</rscale>
<asrwt>0</asrwt>
<pdfrwt beam="1">  1        2 0.53704152E+00 0.45238520E+04</pdfrwt>
<pdfrwt beam="2">  1       -1 0.22548736E+00 0.45238520E+04</pdfrwt>
<totfact> 0.71512563E-02</totfact>
</mgrwt>
</event>
<event>
12    6  0.1663299E-008  0.2977719E+04  0.7818608E-02  0.8250122E-01
          2   -1    0    0  501    0  0.00000000000E+00  0.00000000000E+00  0.27438861903E+04  0.27438861903E+04  0.00000000000E+00 0. -1.
         -1   -1    0    0    0  501 -0.00000000000E+00 -0.00000000000E+00 -0.80786988586E+03  0.80786988586E+03  0.00000000000E+00 0.  1.
         24    2    1    2    0    0 -0.74411430688E+03  0.28219978144E+02  0.22362090980E+04  0.23582414302E+04  0.78543262842E+02 0.  0.
        254    2    1    2    0    0  0.74411430688E+03 -0.28219978144E+02 -0.30019279354E+03  0.11935146460E+04  0.88309627339E+03 0.  0.
         23    2    4    4    0    0  0.57178006009E+03 -0.96462332538E+02  0.22304723619E+03  0.63048408474E+03  0.10734380664E+03 0.  0.
         23    2    4    4    0    0  0.17233424680E+03  0.68242354394E+02 -0.52324002972E+03  0.56303056128E+03  0.94165666123E+02 0.  0.
          2    1    3    3  502    0 -0.34223173805E+03  0.48085041099E+02  0.97862129283E+03  0.10378508412E+04  0.00000000000E+00 0. -1.
         -1    1    3    3    0  502 -0.40188256884E+03 -0.19865062955E+02  0.12575878052E+04  0.13203905890E+04  0.00000000000E+00 0.  1.
         11    1    5    5    0    0  0.36537896784E+03 -0.11244410780E+03  0.15577619713E+03  0.41280950947E+03  0.00000000000E+00 0. -1.
        -11    1    5    5    0    0  0.20640109224E+03  0.15981775259E+02  0.67271039059E+02  0.21767457526E+03  0.00000000000E+00 0.  1.
          4    1    6    6  503    0  0.40203680624E+02  0.58775761516E+02 -0.13215635686E+03  0.15012071388E+03  0.00000000000E+00 0. -1.
         -4    1    6    6    0  503  0.13213056617E+03  0.94665928787E+01 -0.39108367287E+03  0.41290984740E+03  0.00000000000E+00 0.  1.
<mgrwt>
<rscale>  0 0.29777193E+04</rscale>
<asrwt>0</asrwt>
<pdfrwt beam="1">  1        2 0.42213633E+00 0.29777193E+04</pdfrwt>
<pdfrwt beam="2">  1       -1 0.12428768E+00 0.29777193E+04</pdfrwt>
<totfact> 0.13822984E+00</totfact>
</mgrwt>
</event>
<event>
12    6  0.1663299E-008  0.1259847E+04  0.7818608E-02  0.9062027E-01
          2   -1    0    0  501    0  0.00000000000E+00  0.00000000000E+00  0.75900573799E+03  0.75900573799E+03  0.00000000000E+00 0. -1.
         -1   -1    0    0    0  501 -0.00000000000E+00 -0.00000000000E+00 -0.52279428703E+03  0.52279428703E+03  0.00000000000E+00 0.  1.
         24    2    1    2    0    0 -0.13639152277E+03 -0.26855085356E+03  0.78307846467E+02  0.32091135424E+03  0.78292847856E+02 0.  0.
        254    2    1    2    0    0  0.13639152277E+03  0.26855085356E+03  0.15790360449E+03  0.96088867079E+03  0.89869420879E+03 0.  0.
         23    2    4    4    0    0  0.37367665646E+03  0.27468773011E+03  0.38919379557E+03  0.61734994333E+03  0.12067124498E+03 0.  0.
         23    2    4    4    0    0 -0.23728513369E+03 -0.61368765447E+01 -0.23129019108E+03  0.34353872746E+03  0.90453351799E+02 0.  0.
          2    1    3    3  502    0 -0.85349497606E+02 -0.23221124919E+03  0.73421032732E+02  0.25806442808E+03  0.00000000000E+00 0. -1.
         -1    1    3    3    0  502 -0.51042025166E+02 -0.36339604377E+02  0.48868137344E+01  0.62846926160E+02  0.00000000000E+00 0.  1.
         11    1    5    5    0    0  0.22252614071E+03  0.20209492190E+03  0.18433840739E+03  0.35262003516E+03  0.00000000000E+00 0. -1.
        -11    1    5    5    0    0  0.15115051575E+03  0.72592808211E+02  0.20485538817E+03  0.26472990817E+03  0.00000000000E+00 0.  1.
          3    1    6    6  503    0 -0.11373862752E+03 -0.61773799131E+01 -0.17250759377E+03  0.20672083911E+03  0.00000000000E+00 0. -1.
         -3    1    6    6    0  503 -0.12354650617E+03  0.40503368387E-01 -0.58782597309E+02  0.13681788835E+03  0.00000000000E+00 0.  1.
<mgrwt>
<rscale>  0 0.12598474E+04</rscale>
<asrwt>0</asrwt>
<pdfrwt beam="1">  1        2 0.11677011E+00 0.12598474E+04</pdfrwt>
<pdfrwt beam="2">  1       -1 0.80429890E-01 0.12598474E+04</pdfrwt>
<totfact> 0.63930684E+01</totfact>
</mgrwt>
</event>
<event>
11    6  0.1663299E-008  0.1265910E+04  0.7818608E-02  0.9057044E-01
          2   -1    0    0  501    0  0.00000000000E+00  0.00000000000E+00  0.20126773689E+04  0.20126773689E+04  0.00000000000E+00 0. -1.
         -1   -1    0    0    0  501 -0.00000000000E+00 -0.00000000000E+00 -0.19905431500E+03  0.19905431500E+03  0.00000000000E+00 0.  1.
         24    2    1    2    0    0  0.23065870797E+03  0.99661058659E+02  0.78449356352E+03  0.82750050223E+03  0.78683948931E+02 0.  0.
        254    2    1    2    0    0 -0.23065870797E+03 -0.99661058659E+02  0.10291294904E+04  0.13842311817E+04  0.89098411329E+03 0.  0.
         23    2    4    4    0    0 -0.28264277932E+03  0.33382221347E+03  0.55092352410E+03  0.71016571159E+03  0.97439199523E+02 0.  0.
          4    1    3    3  502    0  0.21550614001E+03  0.64406407834E+02  0.67140696622E+03  0.70808078356E+03  0.00000000000E+00 0. -1.
         -3    1    3    3    0  502  0.15152567961E+02  0.35254650825E+02  0.11308659729E+03  0.11941971867E+03  0.00000000000E+00 0.  1.
         11    1    4    4    0    0  0.17888574829E+02 -0.14284272945E+02 -0.13850388937E+02  0.26755837431E+02  0.00000000000E+00 0. -1.
        -11    1    4    4    0    0  0.34095496519E+02 -0.41919899918E+03  0.49205635521E+03  0.64730963263E+03  0.00000000000E+00 0.  1.
          2    1    5    5  503    0  0.11059125416E+01  0.40495719443E+01 -0.34769007083E+01  0.54507718735E+01  0.00000000000E+00 0. -1.
         -2    1    5    5    0  503 -0.28374869186E+03  0.32977264152E+03  0.55440042481E+03  0.70471493971E+03  0.00000000000E+00 0.  1.
<mgrwt>
<rscale>  0 0.12659101E+04</rscale>
<asrwt>0</asrwt>
<pdfrwt beam="1">  1        2 0.30964266E+00 0.12659101E+04</pdfrwt>
<pdfrwt beam="2">  1       -1 0.30623742E-01 0.12659101E+04</pdfrwt>
<totfact> 0.72473937E+01</totfact>
</mgrwt>
</event>
<event>
11    6  0.1663299E-008  0.1294279E+04  0.7818608E-02  0.9034114E-01
          2   -1    0    0  501    0  0.00000000000E+00  0.00000000000E+00  0.22554064641E+03  0.22554064641E+03  0.00000000000E+00 0. -1.
         -1   -1    0    0    0  501 -0.00000000000E+00 -0.00000000000E+00 -0.18568250489E+04  0.18568250489E+04  0.00000000000E+00 0.  1.
         24    2    1    2    0    0 -0.18176206969E+03  0.69079357259E+02 -0.57825041209E+02  0.21791605319E+03  0.79588084982E+02 0.  0.
        254    2    1    2    0    0  0.18176206969E+03 -0.69079357259E+02 -0.15734593612E+04  0.18644496421E+04  0.98111604756E+03 0.  0.
         23    2    4    4    0    0  0.48114275022E+03 -0.99161168685E+01 -0.48457470567E+03  0.68893189016E+03  0.90652238985E+02 0.  0.
          2    1    3    3  502    0 -0.15822851477E+03  0.43574209765E+02 -0.18016851103E+02  0.16510475937E+03  0.00000000000E+00 0. -1.
         -1    1    3    3    0  502 -0.23533554922E+02  0.25505147494E+02 -0.39808190106E+02  0.52811293825E+02  0.00000000000E+00 0.  1.
         11    1    4    4    0    0 -0.30001030914E+03 -0.10398008486E+03 -0.10850260963E+04  0.11305307042E+04  0.00000000000E+00 0. -1.
        -11    1    4    4    0    0  0.62962860988E+00  0.44816844464E+02 -0.38585593061E+01  0.44987047690E+02  0.00000000000E+00 0.  1.
          3    1    5    5  503    0  0.23859056917E+03 -0.38946022684E+02 -0.19890994699E+03  0.31306136681E+03  0.00000000000E+00 0. -1.
         -3    1    5    5    0  503  0.24255218105E+03  0.29029905816E+02 -0.28566475868E+03  0.37587052334E+03  0.00000000000E+00 0.  1.
<mgrwt>
<rscale>  0 0.12942790E+04</rscale>
<asrwt>0</asrwt>
<pdfrwt beam="1">  1        2 0.34698562E-01 0.12942790E+04</pdfrwt>
<pdfrwt beam="2">  1       -1 0.28566538E+00 0.12942790E+04</pdfrwt>
<totfact> 0.69743820E+00</totfact>
</mgrwt>
</event>
<event>
11    6  0.1663299E-008  0.1406775E+04  0.7818608E-02  0.8948929E-01
         -1   -1    0    0    0  501 -0.00000000000E+00  0.00000000000E+00  0.18170454844E+04  0.18170454844E+04  0.00000000000E+00 0.  1.
          2   -1    0    0  501    0  0.00000000000E+00 -0.00000000000E+00 -0.27228467136E+03  0.27228467136E+03  0.00000000000E+00 0. -1.
         24    2    1    2    0    0  0.14597501382E+03 -0.13862272568E+03  0.10002261053E+04  0.10236103014E+04  0.82467100298E+02 0.  0.
        254    2    1    2    0    0 -0.14597501382E+03  0.13862272568E+03  0.54453470776E+03  0.10657198544E+04  0.89370901045E+03 0.  0.
         23    2    4    4    0    0  0.28100821409E+03  0.30683445302E+03  0.31549312880E+03  0.53063670342E+03  0.94479620831E+02 0.  0.
          2    1    3    3  502    0 -0.29657665250E+01 -0.96878834275E+01  0.17122138228E+03  0.17152088096E+03  0.00000000000E+00 0. -1.
         -1    1    3    3    0  502  0.14894078035E+03 -0.12893484226E+03  0.82900472305E+03  0.85208942045E+03  0.00000000000E+00 0.  1.
         11    1    4    4    0    0 -0.76136985509E+02 -0.56651299373E+02 -0.11073132530E+02  0.95544882370E+02  0.00000000000E+00 0.  1.
        -11    1    4    4    0    0 -0.35084624240E+03 -0.11156042796E+03  0.24011471149E+03  0.43953826860E+03  0.00000000000E+00 0. -1.
          4    1    5    5  503    0  0.93278711134E+02  0.53763501260E+02  0.50483382605E+02  0.11891174853E+03  0.00000000000E+00 0. -1.
         -4    1    5    5    0  503  0.18772950295E+03  0.25307095176E+03  0.26500974619E+03  0.41172495489E+03  0.00000000000E+00 0.  1.
<mgrwt>
<rscale>  0 0.14067745E+04</rscale>
<asrwt>0</asrwt>
<pdfrwt beam="1">  1        2 0.41889951E-01 0.14067745E+04</pdfrwt>
<pdfrwt beam="2">  1       -1 0.27954545E+00 0.14067745E+04</pdfrwt>
<totfact> 0.61237694E+00</totfact>
</mgrwt>
</event>
<event>
11    6  0.1663299E-008  0.2305139E+04  0.7818608E-02  0.8475898E-01
         -1   -1    0    0    0  501 -0.00000000000E+00  0.00000000000E+00  0.85449295407E+03  0.85449295407E+03  0.00000000000E+00 0.  1.
          2   -1    0    0  501    0  0.00000000000E+00 -0.00000000000E+00 -0.15546258309E+04  0.15546258309E+04  0.00000000000E+00 0. -1.
         24    2    1    2    0    0 -0.70191249579E+03  0.11321981286E+03  0.38999103416E+03  0.81490366683E+03  0.80468016731E+02 0.  0.
        254    2    1    2    0    0  0.70191249579E+03 -0.11321981286E+03 -0.10901239110E+04  0.15942151182E+04  0.92068008769E+03 0.  0.
         23    2    4    4    0    0  0.60056897883E+03 -0.35460516750E+03 -0.32772441768E+03  0.77606948503E+03  0.91938177584E+02 0.  0.
          4    1    3    3  502    0 -0.53631154115E+02 -0.19761229348E+00  0.87901923085E+01  0.54347099492E+02  0.00000000000E+00 0. -1.
         -3    1    3    3    0  502 -0.64828134167E+03  0.11341742516E+03  0.38120084185E+03  0.76055656734E+03  0.00000000000E+00 0.  1.
         11    1    4    4    0    0  0.80915536890E+02  0.81680695063E+02 -0.17744367945E+03  0.21143632477E+03  0.00000000000E+00 0.  1.
        -11    1    4    4    0    0  0.20427980069E+02  0.15970465957E+03 -0.58495581389E+03  0.60670930837E+03  0.00000000000E+00 0. -1.
          1    1    5    5  503    0  0.47684823793E+03 -0.24245137349E+03 -0.22749146327E+03  0.58130824559E+03  0.00000000000E+00 0. -1.
         -1    1    5    5    0  503  0.12372074090E+03 -0.11215379401E+03 -0.10023295441E+03  0.19476123944E+03  0.00000000000E+00 0.  1.
<mgrwt>
<rscale>  0 0.23051393E+04</rscale>
<asrwt>0</asrwt>
<pdfrwt beam="1">  1        2 0.23917321E+00 0.23051393E+04</pdfrwt>
<pdfrwt beam="2">  1       -1 0.13146045E+00 0.23051393E+04</pdfrwt>
<totfact> 0.60174955E+00</totfact>
</mgrwt>
</event>
<event>
12    6  0.1663299E-008  0.1477395E+04  0.7818608E-02  0.8899626E-01
         -1   -1    0    0    0  501 -0.00000000000E+00  0.00000000000E+00  0.43446843110E+03  0.43446843110E+03  0.00000000000E+00 0.  1.
          2   -1    0    0  501    0  0.00000000000E+00 -0.00000000000E+00 -0.12559571827E+04  0.12559571827E+04  0.00000000000E+00 0. -1.
         24    2    1    2    0    0 -0.38507697425E+03  0.10363633361E+03 -0.51334847390E+03  0.65546231557E+03  0.84139323290E+02 0.  0.
        254    2    1    2    0    0  0.38507697425E+03 -0.10363633361E+03 -0.30814027771E+03  0.10349632983E+04  0.90397667683E+03 0.  0.
         23    2    4    4    0    0  0.31132163843E+03  0.34307099723E+03  0.21060463236E+02  0.46790153889E+03  0.62204785086E+02 0.  0.
         23    2    4    4    0    0  0.73755335819E+02 -0.44670733085E+03 -0.32920074095E+03  0.56706175937E+03  0.90546242913E+02 0.  0.
          4    1    3    3  502    0 -0.21882852963E+03  0.15514634786E+02 -0.27297412605E+03  0.35020208846E+03  0.00000000000E+00 0. -1.
         -3    1    3    3    0  502 -0.16624844462E+03  0.88121698828E+02 -0.24037434786E+03  0.30526022710E+03  0.00000000000E+00 0.  1.
         11    1    5    5    0    0  0.16046230866E+03  0.21252353935E+03 -0.72753884847E+01  0.26639695673E+03  0.00000000000E+00 0.  1.
        -11    1    5    5    0    0  0.15085932977E+03  0.13054745788E+03  0.28335851720E+02  0.20150458216E+03  0.00000000000E+00 0. -1.
          1    1    6    6  503    0 -0.10728901757E+01 -0.73902125185E+02 -0.95443089687E+02  0.12071478190E+03  0.00000000000E+00 0. -1.
         -1    1    6    6    0  503  0.74828225994E+02 -0.37280520566E+03 -0.23375765126E+03  0.44634697747E+03  0.00000000000E+00 0.  1.
<mgrwt>
<rscale>  0 0.14773947E+04</rscale>
<asrwt>0</asrwt>
<pdfrwt beam="1">  1        2 0.19322418E+00 0.14773947E+04</pdfrwt>
<pdfrwt beam="2">  1       -1 0.66841297E-01 0.14773947E+04</pdfrwt>
<totfact> 0.43899955E+01</totfact>
</mgrwt>
</event>
<event>
12    6  0.1663299E-008  0.2014341E+04  0.7818608E-02  0.8599945E-01
          2   -1    0    0  501    0  0.00000000000E+00  0.00000000000E+00  0.18161297288E+04  0.18161297288E+04  0.00000000000E+00 0. -1.
         -1   -1    0    0    0  501 -0.00000000000E+00 -0.00000000000E+00 -0.55854644675E+03  0.55854644675E+03  0.00000000000E+00 0.  1.
         24    2    1    2    0    0 -0.47058820642E+03  0.24498260154E+03 -0.21625841885E+03  0.57895445752E+03  0.83371608386E+02 0.  0.
        254    2    1    2    0    0  0.47058820642E+03 -0.24498260154E+03  0.14738417009E+04  0.17957217180E+04  0.87803040621E+03 0.  0.
         23    2    4    4    0    0 -0.56848924262E+01  0.13232615418E+03 -0.14423037823E+02  0.18502859281E+03  0.12839403045E+03 0.  0.
         23    2    4    4    0    0  0.47627309885E+03 -0.37730875572E+03  0.14882647387E+04  0.16106931252E+04  0.10100717448E+03 0.  0.
          2    1    3    3  502    0 -0.23538871935E+03  0.11898846245E+03 -0.15232847745E+03  0.30458179269E+03  0.00000000000E+00 0. -1.
         -1    1    3    3    0  502 -0.23519948707E+03  0.12599413909E+03 -0.63929941399E+02  0.27437266483E+03  0.00000000000E+00 0.  1.
         11    1    5    5    0    0 -0.29901951346E+02  0.17191425684E+02  0.42163359686E+02  0.54474037039E+02  0.00000000000E+00 0. -1.
        -11    1    5    5    0    0  0.24217058919E+02  0.11513472850E+03 -0.56586397509E+02  0.13055455577E+03  0.00000000000E+00 0.  1.
          3    1    6    6  503    0 -0.29448008816E+01 -0.13144855732E+02  0.23460110501E+02  0.27052465122E+02  0.00000000000E+00 0. -1.
         -3    1    6    6    0  503  0.47921789973E+03 -0.36416389999E+03  0.14648046282E+04  0.15836406601E+04  0.00000000000E+00 0.  1.
<mgrwt>
<rscale>  0 0.20143414E+04</rscale>
<asrwt>0</asrwt>
<pdfrwt beam="1">  1        2 0.27940457E+00 0.20143414E+04</pdfrwt>
<pdfrwt beam="2">  1       -1 0.85930223E-01 0.20143414E+04</pdfrwt>
<totfact> 0.11942358E+01</totfact>
</mgrwt>
</event>
<event>
12    6  0.1663299E-008  0.1729770E+04  0.7818608E-02  0.8744565E-01
          2   -1    0    0  501    0  0.00000000000E+00  0.00000000000E+00  0.31744253930E+04  0.31744253930E+04  0.00000000000E+00 0. -1.
         -3   -1    0    0    0  501 -0.00000000000E+00 -0.00000000000E+00 -0.23564147089E+03  0.23564147089E+03  0.00000000000E+00 0.  1.
         24    2    1    2    0    0 -0.56009275191E+03 -0.13233238598E+03  0.59953580584E+03  0.83567998797E+03  0.87761658474E+02 0.  0.
        254    2    1    2    0    0  0.56009275191E+03  0.13233238598E+03  0.23392481162E+04  0.25743868759E+04  0.90783824898E+03 0.  0.
         23    2    4    4    0    0  0.44526854972E+02  0.72017238880E+02  0.18486556326E+04  0.18542274079E+04  0.11602805065E+03 0.  0.
         23    2    4    4    0    0  0.51556589693E+03  0.60315147101E+02  0.49059248360E+03  0.72015946801E+03  0.92209345228E+02 0.  0.
          2    1    3    3  502    0 -0.14799121408E+03 -0.63112202492E+02  0.20870683606E+03  0.26352057408E+03  0.00000000000E+00 0. -1.
         -1    1    3    3    0  502 -0.41210153783E+03 -0.69220183489E+02  0.39082896978E+03  0.57215941389E+03  0.00000000000E+00 0.  1.
         11    1    5    5    0    0  0.84231106548E+02  0.46698174531E+02  0.11905190613E+04  0.11944083197E+04  0.00000000000E+00 0. -1.
        -11    1    5    5    0    0 -0.39704251576E+02  0.25319064349E+02  0.65813657132E+03  0.65981908818E+03  0.00000000000E+00 0.  1.
          1    1    6    6  503    0  0.14706948848E+03 -0.13484217434E+02  0.10146607481E+03  0.17918321043E+03  0.00000000000E+00 0. -1.
         -1    1    6    6    0  503  0.36849640845E+03  0.73799364534E+02  0.38912640879E+03  0.54097625758E+03  0.00000000000E+00 0.  1.
<mgrwt>
<rscale>  0 0.17297702E+04</rscale>
<asrwt>0</asrwt>
<pdfrwt beam="1">  1        2 0.48837311E+00 0.17297702E+04</pdfrwt>
<pdfrwt beam="2">  1       -3 0.36252536E-01 0.17297702E+04</pdfrwt>
<totfact> 0.62910643E+00</totfact>
</mgrwt>
</event>
<event>
12    6  0.1663299E-008  0.1736568E+04  0.7818608E-02  0.8740779E-01
          2   -1    0    0  501    0  0.00000000000E+00  0.00000000000E+00  0.18878361015E+04  0.18878361015E+04  0.00000000000E+00 0. -1.
         -1   -1    0    0    0  501 -0.00000000000E+00 -0.00000000000E+00 -0.39935519040E+03  0.39935519040E+03  0.00000000000E+00 0.  1.
         24    2    1    2    0    0 -0.21697676689E+03 -0.52861646856E+03  0.89898786084E+03  0.10682963552E+04  0.81016297683E+02 0.  0.
        254    2    1    2    0    0  0.21697676689E+03  0.52861646856E+03  0.58949305022E+03  0.12188949366E+04  0.90093757945E+03 0.  0.
         23    2    4    4    0    0 -0.28249982967E+03 -0.40227704421E+02  0.80717775294E+02  0.30219105651E+03  0.58134786652E+02 0.  0.
         23    2    4    4    0    0  0.49947659656E+03  0.56884417298E+03  0.50877527493E+03  0.91670388012E+03  0.91832237264E+02 0.  0.
          2    1    3    3  502    0 -0.10684576855E+03 -0.34809515817E+03  0.60570155437E+03  0.70672528635E+03  0.00000000000E+00 0. -1.
         -1    1    3    3    0  502 -0.11013099834E+03 -0.18052131038E+03  0.29328630647E+03  0.36157106889E+03  0.00000000000E+00 0.  1.
         11    1    5    5    0    0 -0.13553706112E+03 -0.42468449430E+02  0.58200203747E+02  0.15349634474E+03  0.00000000000E+00 0. -1.
        -11    1    5    5    0    0 -0.14696276855E+03  0.22407450091E+01  0.22517571547E+02  0.14869471176E+03  0.00000000000E+00 0.  1.
          3    1    6    6  503    0  0.34333741757E+03  0.45041980010E+03  0.36800611539E+03  0.67541622692E+03  0.00000000000E+00 0. -1.
         -3    1    6    6    0  503  0.15613917899E+03  0.11842437288E+03  0.14076915954E+03  0.24128765320E+03  0.00000000000E+00 0.  1.
<mgrwt>
<rscale>  0 0.17365680E+04</rscale>
<asrwt>0</asrwt>
<pdfrwt beam="1">  1        2 0.29043632E+00 0.17365680E+04</pdfrwt>
<pdfrwt beam="2">  1       -1 0.61439261E-01 0.17365680E+04</pdfrwt>
<totfact> 0.22394221E+01</totfact>
</mgrwt>
</event>
<event>
12    6  0.1663299E-008  0.1461797E+04  0.7818608E-02  0.8910263E-01
          2   -1    0    0  501    0  0.00000000000E+00  0.00000000000E+00  0.75229268397E+03  0.75229268397E+03  0.00000000000E+00 0. -1.
         -1   -1    0    0    0  501 -0.00000000000E+00 -0.00000000000E+00 -0.71011233406E+03  0.71011233406E+03  0.00000000000E+00 0.  1.
         24    2    1    2    0    0  0.18835612889E+03  0.25422114131E+03 -0.31945542332E+03  0.45665874566E+03  0.79868783143E+02 0.  0.
        254    2    1    2    0    0 -0.18835612889E+03 -0.25422114131E+03  0.36163577322E+03  0.10057462724E+04  0.88353761207E+03 0.  0.
         23    2    4    4    0    0 -0.31915028285E+03  0.19051329617E+03 -0.46147957344E+02  0.38150888344E+03  0.72575306525E+02 0.  0.
         23    2    4    4    0    0  0.13079415395E+03 -0.44473443748E+03  0.40778373057E+03  0.62423738893E+03  0.92135314820E+02 0.  0.
          4    1    3    3  502    0 -0.26816067822E+01  0.28061346769E+02 -0.14735325431E+02  0.31808175254E+02  0.00000000000E+00 0. -1.
         -3    1    3    3    0  502  0.19103773567E+03  0.22615979454E+03 -0.30472009789E+03  0.42485057040E+03  0.00000000000E+00 0.  1.
         11    1    5    5    0    0 -0.33321355545E+02 -0.26822008874E+01  0.77302404171E-01  0.33429222435E+02  0.00000000000E+00 0.  1.
        -11    1    5    5    0    0 -0.28582892730E+03  0.19319549706E+03 -0.46225259748E+02  0.34807966101E+03  0.00000000000E+00 0. -1.
          3    1    6    6  503    0  0.31616846772E+02 -0.26098225728E+03  0.20766111395E+03  0.33501418158E+03  0.00000000000E+00 0. -1.
         -3    1    6    6    0  503  0.99177307183E+02 -0.18375218020E+03  0.20012261662E+03  0.28922320735E+03  0.00000000000E+00 0.  1.
<mgrwt>
<rscale>  0 0.14617966E+04</rscale>
<asrwt>0</asrwt>
<pdfrwt beam="1">  1        2 0.11573734E+00 0.14617966E+04</pdfrwt>
<pdfrwt beam="2">  1       -1 0.10924805E+00 0.14617966E+04</pdfrwt>
<totfact> 0.32068648E+01</totfact>
</mgrwt>
</event>
<event>
12    6  0.1663299E-008  0.1733697E+04  0.7818608E-02  0.8742376E-01
         -1   -1    0    0    0  501 -0.00000000000E+00  0.00000000000E+00  0.25578325876E+03  0.25578325876E+03  0.00000000000E+00 0.  1.
          2   -1    0    0  501    0  0.00000000000E+00 -0.00000000000E+00 -0.29377455997E+04  0.29377455997E+04  0.00000000000E+00 0. -1.
         24    2    1    2    0    0 -0.14722934914E+03 -0.61163589552E+03 -0.91352173341E+03  0.11123057762E+04  0.83229996807E+02 0.  0.
        254    2    1    2    0    0  0.14722934914E+03  0.61163589552E+03 -0.17684406075E+04  0.20812230823E+04  0.89907307039E+03 0.  0.
         23    2    4    4    0    0  0.49924378228E+03  0.48656133063E+03 -0.98642181562E+03  0.12101467110E+04  0.73761650993E+02 0.  0.
         23    2    4    4    0    0 -0.35201443314E+03  0.12507456489E+03 -0.78201879189E+03  0.87107637128E+03  0.87537682238E+02 0.  0.
          4    1    3    3  502    0 -0.14491081090E+03 -0.60985066611E+03 -0.91492874831E+03  0.11090588770E+04  0.00000000000E+00 0. -1.
         -3    1    3    3    0  502 -0.23185382417E+01 -0.17852294156E+01  0.14070149003E+01  0.32468992246E+01  0.00000000000E+00 0.  1.
         11    1    5    5    0    0  0.48065510459E+03  0.46640642583E+03 -0.96801671973E+03  0.11771238904E+04  0.00000000000E+00 0. -1.
        -11    1    5    5    0    0  0.18588677685E+02  0.20154904799E+02 -0.18405095884E+02  0.33022820595E+02  0.00000000000E+00 0.  1.
          2    1    6    6  503    0 -0.29208728522E+03  0.78737985236E+02 -0.67771241812E+03  0.74216492384E+03  0.00000000000E+00 0. -1.
         -2    1    6    6    0  503 -0.59927147916E+02  0.46336579652E+02 -0.10430637377E+03  0.12891144744E+03  0.00000000000E+00 0.  1.
<mgrwt>
<rscale>  0 0.17336968E+04</rscale>
<asrwt>0</asrwt>
<pdfrwt beam="1">  1        2 0.45196089E+00 0.17336968E+04</pdfrwt>
<pdfrwt beam="2">  1       -1 0.39351268E-01 0.17336968E+04</pdfrwt>
<totfact> 0.12964172E+01</totfact>
</mgrwt>
</event>
<event>
12    6  0.1663299E-008  0.1963917E+04  0.7818608E-02  0.8623679E-01
         -1   -1    0    0    0  501 -0.00000000000E+00  0.00000000000E+00  0.43040711410E+03  0.43040711410E+03  0.00000000000E+00 0.  1.
          2   -1    0    0  501    0  0.00000000000E+00 -0.00000000000E+00 -0.22403032368E+04  0.22403032368E+04  0.00000000000E+00 0. -1.
         24    2    1    2    0    0 -0.13105801713E+03  0.45277470250E+03  0.11592176182E+03  0.49546506434E+03  0.99330962116E+02 0.  0.
        254    2    1    2    0    0  0.13105801713E+03 -0.45277470250E+03 -0.19258178846E+04  0.21752452866E+04  0.89483875493E+03 0.  0.
         23    2    4    4    0    0  0.10068011343E+03 -0.44903150317E+03 -0.19982281062E+04  0.20532730087E+04  0.10605992662E+03 0.  0.
         23    2    4    4    0    0  0.30377903707E+02 -0.37431993334E+01  0.72410221608E+02  0.12197227787E+03  0.93258607113E+02 0.  0.
          2    1    3    3  502    0 -0.11564878043E+03  0.22803231699E+03  0.75507643049E+02  0.26659854119E+03  0.00000000000E+00 0. -1.
         -1    1    3    3    0  502 -0.15409236705E+02  0.22474238551E+03  0.40414118771E+02  0.22886652314E+03  0.00000000000E+00 0.  1.
         11    1    5    5    0    0  0.75820903878E+02 -0.25288632286E+03 -0.13496173457E+04  0.13751971791E+04  0.00000000000E+00 0. -1.
        -11    1    5    5    0    0  0.24859209548E+02 -0.19614518031E+03 -0.64861076049E+03  0.67807582960E+03  0.00000000000E+00 0.  1.
          4    1    6    6  503    0 -0.19628691838E+02 -0.34321481410E+02  0.29290477096E+02  0.49205504550E+02  0.00000000000E+00 0. -1.
         -4    1    6    6    0  503  0.50006595545E+02  0.30578282077E+02  0.43119744511E+02  0.72766773320E+02  0.00000000000E+00 0.  1.
<mgrwt>
<rscale>  0 0.19639170E+04</rscale>
<asrwt>0</asrwt>
<pdfrwt beam="1">  1        2 0.34466204E+00 0.19639170E+04</pdfrwt>
<pdfrwt beam="2">  1       -1 0.66216478E-01 0.19639170E+04</pdfrwt>
<totfact> 0.12016756E+01</totfact>
</mgrwt>
</event>
<event>
12    6  0.1663299E-008  0.2353146E+04  0.7818608E-02  0.8457256E-01
          2   -1    0    0  501    0  0.00000000000E+00  0.00000000000E+00  0.11520181612E+04  0.11520181612E+04  0.00000000000E+00 0. -1.
         -1   -1    0    0    0  501 -0.00000000000E+00 -0.00000000000E+00 -0.12016513113E+04  0.12016513113E+04  0.00000000000E+00 0.  1.
         24    2    1    2    0    0 -0.30242318522E+02  0.77859862489E+03 -0.69603173033E+03  0.10479047131E+04  0.80707506966E+02 0.  0.
        254    2    1    2    0    0  0.30242318522E+02 -0.77859862489E+03  0.64639858025E+03  0.13057647593E+04  0.82465754441E+03 0.  0.
         23    2    4    4    0    0  0.37241843652E+03 -0.27014469303E+03  0.47002219271E+03  0.66153207117E+03  0.70923709124E+02 0.  0.
         23    2    4    4    0    0 -0.34217611799E+03 -0.50845393187E+03  0.17637638754E+03  0.64423268813E+03  0.91198847685E+02 0.  0.
          4    1    3    3  502    0 -0.33102784346E+02  0.17178634724E+03 -0.18436572986E+03  0.25415952820E+03  0.00000000000E+00 0. -1.
         -3    1    3    3    0  502  0.28604658243E+01  0.60681227765E+03 -0.51166600048E+03  0.79374518494E+03  0.00000000000E+00 0.  1.
         11    1    5    5    0    0  0.88776031262E+02 -0.99148751073E+02  0.11350949994E+03  0.17491730944E+03  0.00000000000E+00 0. -1.
        -11    1    5    5    0    0  0.28364240525E+03 -0.17099594195E+03  0.35651269277E+03  0.48661476172E+03  0.00000000000E+00 0.  1.
          2    1    6    6  503    0 -0.35700143912E+02 -0.31639415582E+02  0.37432247033E+02  0.60636012498E+02  0.00000000000E+00 0. -1.
         -2    1    6    6    0  503 -0.30647597408E+03 -0.47681451628E+03  0.13894414051E+03  0.58359667563E+03  0.00000000000E+00 0.  1.
<mgrwt>
<rscale>  0 0.23531461E+04</rscale>
<asrwt>0</asrwt>
<pdfrwt beam="1">  1        2 0.17723356E+00 0.23531461E+04</pdfrwt>
<pdfrwt beam="2">  1       -1 0.18486943E+00 0.23531461E+04</pdfrwt>
<totfact> 0.40016173E+00</totfact>
</mgrwt>
</event>
<event>
11    6  0.1663299E-008  0.2311631E+04  0.7818608E-02  0.8473349E-01
          2   -1    0    0  501    0  0.00000000000E+00  0.00000000000E+00  0.22788752927E+04  0.22788752927E+04  0.00000000000E+00 0. -1.
         -1   -1    0    0    0  501 -0.00000000000E+00 -0.00000000000E+00 -0.58621419042E+03  0.58621419042E+03  0.00000000000E+00 0.  1.
         24    2    1    2    0    0  0.49267689367E+03 -0.21866727397E+02  0.17681120660E+04  0.18373149304E+04  0.79354900240E+02 0.  0.
        254    2    1    2    0    0 -0.49267689367E+03  0.21866727397E+02 -0.75450963721E+02  0.10277745527E+04  0.89856497147E+03 0.  0.
         23    2    4    4    0    0  0.40094693357E+02  0.28923650599E+03 -0.74263881455E+02  0.31474701888E+03  0.91023189188E+02 0.  0.
          2    1    3    3  502    0  0.45859289241E+03 -0.30774253933E+02  0.16941525547E+04  0.17553937947E+04  0.00000000000E+00 0. -1.
         -1    1    3    3    0  502  0.34084001264E+02  0.89075265367E+01  0.73959511290E+02  0.81921135743E+02  0.00000000000E+00 0.  1.
         11    1    4    4    0    0 -0.54251564657E+03 -0.30438191231E+03 -0.78260899011E+02  0.62697395770E+03  0.00000000000E+00 0. -1.
        -11    1    4    4    0    0  0.97440595430E+01  0.37012133719E+02  0.77073816746E+02  0.86053576141E+02  0.00000000000E+00 0.  1.
          2    1    5    5  503    0  0.42548019161E+02  0.29376642239E+03 -0.79610779075E+02  0.30732217786E+03  0.00000000000E+00 0. -1.
         -2    1    5    5    0  503 -0.24533258039E+01 -0.45299163959E+01  0.53468976195E+01  0.74248410224E+01  0.00000000000E+00 0.  1.
<mgrwt>
<rscale>  0 0.23116306E+04</rscale>
<asrwt>0</asrwt>
<pdfrwt beam="1">  1        2 0.35059619E+00 0.23116306E+04</pdfrwt>
<pdfrwt beam="2">  1       -1 0.90186800E-01 0.23116306E+04</pdfrwt>
<totfact> 0.57745792E+00</totfact>
</mgrwt>
</event>
<event>
11    6  0.1663299E-008  0.1777815E+04  0.7818608E-02  0.8718187E-01
          2   -1    0    0  501    0  0.00000000000E+00  0.00000000000E+00  0.56599121044E+03  0.56599121044E+03  0.00000000000E+00 0. -1.
         -1   -1    0    0    0  501 -0.00000000000E+00 -0.00000000000E+00 -0.13960579293E+04  0.13960579293E+04  0.00000000000E+00 0.  1.
         24    2    1    2    0    0 -0.39924907872E+03  0.23441336443E+03  0.19802383690E+03  0.51463123467E+03  0.10621871510E+03 0.  0.
        254    2    1    2    0    0  0.39924907872E+03 -0.23441336443E+03 -0.10280905558E+04  0.14474179051E+04  0.90757861853E+03 0.  0.
         23    2    4    4    0    0  0.18901822417E+03 -0.51359451338E+03 -0.37734809924E+03  0.67099745290E+03  0.91316923719E+02 0.  0.
          4    1    3    3  502    0 -0.81385137981E+02  0.95039369383E+02  0.77711803728E+02  0.14729272506E+03  0.00000000000E+00 0. -1.
         -3    1    3    3    0  502 -0.31786394074E+03  0.13937399505E+03  0.12031203317E+03  0.36733850961E+03  0.00000000000E+00 0.  1.
         11    1    4    4    0    0  0.51123542096E+01  0.55270801400E+02 -0.33038575056E+03  0.33501603219E+03  0.00000000000E+00 0. -1.
        -11    1    4    4    0    0  0.20511850034E+03  0.22391034755E+03 -0.32035670602E+03  0.44140442002E+03  0.00000000000E+00 0.  1.
          1    1    5    5  503    0  0.35290013311E+02 -0.17758470375E+03 -0.16418221656E+03  0.24441258617E+03  0.00000000000E+00 0. -1.
         -1    1    5    5    0  503  0.15372821086E+03 -0.33600980964E+03 -0.21316588267E+03  0.42658486673E+03  0.00000000000E+00 0.  1.
<mgrwt>
<rscale>  0 0.17778150E+04</rscale>
<asrwt>0</asrwt>
<pdfrwt beam="1">  1        2 0.87075572E-01 0.17778150E+04</pdfrwt>
<pdfrwt beam="2">  1       -1 0.21477814E+00 0.17778150E+04</pdfrwt>
<totfact> 0.68582692E+00</totfact>
</mgrwt>
</event>
<event>
12    6  0.1663299E-008  0.2068537E+04  0.7818608E-02  0.8575231E-01
          2   -1    0    0  501    0  0.00000000000E+00  0.00000000000E+00  0.14124435683E+04  0.14124435683E+04  0.00000000000E+00 0. -1.
         -1   -1    0    0    0  501 -0.00000000000E+00 -0.00000000000E+00 -0.75734797186E+03  0.75734797186E+03  0.00000000000E+00 0.  1.
         24    2    1    2    0    0 -0.34497700560E+03 -0.10142418575E+03  0.10590638856E+04  0.11212835607E+04  0.79777877555E+02 0.  0.
        254    2    1    2    0    0  0.34497700560E+03  0.10142418575E+03 -0.40396828916E+03  0.10485079795E+04  0.89826644410E+03 0.  0.
         23    2    4    4    0    0  0.16021701936E+03  0.41826555289E+03 -0.47669372015E+03  0.66362389325E+03  0.11200090554E+03 0.  0.
         23    2    4    4    0    0  0.18475998624E+03 -0.31684136714E+03  0.72725430988E+02  0.38488408626E+03  0.91225364350E+02 0.  0.
          4    1    3    3  502    0 -0.12218028924E+03 -0.75235095426E+02  0.44207081018E+03  0.46477407831E+03  0.00000000000E+00 0. -1.
         -3    1    3    3    0  502 -0.22279671636E+03 -0.26189090323E+02  0.61699307546E+03  0.65650948237E+03  0.00000000000E+00 0.  1.
         11    1    5    5    0    0  0.16359513868E+03  0.42353450752E+03 -0.47510217844E+03  0.65716583022E+03  0.00000000000E+00 0. -1.
        -11    1    5    5    0    0 -0.33781193195E+01 -0.52689546309E+01 -0.15915417074E+01  0.64580630259E+01  0.00000000000E+00 0.  1.
          2    1    6    6  503    0  0.13383082503E+03 -0.13999633688E+03  0.44203931557E+02  0.19865460386E+03  0.00000000000E+00 0.  1.
         -2    1    6    6    0  503  0.50929161215E+02 -0.17684503025E+03  0.28521499431E+02  0.18622948241E+03  0.00000000000E+00 0. -1.
<mgrwt>
<rscale>  0 0.20685369E+04</rscale>
<asrwt>0</asrwt>
<pdfrwt beam="1">  1        2 0.21729901E+00 0.20685369E+04</pdfrwt>
<pdfrwt beam="2">  1       -1 0.11651507E+00 0.20685369E+04</pdfrwt>
<totfact> 0.99686741E+00</totfact>
</mgrwt>
</event>
<event>
12    6  0.1663299E-008  0.1368608E+04  0.7818608E-02  0.8976861E-01
          2   -1    0    0  501    0  0.00000000000E+00  0.00000000000E+00  0.78776351909E+03  0.78776351909E+03  0.00000000000E+00 0. -1.
         -3   -1    0    0    0  501 -0.00000000000E+00 -0.00000000000E+00 -0.59443177682E+03  0.59443177682E+03  0.00000000000E+00 0.  1.
         24    2    1    2    0    0 -0.16283806032E+03 -0.87299401725E+02  0.33031118019E+03  0.38676933915E+03  0.79671993321E+02 0.  0.
        254    2    1    2    0    0  0.16283806032E+03  0.87299401725E+02 -0.13697943792E+03  0.99542595676E+03  0.96848957121E+03 0.  0.
         23    2    4    4    0    0  0.15533074162E+03  0.51075158889E+03 -0.16037661895E+03  0.56208014850E+03  0.72239937607E+02 0.  0.
         23    2    4    4    0    0  0.75073186954E+01 -0.42345218717E+03  0.23397181027E+02  0.43334580826E+03  0.88730191063E+02 0.  0.
          4    1    3    3  502    0 -0.29402128743E+02 -0.17866166917E+02  0.15231375773E+02  0.37625521961E+02  0.00000000000E+00 0. -1.
         -3    1    3    3    0  502 -0.13343593158E+03 -0.69433234808E+02  0.31507980441E+03  0.34914381719E+03  0.00000000000E+00 0.  1.
         11    1    5    5    0    0 -0.60508479573E+01  0.44695549820E+02 -0.19587579859E+02  0.49172941944E+02  0.00000000000E+00 0. -1.
        -11    1    5    5    0    0  0.16138158958E+03  0.46605603907E+03 -0.14078903909E+03  0.51290720656E+03  0.00000000000E+00 0.  1.
          2    1    6    6  503    0  0.35940354191E+02 -0.13603417041E+03 -0.16954521428E+02  0.14171965416E+03  0.00000000000E+00 0. -1.
         -2    1    6    6    0  503 -0.28433035496E+02 -0.28741801675E+03  0.40351702455E+02  0.29162615410E+03  0.00000000000E+00 0.  1.
<mgrwt>
<rscale>  0 0.13686076E+04</rscale>
<asrwt>0</asrwt>
<pdfrwt beam="1">  1        2 0.12119439E+00 0.13686076E+04</pdfrwt>
<pdfrwt beam="2">  1       -3 0.91451042E-01 0.13686076E+04</pdfrwt>
<totfact> 0.23329753E+01</totfact>
</mgrwt>
</event>
<event>
11    6  0.1663299E-008  0.2410271E+04  0.7818608E-02  0.8435668E-01
          2   -1    0    0  501    0  0.00000000000E+00  0.00000000000E+00  0.53994540752E+03  0.53994540752E+03  0.00000000000E+00 0. -1.
         -1   -1    0    0    0  501 -0.00000000000E+00 -0.00000000000E+00 -0.26898116932E+04  0.26898116932E+04  0.00000000000E+00 0.  1.
         24    2    1    2    0    0 -0.15602017864E+03 -0.65976574326E+03 -0.19647341047E+04  0.20798946747E+04  0.78413158921E+02 0.  0.
        254    2    1    2    0    0  0.15602017864E+03  0.65976574326E+03 -0.18513218096E+03  0.11498624260E+04  0.91009699606E+03 0.  0.
         23    2    4    4    0    0  0.15136958525E+03 -0.63873688721E+02  0.23547487536E+03  0.30127274877E+03  0.91237343106E+02 0.  0.
          2    1    3    3  502    0  0.89784617097E+01 -0.28037923276E+02 -0.93072273074E+02  0.97617549300E+02  0.00000000000E+00 0. -1.
         -1    1    3    3    0  502 -0.16499864035E+03 -0.63172781998E+03 -0.18716618316E+04  0.19822771254E+04  0.00000000000E+00 0.  1.
         11    1    4    4    0    0  0.70811427705E+02  0.30331480382E+03 -0.17306529433E+03  0.35632250085E+03  0.00000000000E+00 0.  1.
        -11    1    4    4    0    0 -0.66160834311E+02  0.42032462816E+03 -0.24754176199E+03  0.49226717640E+03  0.00000000000E+00 0. -1.
          3    1    5    5  503    0 -0.92603456929E+01 -0.16428826972E+02  0.13478652282E+02  0.23180475089E+02  0.00000000000E+00 0. -1.
         -3    1    5    5    0  503  0.16062993094E+03 -0.47444861750E+02  0.22199622308E+03  0.27809227368E+03  0.00000000000E+00 0.  1.
<mgrwt>
<rscale>  0 0.24102709E+04</rscale>
<asrwt>0</asrwt>
<pdfrwt beam="1">  1        2 0.83068525E-01 0.24102709E+04</pdfrwt>
<pdfrwt beam="2">  1       -1 0.41381718E+00 0.24102709E+04</pdfrwt>
<totfact> 0.33189916E-01</totfact>
</mgrwt>
</event>
<event>
12    6  0.1663299E-008  0.1718452E+04  0.7818608E-02  0.8750910E-01
         -1   -1    0    0    0  501 -0.00000000000E+00  0.00000000000E+00  0.86571707834E+03  0.86571707834E+03  0.00000000000E+00 0.  1.
          2   -1    0    0  501    0  0.00000000000E+00 -0.00000000000E+00 -0.85278399573E+03  0.85278399573E+03  0.00000000000E+00 0. -1.
         24    2    1    2    0    0  0.27568268647E+03 -0.31680335119E+03 -0.44505442907E+03  0.61701187645E+03  0.79151145978E+02 0.  0.
        254    2    1    2    0    0 -0.27568268647E+03  0.31680335119E+03  0.45798751167E+03  0.11014891976E+04  0.90948369127E+03 0.  0.
         23    2    4    4    0    0 -0.32039275487E+03 -0.84832497162E+02 -0.13757152539E+03  0.37608553450E+03  0.11254481204E+03 0.  0.
         23    2    4    4    0    0  0.44710068397E+02  0.40163584835E+03  0.59555903707E+03  0.72540366312E+03  0.90606638502E+02 0.  0.
          4    1    3    3  502    0  0.27333149086E+03 -0.32070110637E+03 -0.44439877049E+03  0.61241290870E+03  0.00000000000E+00 0. -1.
         -3    1    3    3    0  502  0.23511956055E+01  0.38977551831E+01 -0.65565857410E+00  0.45989677547E+01  0.00000000000E+00 0.  1.
         11    1    5    5    0    0 -0.23167033228E+03 -0.27001184958E+02 -0.49707249097E+02  0.23847645054E+03  0.00000000000E+00 0. -1.
        -11    1    5    5    0    0 -0.88722422588E+02 -0.57831312204E+02 -0.87864276295E+02  0.13760908397E+03  0.00000000000E+00 0.  1.
          4    1    6    6  503    0  0.43456817421E+02  0.39748805924E+03  0.55188232311E+03  0.68151254632E+03  0.00000000000E+00 0. -1.
         -4    1    6    6    0  503  0.12532509758E+01  0.41477891056E+01  0.43676713955E+02  0.43891116805E+02  0.00000000000E+00 0.  1.
<mgrwt>
<rscale>  0 0.17184524E+04</rscale>
<asrwt>0</asrwt>
<pdfrwt beam="1">  1        2 0.13119754E+00 0.17184524E+04</pdfrwt>
<pdfrwt beam="2">  1       -1 0.13318724E+00 0.17184524E+04</pdfrwt>
<totfact> 0.16343484E+01</totfact>
</mgrwt>
</event>
<event>
11    6  0.1663299E-008  0.1437058E+04  0.7818608E-02  0.8927422E-01
          2   -1    0    0  501    0  0.00000000000E+00  0.00000000000E+00  0.94848946136E+03  0.94848946136E+03  0.00000000000E+00 0. -1.
         -1   -1    0    0    0  501 -0.00000000000E+00 -0.00000000000E+00 -0.54432238659E+03  0.54432238659E+03  0.00000000000E+00 0.  1.
         24    2    1    2    0    0 -0.27485087699E+03 -0.32906189420E+03  0.11037726118E+03  0.45005509532E+03  0.80880864487E+02 0.  0.
        254    2    1    2    0    0  0.27485087699E+03  0.32906189420E+03  0.29378981360E+03  0.10427567526E+04  0.90399361492E+03 0.  0.
         23    2    4    4    0    0  0.22559990290E+03  0.84186422677E+00 -0.27031060149E+03  0.36457039781E+03  0.94592434976E+02 0.  0.
          4    1    3    3  502    0 -0.13514250426E+03 -0.21703120663E+03  0.46105936793E+02  0.25979183690E+03  0.00000000000E+00 0. -1.
         -3    1    3    3    0  502 -0.13970837273E+03 -0.11203068757E+03  0.64271324383E+02  0.19026325842E+03  0.00000000000E+00 0.  1.
         11    1    4    4    0    0  0.48567787402E+01 -0.10366036938E+02  0.10702051807E+03  0.10763100998E+03  0.00000000000E+00 0. -1.
        -11    1    4    4    0    0  0.44394195347E+02  0.33858606691E+03  0.45707989701E+03  0.57055534485E+03  0.00000000000E+00 0.  1.
          3    1    5    5  503    0  0.16269184609E+03  0.32001267194E+02 -0.14197194185E+03  0.21828593669E+03  0.00000000000E+00 0. -1.
         -3    1    5    5    0  503  0.62908056814E+02 -0.31159402968E+02 -0.12833865964E+03  0.14628446111E+03  0.00000000000E+00 0.  1.
<mgrwt>
<rscale>  0 0.14370582E+04</rscale>
<asrwt>0</asrwt>
<pdfrwt beam="1">  1        2 0.14592146E+00 0.14370582E+04</pdfrwt>
<pdfrwt beam="2">  1       -1 0.83741906E-01 0.14370582E+04</pdfrwt>
<totfact> 0.42634719E+01</totfact>
</mgrwt>
</event>
<event>
11    6  0.1663299E-008  0.2021883E+04  0.7818608E-02  0.8596457E-01
         -1   -1    0    0    0  501 -0.00000000000E+00  0.00000000000E+00  0.55757341046E+03  0.55757341046E+03  0.00000000000E+00 0.  1.
          2   -1    0    0  501    0  0.00000000000E+00 -0.00000000000E+00 -0.18329473152E+04  0.18329473152E+04  0.00000000000E+00 0. -1.
         24    2    1    2    0    0  0.66851871440E+03 -0.28089472789E+02  0.32130673414E+02  0.67530738463E+03  0.85448192324E+02 0.  0.
        254    2    1    2    0    0 -0.66851871440E+03  0.28089472789E+02 -0.13075045782E+04  0.17152133411E+04  0.88582294699E+03 0.  0.
         23    2    4    4    0    0 -0.75291537695E+03 -0.76942473544E+02 -0.10959294532E+04  0.13350006541E+04  0.91453107835E+02 0.  0.
          4    1    3    3  502    0  0.60279202169E+02  0.21127611585E+02  0.10217075270E+02  0.64686527288E+02  0.00000000000E+00 0. -1.
         -3    1    3    3    0  502  0.60823951223E+03 -0.49217084374E+02  0.21913598145E+02  0.61062085734E+03  0.00000000000E+00 0.  1.
         11    1    4    4    0    0 -0.13712405734E+02  0.47895435656E+02 -0.25412863071E+03  0.25896595099E+03  0.00000000000E+00 0. -1.
        -11    1    4    4    0    0  0.98109068281E+02  0.57136510677E+02  0.42553505750E+02  0.12124673597E+03  0.00000000000E+00 0.  1.
          3    1    5    5  503    0 -0.22971275001E+03 -0.56650635829E+01 -0.40167930047E+03  0.46275944170E+03  0.00000000000E+00 0. -1.
         -3    1    5    5    0  503 -0.52320262694E+03 -0.71277409961E+02 -0.69425015277E+03  0.87224121241E+03  0.00000000000E+00 0.  1.
<mgrwt>
<rscale>  0 0.20218830E+04</rscale>
<asrwt>0</asrwt>
<pdfrwt beam="1">  1        2 0.28199190E+00 0.20218830E+04</pdfrwt>
<pdfrwt beam="2">  1       -1 0.85780524E-01 0.20218830E+04</pdfrwt>
<totfact> 0.11725350E+01</totfact>
</mgrwt>
</event>
<event>
12    6  0.1663299E-008  0.1687395E+04  0.7818608E-02  0.8768587E-01
         -1   -1    0    0    0  501 -0.00000000000E+00  0.00000000000E+00  0.26031039656E+04  0.26031039656E+04  0.00000000000E+00 0.  1.
          2   -1    0    0  501    0  0.00000000000E+00 -0.00000000000E+00 -0.27345242953E+03  0.27345242953E+03  0.00000000000E+00 0. -1.
         24    2    1    2    0    0 -0.31730756417E+03 -0.30371823417E+03  0.15307805040E+04  0.15947223351E+04  0.83195664338E+02 0.  0.
        254    2    1    2    0    0  0.31730756417E+03  0.30371823417E+03  0.79887103198E+03  0.12818340600E+04  0.90109642963E+03 0.  0.
         23    2    4    4    0    0  0.19383055768E+03  0.57922426614E+03  0.28317342852E+03  0.67724140150E+03  0.73468971063E+02 0.  0.
         23    2    4    4    0    0  0.12347700649E+03 -0.27550603198E+03  0.51569760346E+03  0.60459265846E+03  0.91859238289E+02 0.  0.
          4    1    3    3  502    0 -0.29796506345E+01 -0.27145076191E+02  0.12337034619E+03  0.12635654237E+03  0.00000000000E+00 0. -1.
         -3    1    3    3    0  502 -0.31432791353E+03 -0.27657315797E+03  0.14074101578E+04  0.14683657928E+04  0.00000000000E+00 0.  1.
         11    1    5    5    0    0  0.26334899965E+02  0.25357553689E+02  0.16630374659E+02  0.40163439178E+02  0.00000000000E+00 0.  1.
        -11    1    5    5    0    0  0.16749565772E+03  0.55386671245E+03  0.26654305386E+03  0.63707796232E+03  0.00000000000E+00 0. -1.
          1    1    6    6  503    0  0.96239195200E+01 -0.13043325625E+03  0.19958570392E+03  0.23862084438E+03  0.00000000000E+00 0. -1.
         -1    1    6    6    0  503  0.11385308697E+03 -0.14507277573E+03  0.31611189954E+03  0.36597181408E+03  0.00000000000E+00 0.  1.
<mgrwt>
<rscale>  0 0.16873946E+04</rscale>
<asrwt>0</asrwt>
<pdfrwt beam="1">  1        2 0.42069606E-01 0.16873946E+04</pdfrwt>
<pdfrwt beam="2">  1       -1 0.40047752E+00 0.16873946E+04</pdfrwt>
<totfact> 0.94664408E-01</totfact>
</mgrwt>
</event>
<event>
12    6  0.1663299E-008  0.2670412E+04  0.7818608E-02  0.8344670E-01
          2   -1    0    0  501    0  0.00000000000E+00  0.00000000000E+00  0.31984869166E+04  0.31984869166E+04  0.00000000000E+00 0. -1.
         -1   -1    0    0    0  501 -0.00000000000E+00 -0.00000000000E+00 -0.55738057427E+03  0.55738057427E+03  0.00000000000E+00 0.  1.
         24    2    1    2    0    0  0.95571206036E+03  0.46613427849E+03  0.19037331059E+04  0.21820402729E+04  0.80207893244E+02 0.  0.
        254    2    1    2    0    0 -0.95571206036E+03 -0.46613427849E+03  0.73737323635E+03  0.15738272179E+04  0.89584938144E+03 0.  0.
         23    2    4    4    0    0 -0.26314686283E+03 -0.60832810758E+03  0.29994198756E+03  0.73759540499E+03  0.12154187619E+03 0.  0.
         23    2    4    4    0    0 -0.69256519753E+03  0.14219382909E+03  0.43743124880E+03  0.83623181291E+03  0.89843806930E+02 0.  0.
          4    1    3    3  502    0  0.76492045860E+03  0.36190070101E+03  0.15747253674E+04  0.17876899642E+04  0.00000000000E+00 0. -1.
         -3    1    3    3    0  502  0.19079160176E+03  0.10423357748E+03  0.32900773858E+03  0.39435030876E+03  0.00000000000E+00 0.  1.
         11    1    5    5    0    0  0.21820329285E+00 -0.37341459417E+02  0.46511976959E+02  0.59647264855E+02  0.00000000000E+00 0.  1.
        -11    1    5    5    0    0 -0.26336506612E+03 -0.57098664817E+03  0.25343001060E+03  0.67794814013E+03  0.00000000000E+00 0. -1.
          2    1    6    6  503    0 -0.63730820255E+03  0.13371253645E+03  0.37117192111E+03  0.74953944690E+03  0.00000000000E+00 0. -1.
         -2    1    6    6    0  503 -0.55256994980E+02  0.84812926427E+01  0.66259327691E+02  0.86692366014E+02  0.00000000000E+00 0.  1.
<mgrwt>
<rscale>  0 0.26704116E+04</rscale>
<asrwt>0</asrwt>
<pdfrwt beam="1">  1        2 0.49207490E+00 0.26704116E+04</pdfrwt>
<pdfrwt beam="2">  1       -1 0.85750859E-01 0.26704116E+04</pdfrwt>
<totfact> 0.17451305E+00</totfact>
</mgrwt>
</event>
<event>
12    6  0.1663299E-008  0.2099666E+04  0.7818608E-02  0.8561391E-01
          2   -1    0    0  501    0  0.00000000000E+00  0.00000000000E+00  0.43471864267E+03  0.43471864267E+03  0.00000000000E+00 0. -1.
         -1   -1    0    0    0  501 -0.00000000000E+00 -0.00000000000E+00 -0.25353154538E+04  0.25353154538E+04  0.00000000000E+00 0.  1.
         24    2    1    2    0    0 -0.19554773051E+03  0.38311641551E+03  0.18456416231E+03  0.47499018404E+03  0.80837133699E+02 0.  0.
        254    2    1    2    0    0  0.19554773051E+03 -0.38311641551E+03 -0.22851609735E+04  0.24950439125E+04  0.90458075799E+03 0.  0.
         23    2    4    4    0    0  0.33868673826E+03  0.11738565050E+03 -0.15172901723E+04  0.15628772778E+04  0.10921456259E+03 0.  0.
         23    2    4    4    0    0 -0.14313900775E+03 -0.50050206601E+03 -0.76787080112E+03  0.93216663468E+03  0.91202927517E+02 0.  0.
          4    1    3    3  502    0 -0.20268038469E+03  0.37774001401E+03  0.18183073421E+03  0.46564930197E+03  0.00000000000E+00 0. -1.
         -3    1    3    3    0  502  0.71326541767E+01  0.53764014981E+01  0.27334281054E+01  0.93408820719E+01  0.00000000000E+00 0.  1.
         11    1    5    5    0    0  0.96608909222E+02 -0.14104190067E+02 -0.33653695617E+03  0.35041308821E+03  0.00000000000E+00 0.  1.
        -11    1    5    5    0    0  0.24207782903E+03  0.13148984057E+03 -0.11807532162E+04  0.12124641896E+04  0.00000000000E+00 0. -1.
          2    1    6    6  503    0 -0.12152578812E+03 -0.41029775044E+03 -0.68558803677E+03  0.80817307388E+03  0.00000000000E+00 0. -1.
         -2    1    6    6    0  503 -0.21613219623E+02 -0.90204315573E+02 -0.82282764352E+02  0.12399356080E+03  0.00000000000E+00 0.  1.
<mgrwt>
<rscale>  0 0.20996656E+04</rscale>
<asrwt>0</asrwt>
<pdfrwt beam="1">  1        2 0.66879789E-01 0.20996656E+04</pdfrwt>
<pdfrwt beam="2">  1       -1 0.39004854E+00 0.20996656E+04</pdfrwt>
<totfact> 0.63799056E-01</totfact>
</mgrwt>
</event>
<event>
11    6  0.1663299E-008  0.3232039E+04  0.7818608E-02  0.8180407E-01
          2   -1    0    0  501    0  0.00000000000E+00  0.00000000000E+00  0.19507510862E+04  0.19507510862E+04  0.00000000000E+00 0. -1.
         -1   -1    0    0    0  501 -0.00000000000E+00 -0.00000000000E+00 -0.13387246058E+04  0.13387246058E+04  0.00000000000E+00 0.  1.
         24    2    1    2    0    0  0.21635692849E+03 -0.88613757470E+03  0.14822630492E+04  0.17422650289E+04  0.79583679843E+02 0.  0.
        254    2    1    2    0    0 -0.21635692849E+03  0.88613757470E+03 -0.87023656880E+03  0.15472106631E+04  0.89693869823E+03 0.  0.
         23    2    4    4    0    0 -0.53892382686E+03  0.53045652314E+03 -0.44997062877E+03  0.88477557095E+03  0.92364658254E+02 0.  0.
          2    1    3    3  502    0  0.15059400450E+03 -0.45687734056E+03  0.75643158743E+03  0.89643973862E+03  0.00000000000E+00 0. -1.
         -1    1    3    3    0  502  0.65762923996E+02 -0.42926023413E+03  0.72583146181E+03  0.84582529031E+03  0.00000000000E+00 0.  1.
         11    1    4    4    0    0  0.22646347135E+03  0.31214814181E+03 -0.24199528381E+03  0.45528439868E+03  0.00000000000E+00 0. -1.
        -11    1    4    4    0    0  0.96103427015E+02  0.43532909750E+02 -0.17827065622E+03  0.20715069342E+03  0.00000000000E+00 0.  1.
          1    1    5    5  503    0 -0.48602612107E+03  0.48871340258E+03 -0.37764890795E+03  0.78592676370E+03  0.00000000000E+00 0. -1.
         -1    1    5    5    0  503 -0.52897705792E+02  0.41743120551E+02 -0.72321720823E+02  0.98848807247E+02  0.00000000000E+00 0.  1.
<mgrwt>
<rscale>  0 0.32320387E+04</rscale>
<asrwt>0</asrwt>
<pdfrwt beam="1">  1        2 0.30011555E+00 0.32320387E+04</pdfrwt>
<pdfrwt beam="2">  1       -1 0.20595763E+00 0.32320387E+04</pdfrwt>
<totfact> 0.93124410E-01</totfact>
</mgrwt>
</event>
<event>
12    6  0.1663299E-008  0.1137359E+04  0.7818608E-02  0.9169525E-01
         -1   -1    0    0    0  501 -0.00000000000E+00  0.00000000000E+00  0.75850116796E+02  0.75850116796E+02  0.00000000000E+00 0.  1.
          2   -1    0    0  501    0  0.00000000000E+00 -0.00000000000E+00 -0.42636249754E+04  0.42636249754E+04  0.00000000000E+00 0. -1.
         24    2    1    2    0    0 -0.14201310844E+02 -0.14503853731E+03 -0.14715138103E+04  0.14812968392E+04  0.87461862751E+02 0.  0.
        254    2    1    2    0    0  0.14201310844E+02  0.14503853731E+03 -0.27162610483E+04  0.28581782530E+04  0.87742292466E+03 0.  0.
         23    2    4    4    0    0  0.14128261710E+03 -0.25140238805E+03 -0.19999178157E+04  0.20235892482E+04  0.10990103502E+03 0.  0.
         23    2    4    4    0    0 -0.12708130626E+03  0.39644092536E+03 -0.71634323260E+03  0.83458900472E+03  0.10037984956E+03 0.  0.
          2    1    3    3  502    0 -0.21045827613E+02 -0.13258892688E+03 -0.93435857390E+03  0.94395375682E+03  0.00000000000E+00 0. -1.
         -1    1    3    3    0  502  0.68445167691E+01 -0.12449610428E+02 -0.53715523636E+03  0.53734308236E+03  0.00000000000E+00 0.  1.
         11    1    5    5    0    0  0.22540451972E+02 -0.11920689901E+03 -0.10691547453E+04  0.10760159042E+04  0.00000000000E+00 0. -1.
        -11    1    5    5    0    0  0.11874216513E+03 -0.13219548905E+03 -0.93076307043E+03  0.94757334406E+03  0.00000000000E+00 0.  1.
          3    1    6    6  503    0  0.12990591664E+02  0.16105355149E+02 -0.19420179924E+02  0.28377479179E+02  0.00000000000E+00 0. -1.
         -3    1    6    6    0  503 -0.14007189792E+03  0.38033557022E+03 -0.69692305268E+03  0.80621152554E+03  0.00000000000E+00 0.  1.
<mgrwt>
<rscale>  0 0.11373591E+04</rscale>
<asrwt>0</asrwt>
<pdfrwt beam="1">  1        2 0.65594259E+00 0.11373591E+04</pdfrwt>
<pdfrwt beam="2">  1       -1 0.11669244E-01 0.11373591E+04</pdfrwt>
<totfact> 0.12019175E+01</totfact>
</mgrwt>
</event>
<event>
12    6  0.1663299E-008  0.1815982E+04  0.7818608E-02  0.8697846E-01
          2   -1    0    0  501    0  0.00000000000E+00  0.00000000000E+00  0.23612404307E+04  0.23612404307E+04  0.00000000000E+00 0. -1.
         -1   -1    0    0    0  501 -0.00000000000E+00 -0.00000000000E+00 -0.34915859689E+03  0.34915859689E+03  0.00000000000E+00 0.  1.
         24    2    1    2    0    0  0.16722673041E+03  0.67134137644E+03  0.77610415415E+03  0.10426872573E+04  0.78708546583E+02 0.  0.
        254    2    1    2    0    0 -0.16722673041E+03 -0.67134137644E+03  0.12359776797E+04  0.16677117703E+04  0.88031681862E+03 0.  0.
         23    2    4    4    0    0  0.25551331546E+03 -0.43123668289E+03  0.99011621425E+03  0.11151975905E+04  0.10992459696E+03 0.  0.
         23    2    4    4    0    0 -0.42274004587E+03 -0.24010469355E+03  0.24586146542E+03  0.55251417985E+03  0.92003524451E+02 0.  0.
          4    1    3    3  502    0  0.14436406549E+03  0.63259489020E+03  0.74523804105E+03  0.98812803641E+03  0.00000000000E+00 0. -1.
         -3    1    3    3    0  502  0.22862664923E+02  0.38746486238E+02  0.30866113104E+02  0.54559220865E+02  0.00000000000E+00 0.  1.
         11    1    5    5    0    0  0.26593007330E+03 -0.40726909982E+03  0.95072974255E+03  0.10679297575E+04  0.00000000000E+00 0. -1.
        -11    1    5    5    0    0 -0.10416757833E+02 -0.23967583078E+02  0.39386471704E+02  0.47267832991E+02  0.00000000000E+00 0.  1.
          4    1    6    6  503    0 -0.11890145941E+03 -0.10735130590E+03  0.51977176774E+02  0.16841462773E+03  0.00000000000E+00 0. -1.
         -4    1    6    6    0  503 -0.30383858646E+03 -0.13275338764E+03  0.19388428865E+03  0.38409955212E+03  0.00000000000E+00 0.  1.
<mgrwt>
<rscale>  0 0.18159817E+04</rscale>
<asrwt>0</asrwt>
<pdfrwt beam="1">  1        2 0.36326775E+00 0.18159817E+04</pdfrwt>
<pdfrwt beam="2">  1       -1 0.53716709E-01 0.18159817E+04</pdfrwt>
<totfact> 0.15720140E+01</totfact>
</mgrwt>
</event>
<event>
12    6  0.1663299E-008  0.1080054E+04  0.7818608E-02  0.9224854E-01
         -1   -1    0    0    0  501 -0.00000000000E+00  0.00000000000E+00  0.22010379999E+04  0.22010379999E+04  0.00000000000E+00 0.  1.
          2   -1    0    0  501    0  0.00000000000E+00 -0.00000000000E+00 -0.13249619527E+03  0.13249619527E+03  0.00000000000E+00 0. -1.
         24    2    1    2    0    0  0.13481686186E+03  0.27183325869E+02  0.37253645767E+03  0.40588237234E+03  0.83920012113E+02 0.  0.
        254    2    1    2    0    0 -0.13481686186E+03 -0.27183325869E+02  0.16960053470E+04  0.19276518228E+04  0.90581062794E+03 0.  0.
         23    2    4    4    0    0 -0.41911343274E+03  0.24377612985E+02  0.15150995635E+04  0.15761121872E+04  0.11114225959E+03 0.  0.
         23    2    4    4    0    0  0.28429657089E+03 -0.51560938854E+02  0.18090578350E+03  0.35153963564E+03  0.85849532850E+02 0.  0.
          4    1    3    3  502    0  0.42805096306E+02  0.35422560172E+02  0.68941811879E+02  0.88543816634E+02  0.00000000000E+00 0. -1.
         -3    1    3    3    0  502  0.92011765550E+02 -0.82392343035E+01  0.30359464579E+03  0.31733855570E+03  0.00000000000E+00 0.  1.
         11    1    5    5    0    0 -0.28685847791E+03 -0.23417501654E+02  0.88960486785E+03  0.93500427092E+03  0.00000000000E+00 0. -1.
        -11    1    5    5    0    0 -0.13225495484E+03  0.47795114639E+02  0.62549469561E+03  0.64110791627E+03  0.00000000000E+00 0.  1.
          4    1    6    6  503    0  0.25083406667E+03 -0.49860756674E+02  0.12104821582E+03  0.28294256416E+03  0.00000000000E+00 0. -1.
         -4    1    6    6    0  503  0.33462504215E+02 -0.17001821801E+01  0.59857567678E+02  0.68597071483E+02  0.00000000000E+00 0.  1.
<mgrwt>
<rscale>  0 0.10800540E+04</rscale>
<asrwt>0</asrwt>
<pdfrwt beam="1">  1        2 0.20384032E-01 0.10800540E+04</pdfrwt>
<pdfrwt beam="2">  1       -1 0.33862120E+00 0.10800540E+04</pdfrwt>
<totfact> 0.59591909E+00</totfact>
</mgrwt>
</event>
<event>
12    6  0.1663299E-008  0.2231985E+04  0.7818608E-02  0.8505232E-01
         -1   -1    0    0    0  501 -0.00000000000E+00  0.00000000000E+00  0.98191927425E+03  0.98191927425E+03  0.00000000000E+00 0.  1.
          2   -1    0    0  501    0  0.00000000000E+00 -0.00000000000E+00 -0.12683728582E+04  0.12683728582E+04  0.00000000000E+00 0. -1.
         24    2    1    2    0    0 -0.85612271080E+03  0.23911421569E+03 -0.41220723005E+03  0.98293273359E+03  0.78232053354E+02 0.  0.
        254    2    1    2    0    0  0.85612271080E+03 -0.23911421569E+03  0.12575364613E+03  0.12673593988E+04  0.89457484997E+03 0.  0.
         23    2    4    4    0    0  0.53957971849E+03  0.21099088632E+03  0.32872285547E+03  0.67427651038E+03  0.10453071328E+03 0.  0.
         23    2    4    4    0    0  0.31654299231E+03 -0.45010510201E+03 -0.20296920935E+03  0.59308288845E+03  0.88072378198E+02 0.  0.
          4    1    3    3  502    0 -0.69498427141E+03  0.19386570697E+03 -0.36737547991E+03  0.80966152995E+03  0.00000000000E+00 0. -1.
         -3    1    3    3    0  502 -0.16113843939E+03  0.45248508721E+02 -0.44831750138E+02  0.17327120364E+03  0.00000000000E+00 0.  1.
         11    1    5    5    0    0  0.20099077491E+03  0.10959309359E+03  0.17822125110E+03  0.29012196075E+03  0.00000000000E+00 0. -1.
        -11    1    5    5    0    0  0.33858894358E+03  0.10139779272E+03  0.15050160437E+03  0.38415454963E+03  0.00000000000E+00 0.  1.
          1    1    6    6  503    0  0.29244970266E+03 -0.37811216946E+03 -0.19672034202E+03  0.51690863239E+03  0.00000000000E+00 0. -1.
         -1    1    6    6    0  503  0.24093289648E+02 -0.71992932554E+02 -0.62488673207E+01  0.76174256062E+02  0.00000000000E+00 0.  1.
<mgrwt>
<rscale>  0 0.22319854E+04</rscale>
<asrwt>0</asrwt>
<pdfrwt beam="1">  1        2 0.19513429E+00 0.22319854E+04</pdfrwt>
<pdfrwt beam="2">  1       -1 0.15106450E+00 0.22319854E+04</pdfrwt>
<totfact> 0.61364249E+00</totfact>
</mgrwt>
</event>
<event>
12    6  0.1663299E-008  0.1608243E+04  0.7818608E-02  0.8815500E-01
          2   -1    0    0  501    0  0.00000000000E+00  0.00000000000E+00  0.39933824103E+04  0.39933824103E+04  0.00000000000E+00 0. -1.
         -1   -1    0    0    0  501 -0.00000000000E+00 -0.00000000000E+00 -0.16192066316E+03  0.16192066316E+03  0.00000000000E+00 0.  1.
         24    2    1    2    0    0  0.29866843541E+03 -0.38481178947E+03  0.20152796494E+04  0.20755715200E+04  0.96758057914E+02 0.  0.
        254    2    1    2    0    0 -0.29866843541E+03  0.38481178947E+03  0.18161820978E+04  0.20797315535E+04  0.88852854462E+03 0.  0.
         23    2    4    4    0    0 -0.26931256030E+03  0.42996618368E+03  0.18848374870E+04  0.19533426481E+04  0.74397406476E+02 0.  0.
         23    2    4    4    0    0 -0.29355875109E+02 -0.45154394216E+02 -0.68655389236E+02  0.12638890540E+03  0.91432522753E+02 0.  0.
          2    1    3    3  502    0  0.17031071300E+03 -0.29269031872E+03  0.13786066866E+04  0.14195878831E+04  0.00000000000E+00 0. -1.
         -1    1    3    3    0  502  0.12835772241E+03 -0.92121470747E+02  0.63667296278E+03  0.65598363685E+03  0.00000000000E+00 0.  1.
         11    1    5    5    0    0 -0.25120265386E+03  0.41283317488E+03  0.17187697373E+04  0.17854140734E+04  0.00000000000E+00 0. -1.
        -11    1    5    5    0    0 -0.18109906448E+02  0.17133008802E+02  0.16606774973E+03  0.16792857470E+03  0.00000000000E+00 0.  1.
          1    1    6    6  503    0 -0.31632718191E+02 -0.72234375200E+02 -0.53220477879E+02  0.95135971569E+02  0.00000000000E+00 0. -1.
         -1    1    6    6    0  503  0.22768430817E+01  0.27079980984E+02 -0.15434911356E+02  0.31252933832E+02  0.00000000000E+00 0.  1.
<mgrwt>
<rscale>  0 0.16082427E+04</rscale>
<asrwt>0</asrwt>
<pdfrwt beam="1">  1        2 0.61436645E+00 0.16082427E+04</pdfrwt>
<pdfrwt beam="2">  1       -1 0.24910874E-01 0.16082427E+04</pdfrwt>
<totfact> 0.54333207E+00</totfact>
</mgrwt>
</event>
<event>
12    6  0.1663299E-008  0.1594730E+04  0.7818608E-02  0.8823792E-01
          2   -1    0    0  501    0  0.00000000000E+00  0.00000000000E+00  0.22181065647E+04  0.22181065647E+04  0.00000000000E+00 0. -1.
         -1   -1    0    0    0  501 -0.00000000000E+00 -0.00000000000E+00 -0.28663687752E+03  0.28663687752E+03  0.00000000000E+00 0.  1.
         24    2    1    2    0    0 -0.48333213404E+03 -0.16357031723E+03  0.94833501907E+03  0.10797843376E+04  0.78928491706E+02 0.  0.
        254    2    1    2    0    0  0.48333213404E+03  0.16357031723E+03  0.98313466814E+03  0.14249591047E+04  0.89643152209E+03 0.  0.
         23    2    4    4    0    0  0.26529077892E+03 -0.33316732821E+03  0.65257622010E+03  0.78288767731E+03  0.75350688654E+02 0.  0.
         23    2    4    4    0    0  0.21804135512E+03  0.49673764543E+03  0.33055844804E+03  0.64207142736E+03  0.93255076661E+02 0.  0.
          4    1    3    3  502    0 -0.42843528800E+03 -0.15669772513E+03  0.88521478436E+03  0.99584948035E+03  0.00000000000E+00 0. -1.
         -3    1    3    3    0  502 -0.54896846041E+02 -0.68725920964E+01  0.63120234708E+02  0.83934857223E+02  0.00000000000E+00 0.  1.
         11    1    5    5    0    0  0.23072211149E+03 -0.23904935036E+03  0.50286943878E+03  0.60270636059E+03  0.00000000000E+00 0.  1.
        -11    1    5    5    0    0  0.34568667431E+02 -0.94117977845E+02  0.14970678132E+03  0.18018131672E+03  0.00000000000E+00 0. -1.
          4    1    6    6  503    0  0.13741219068E+03  0.40804469357E+03  0.26065699989E+03  0.50331367326E+03  0.00000000000E+00 0.  1.
         -4    1    6    6    0  503  0.80629164438E+02  0.88692951862E+02  0.69901448147E+02  0.13875775409E+03  0.00000000000E+00 0. -1.
<mgrwt>
<rscale>  0 0.15947302E+04</rscale>
<asrwt>0</asrwt>
<pdfrwt beam="1">  1        2 0.34124715E+00 0.15947302E+04</pdfrwt>
<pdfrwt beam="2">  1       -1 0.44097983E-01 0.15947302E+04</pdfrwt>
<totfact> 0.28052882E+01</totfact>
</mgrwt>
</event>
<event>
12    6  0.1663299E-008  0.2242276E+04  0.7818608E-02  0.8501035E-01
          2   -1    0    0  501    0  0.00000000000E+00  0.00000000000E+00  0.10231131750E+04  0.10231131750E+04  0.00000000000E+00 0. -1.
         -1   -1    0    0    0  501 -0.00000000000E+00 -0.00000000000E+00 -0.12285544250E+04  0.12285544250E+04  0.00000000000E+00 0.  1.
         24    2    1    2    0    0  0.89837948471E+03  0.28020844800E+03 -0.64012879305E+01  0.94431374809E+03  0.78006444995E+02 0.  0.
        254    2    1    2    0    0 -0.89837948471E+03 -0.28020844800E+03 -0.19903996208E+03  0.13073538519E+04  0.88541217223E+03 0.  0.
         23    2    4    4    0    0 -0.29367300590E+03 -0.53996380364E+03 -0.14127229921E+03  0.64066329527E+03  0.11263592561E+03 0.  0.
         23    2    4    4    0    0 -0.60470647881E+03  0.25975535564E+03 -0.57767662870E+02  0.66669055664E+03  0.89422732839E+02 0.  0.
          2    1    3    3  502    0  0.88953925893E+03  0.27629337088E+03  0.20649523447E+01  0.93146249737E+03  0.00000000000E+00 0. -1.
         -1    1    3    3    0  502  0.88402257775E+01  0.39150771198E+01 -0.84662402753E+01  0.12851250719E+02  0.00000000000E+00 0.  1.
         11    1    5    5    0    0 -0.23511961739E+03 -0.46968019897E+03 -0.81858370522E+02  0.53158396948E+03  0.00000000000E+00 0. -1.
        -11    1    5    5    0    0 -0.58553388509E+02 -0.70283604678E+02 -0.59413928685E+02  0.10907932579E+03  0.00000000000E+00 0.  1.
          3    1    6    6  503    0 -0.43220646445E+03  0.21627626358E+03 -0.14053620913E+02  0.48350321029E+03  0.00000000000E+00 0. -1.
         -3    1    6    6    0  503 -0.17250001435E+03  0.43479092062E+02 -0.43714041957E+02  0.18318734635E+03  0.00000000000E+00 0.  1.
<mgrwt>
<rscale>  0 0.22422758E+04</rscale>
<asrwt>0</asrwt>
<pdfrwt beam="1">  1        2 0.15740203E+00 0.22422758E+04</pdfrwt>
<pdfrwt beam="2">  1       -1 0.18900837E+00 0.22422758E+04</pdfrwt>
<totfact> 0.45405672E+00</totfact>
</mgrwt>
</event>
<event>
12    6  0.2510532E-008  0.2284749E+04  0.7818608E-02  0.8483959E-01
         -1   -1    0    0    0  501 -0.00000000000E+00  0.00000000000E+00  0.54480270769E+03  0.54480270769E+03  0.00000000000E+00 0.  1.
          2   -1    0    0  501    0  0.00000000000E+00 -0.00000000000E+00 -0.23953990082E+04  0.23953990082E+04  0.00000000000E+00 0. -1.
         24    2    1    2    0    0  0.57393081211E+03  0.30592423393E+03  0.13317094065E+03  0.66872106874E+03  0.80418619471E+02 0.  0.
        254    2    1    2    0    0 -0.57393081211E+03 -0.30592423393E+03 -0.19837672412E+04  0.22714806472E+04  0.89515677359E+03 0.  0.
         23    2    4    4    0    0 -0.68276144684E+03 -0.41116044389E+03 -0.10584214602E+04  0.13292610822E+04  0.10706508918E+03 0.  0.
         23    2    4    4    0    0  0.10883063473E+03  0.10523620997E+03 -0.92534578101E+03  0.94221956499E+03  0.92704515977E+02 0.  0.
          2    1    3    3  502    0 -0.11414629798E+01  0.72048558633E+01  0.12586127775E+01  0.74024990286E+01  0.00000000000E+00 0. -1.
         -1    1    3    3    0  502  0.57507227509E+03  0.29871937806E+03  0.13191232787E+03  0.66131856971E+03  0.00000000000E+00 0.  1.
         11    1    5    5    0    0 -0.10669019434E+03 -0.10331354509E+03 -0.23875211210E+03  0.28117442487E+03  0.00000000000E+00 0. -1.
        -11    1    5    5    0    0 -0.57607125250E+03 -0.30784689880E+03 -0.81966934807E+03  0.10480866573E+04  0.00000000000E+00 0.  1.
          4    1    6    6  503    0 -0.16194891450E+02  0.71917805859E+01 -0.67685146874E+02  0.69966244179E+02  0.00000000000E+00 0. -1.
         -4    1    6    6    0  503  0.12502552618E+03  0.98044429380E+02 -0.85766063413E+03  0.87225332082E+03  0.00000000000E+00 0.  1.
<mgrwt>
<rscale>  0 0.22847493E+04</rscale>
<asrwt>0</asrwt>
<pdfrwt beam="1">  1        2 0.36852292E+00 0.22847493E+04</pdfrwt>
<pdfrwt beam="2">  1       -1 0.83815802E-01 0.22847493E+04</pdfrwt>
<totfact> 0.58300868E+00</totfact>
</mgrwt>
</event>
<event>
12    6  0.1663299E-008  0.1838007E+04  0.7818608E-02  0.8686345E-01
          2   -1    0    0  501    0  0.00000000000E+00  0.00000000000E+00  0.79897585166E+03  0.79897585166E+03  0.00000000000E+00 0. -1.
         -1   -1    0    0    0  501 -0.00000000000E+00 -0.00000000000E+00 -0.10570629843E+04  0.10570629843E+04  0.00000000000E+00 0.  1.
         24    2    1    2    0    0 -0.72911721685E+02  0.21324201477E+03 -0.76163550380E+03  0.79818224074E+03  0.78854123275E+02 0.  0.
        254    2    1    2    0    0  0.72911721685E+02 -0.21324201477E+03  0.50354837112E+03  0.10578565953E+04  0.90261361504E+03 0.  0.
         23    2    4    4    0    0 -0.26351880335E+03 -0.10835010649E+03 -0.12673854742E+03  0.32924080592E+03  0.10561696638E+03 0.  0.
         23    2    4    4    0    0  0.33643052503E+03 -0.10489190828E+03  0.63028691855E+03  0.72861578934E+03  0.97116209711E+02 0.  0.
          4    1    3    3  502    0 -0.12267076053E+00  0.60596448598E+02 -0.11734656789E+03  0.13206877613E+03  0.00000000000E+00 0. -1.
         -3    1    3    3    0  502 -0.72789050924E+02  0.15264556618E+03 -0.64428893591E+03  0.66611346461E+03  0.00000000000E+00 0.  1.
         11    1    5    5    0    0 -0.88724969589E+02  0.14926785720E+02 -0.36640244629E+02  0.97146470275E+02  0.00000000000E+00 0. -1.
        -11    1    5    5    0    0 -0.17479383376E+03 -0.12327689221E+03 -0.90098302793E+02  0.23209433565E+03  0.00000000000E+00 0.  1.
          1    1    6    6  503    0  0.11818691714E+03 -0.86013736718E+02  0.23769853014E+03  0.27904677299E+03  0.00000000000E+00 0. -1.
         -1    1    6    6    0  503  0.21824360789E+03 -0.18878171563E+02  0.39258838841E+03  0.44956901635E+03  0.00000000000E+00 0.  1.
<mgrwt>
<rscale>  0 0.18380074E+04</rscale>
<asrwt>0</asrwt>
<pdfrwt beam="1">  1        2 0.12291936E+00 0.18380074E+04</pdfrwt>
<pdfrwt beam="2">  1       -1 0.16262507E+00 0.18380074E+04</pdfrwt>
<totfact> 0.10349960E+01</totfact>
</mgrwt>
</event>
<event>
11    6  0.1663299E-008  0.1864101E+04  0.7818608E-02  0.8672935E-01
         -1   -1    0    0    0  501 -0.00000000000E+00  0.00000000000E+00  0.30815609667E+03  0.30815609667E+03  0.00000000000E+00 0.  1.
          2   -1    0    0  501    0  0.00000000000E+00 -0.00000000000E+00 -0.28190850834E+04  0.28190850834E+04  0.00000000000E+00 0. -1.
         24    2    1    2    0    0 -0.70442001883E+03 -0.10179764580E+03 -0.94489293813E+03  0.11854390785E+04  0.76634331266E+02 0.  0.
        254    2    1    2    0    0  0.70442001883E+03  0.10179764580E+03 -0.15660360486E+04  0.19418021015E+04  0.90086412541E+03 0.  0.
         23    2    4    4    0    0 -0.11522163243E+03 -0.63184404905E+02 -0.71853162411E+03  0.73648405999E+03  0.94089224506E+02 0.  0.
          4    1    3    3  502    0 -0.27463317137E+03 -0.46717411600E+02 -0.31002718432E+03  0.41680061226E+03  0.00000000000E+00 0. -1.
         -3    1    3    3    0  502 -0.42978684746E+03 -0.55080234199E+02 -0.63486575381E+03  0.76863846626E+03  0.00000000000E+00 0.  1.
         11    1    4    4    0    0  0.21325512790E+03  0.63015186175E+02 -0.11972947520E+03  0.25255456934E+03  0.00000000000E+00 0. -1.
        -11    1    4    4    0    0  0.60638652336E+03  0.10196686453E+03 -0.72777494928E+03  0.95276347221E+03  0.00000000000E+00 0.  1.
          4    1    5    5  503    0 -0.10741651583E+03 -0.81332280360E+02 -0.67959903473E+03  0.69282616557E+03  0.00000000000E+00 0. -1.
         -4    1    5    5    0  503 -0.78051166000E+01  0.18147875456E+02 -0.38932589385E+02  0.43657894416E+02  0.00000000000E+00 0.  1.
<mgrwt>
<rscale>  0 0.18641011E+04</rscale>
<asrwt>0</asrwt>
<pdfrwt beam="1">  1        2 0.43370540E+00 0.18641011E+04</pdfrwt>
<pdfrwt beam="2">  1       -1 0.47408630E-01 0.18641011E+04</pdfrwt>
<totfact> 0.10714962E+01</totfact>
</mgrwt>
</event>
<event>
12    6  0.1663299E-008  0.2635424E+04  0.7818608E-02  0.8356267E-01
         -1   -1    0    0    0  501 -0.00000000000E+00  0.00000000000E+00  0.13136028393E+04  0.13136028393E+04  0.00000000000E+00 0.  1.
          2   -1    0    0  501    0  0.00000000000E+00 -0.00000000000E+00 -0.13218340465E+04  0.13218340465E+04  0.00000000000E+00 0. -1.
         24    2    1    2    0    0  0.10530818873E+04  0.75777620022E+02 -0.49545817065E+03  0.11691812461E+04  0.82354589025E+02 0.  0.
        254    2    1    2    0    0 -0.10530818873E+04 -0.75777620022E+02  0.48722696344E+03  0.14662556396E+04  0.89319190410E+03 0.  0.
         23    2    4    4    0    0 -0.85757794814E+03 -0.24321016043E+03 -0.11549910448E+02  0.89759864682E+03  0.10468434014E+03 0.  0.
         23    2    4    4    0    0 -0.19550393921E+03  0.16743254040E+03  0.49877687389E+03  0.56865699276E+03  0.91306952975E+02 0.  0.
          2    1    3    3  502    0  0.82610405419E+03  0.43150063289E+02 -0.42021029279E+03  0.92783970947E+03  0.00000000000E+00 0. -1.
         -1    1    3    3    0  502  0.22697783316E+03  0.32627556733E+02 -0.75247877860E+02  0.24134153668E+03  0.00000000000E+00 0.  1.
         11    1    5    5    0    0 -0.21285493471E+02 -0.28764363490E+01 -0.17076663364E+02  0.27440090197E+02  0.00000000000E+00 0. -1.
        -11    1    5    5    0    0 -0.83629245467E+03 -0.24033372408E+03  0.55267529164E+01  0.87015855662E+03  0.00000000000E+00 0.  1.
          2    1    6    6  503    0 -0.64099624573E+02  0.13465617172E+02  0.17452225018E+03  0.18640842397E+03  0.00000000000E+00 0. -1.
         -2    1    6    6    0  503 -0.13140431463E+03  0.15396692323E+03  0.32425462370E+03  0.38224856880E+03  0.00000000000E+00 0.  1.
<mgrwt>
<rscale>  0 0.26354240E+04</rscale>
<asrwt>0</asrwt>
<pdfrwt beam="1">  1        2 0.20335908E+00 0.26354240E+04</pdfrwt>
<pdfrwt beam="2">  1       -1 0.20209275E+00 0.26354240E+04</pdfrwt>
<totfact> 0.23486487E+00</totfact>
</mgrwt>
</event>
<event>
12    6  0.1663299E-008  0.1874459E+04  0.7818608E-02  0.8667675E-01
          2   -1    0    0  501    0  0.00000000000E+00  0.00000000000E+00  0.23987032734E+04  0.23987032734E+04  0.00000000000E+00 0. -1.
         -1   -1    0    0    0  501 -0.00000000000E+00 -0.00000000000E+00 -0.36619755770E+03  0.36619755770E+03  0.00000000000E+00 0.  1.
         24    2    1    2    0    0  0.55878370908E+03  0.23913421799E+03  0.13159748014E+04  0.14513921121E+04  0.72972443841E+02 0.  0.
        254    2    1    2    0    0 -0.55878370908E+03 -0.23913421799E+03  0.71653091432E+03  0.13135087190E+04  0.91785848357E+03 0.  0.
         23    2    4    4    0    0  0.10788139056E+03  0.34630004762E+02 -0.13627904950E+03  0.19335076002E+03  0.77297512314E+02 0.  0.
         23    2    4    4    0    0 -0.66666509964E+03 -0.27376422275E+03  0.85280996382E+03  0.11201579589E+04  0.89887784684E+02 0.  0.
          2    1    3    3  502    0  0.54410413666E+03  0.23088159239E+03  0.12412540540E+04  0.13747971661E+04  0.00000000000E+00 0. -1.
         -1    1    3    3    0  502  0.14679572417E+02  0.82526255979E+01  0.74720747354E+02  0.76594946053E+02  0.00000000000E+00 0.  1.
         11    1    5    5    0    0  0.10427216295E+03  0.13930145030E+02 -0.13650437712E+03  0.17233739548E+03  0.00000000000E+00 0. -1.
        -11    1    5    5    0    0  0.36092276038E+01  0.20699859732E+02  0.22532762092E+00  0.21013364542E+02  0.00000000000E+00 0.  1.
          2    1    6    6  503    0 -0.59586794226E+03 -0.26841996211E+03  0.79072339512E+03  0.10258417852E+04  0.00000000000E+00 0. -1.
         -2    1    6    6    0  503 -0.70797157376E+02 -0.53442606392E+01  0.62086568702E+02  0.94316173732E+02  0.00000000000E+00 0.  1.
<mgrwt>
<rscale>  0 0.18744592E+04</rscale>
<asrwt>0</asrwt>
<pdfrwt beam="1">  1        2 0.36903126E+00 0.18744592E+04</pdfrwt>
<pdfrwt beam="2">  1       -1 0.56338088E-01 0.18744592E+04</pdfrwt>
<totfact> 0.13574220E+01</totfact>
</mgrwt>
</event>
<event>
11    6  0.1663299E-008  0.1438681E+04  0.7818608E-02  0.8926285E-01
          2   -1    0    0  501    0  0.00000000000E+00  0.00000000000E+00  0.15478621063E+04  0.15478621063E+04  0.00000000000E+00 0. -1.
         -1   -1    0    0    0  501 -0.00000000000E+00 -0.00000000000E+00 -0.33430049591E+03  0.33430049591E+03  0.00000000000E+00 0.  1.
         24    2    1    2    0    0  0.60190400776E+02 -0.48430557114E+03  0.24886492105E+03  0.55360651206E+03  0.79822620123E+02 0.  0.
        254    2    1    2    0    0 -0.60190400776E+02  0.48430557114E+03  0.96469668931E+03  0.13285560901E+04  0.77217019603E+03 0.  0.
         23    2    4    4    0    0  0.77524435166E+02  0.34833627756E+03  0.63962529430E+02  0.37476806896E+03  0.94929974325E+02 0.  0.
          2    1    3    3  502    0  0.12661995344E+02 -0.25988109625E+02  0.35631889799E+02  0.45883979106E+02  0.00000000000E+00 0. -1.
         -1    1    3    3    0  502  0.47528405431E+02 -0.45831746151E+03  0.21323303125E+03  0.50772253295E+03  0.00000000000E+00 0.  1.
         11    1    4    4    0    0 -0.17472529426E+03  0.18336972728E+03  0.74240525371E+03  0.78442268330E+03  0.00000000000E+00 0.  1.
        -11    1    4    4    0    0  0.37010458317E+02 -0.47400433702E+02  0.15832890617E+03  0.16936533786E+03  0.00000000000E+00 0. -1.
          4    1    5    5  503    0 -0.96803582573E+01  0.33232842001E+02 -0.16077338805E+02  0.38165585893E+02  0.00000000000E+00 0. -1.
         -4    1    5    5    0  503  0.87204793423E+02  0.31510343556E+03  0.80039868236E+02  0.33660248307E+03  0.00000000000E+00 0.  1.
<mgrwt>
<rscale>  0 0.14386814E+04</rscale>
<asrwt>0</asrwt>
<pdfrwt beam="1">  1        2 0.23813263E+00 0.14386814E+04</pdfrwt>
<pdfrwt beam="2">  1       -1 0.51430846E-01 0.14386814E+04</pdfrwt>
<totfact> 0.50166725E+01</totfact>
</mgrwt>
</event>
<event>
11    6  0.1663299E-008  0.1765009E+04  0.7818608E-02  0.8725132E-01
         -1   -1    0    0    0  501 -0.00000000000E+00  0.00000000000E+00  0.52879126785E+03  0.52879126785E+03  0.00000000000E+00 0.  1.
          2   -1    0    0  501    0  0.00000000000E+00 -0.00000000000E+00 -0.14728196019E+04  0.14728196019E+04  0.00000000000E+00 0. -1.
         24    2    1    2    0    0  0.60761651050E+03 -0.48369824351E+02 -0.58146736695E+03  0.84620422279E+03  0.80123804803E+02 0.  0.
        254    2    1    2    0    0 -0.60761651050E+03  0.48369824351E+02 -0.36256096709E+03  0.11554066469E+04  0.91212751368E+03 0.  0.
         23    2    4    4    0    0 -0.57387277454E+03  0.15085156627E+03 -0.60033898793E+03  0.84890915156E+03  0.90297789355E+02 0.  0.
          2    1    3    3  502    0  0.51038155779E+03 -0.15058514162E+02 -0.50448034936E+03  0.71778584290E+03  0.00000000000E+00 0. -1.
         -1    1    3    3    0  502  0.97234952707E+02 -0.33311310189E+02 -0.76987017590E+02  0.12841837988E+03  0.00000000000E+00 0.  1.
         11    1    4    4    0    0  0.61707323205E+02 -0.55855545216E+02  0.13557315314E+03  0.15908398889E+03  0.00000000000E+00 0.  1.
        -11    1    4    4    0    0 -0.95451059169E+02 -0.46626196700E+02  0.10220486771E+03  0.14741350650E+03  0.00000000000E+00 0. -1.
          4    1    5    5  503    0 -0.17461505374E+03  0.87837836727E+02 -0.21269712608E+03  0.28887016114E+03  0.00000000000E+00 0. -1.
         -4    1    5    5    0  503 -0.39925772079E+03  0.63013729539E+02 -0.38764186185E+03  0.56003899041E+03  0.00000000000E+00 0.  1.
<mgrwt>
<rscale>  0 0.17650089E+04</rscale>
<asrwt>0</asrwt>
<pdfrwt beam="1">  1        2 0.22658763E+00 0.17650089E+04</pdfrwt>
<pdfrwt beam="2">  1       -1 0.81352503E-01 0.17650089E+04</pdfrwt>
<totfact> 0.21352707E+01</totfact>
</mgrwt>
</event>
<event>
12    6  0.1663299E-008  0.1794927E+04  0.7818608E-02  0.8709002E-01
         -1   -1    0    0    0  501 -0.00000000000E+00  0.00000000000E+00  0.66102330501E+03  0.66102330501E+03  0.00000000000E+00 0.  1.
          2   -1    0    0  501    0  0.00000000000E+00 -0.00000000000E+00 -0.12184749142E+04  0.12184749142E+04  0.00000000000E+00 0. -1.
         24    2    1    2    0    0  0.66390549383E+02  0.37590532300E+03 -0.77325940053E+03  0.86644810277E+03  0.84200340660E+02 0.  0.
        254    2    1    2    0    0 -0.66390549383E+02 -0.37590532300E+03  0.21580779130E+03  0.10130501165E+04  0.91322780226E+03 0.  0.
         23    2    4    4    0    0 -0.43535072185E+03 -0.40133200341E+03  0.20507144228E+03  0.63101833730E+03  0.74378878705E+02 0.  0.
         23    2    4    4    0    0  0.36896017246E+03  0.25426680411E+02  0.10736349013E+02  0.38203177919E+03  0.95157165659E+02 0.  0.
          2    1    3    3  502    0  0.42962771947E+02  0.20686993453E+03 -0.51764213893E+03  0.55910138041E+03  0.00000000000E+00 0. -1.
         -1    1    3    3    0  502  0.23427777436E+02  0.16903538847E+03 -0.25561726161E+03  0.30734672235E+03  0.00000000000E+00 0.  1.
         11    1    5    5    0    0 -0.32306609218E+03 -0.31166654493E+03  0.18663011185E+03  0.48614661759E+03  0.00000000000E+00 0. -1.
        -11    1    5    5    0    0 -0.11228462967E+03 -0.89665458481E+02  0.18441330431E+02  0.14487171971E+03  0.00000000000E+00 0.  1.
          3    1    6    6  503    0  0.29435042591E+03 -0.15538821529E+02 -0.80364955843E+01  0.29486982462E+03  0.00000000000E+00 0. -1.
         -3    1    6    6    0  503  0.74609746550E+02  0.40965501939E+02  0.18772844597E+02  0.87161954565E+02  0.00000000000E+00 0.  1.
<mgrwt>
<rscale>  0 0.17949265E+04</rscale>
<asrwt>0</asrwt>
<pdfrwt beam="1">  1        2 0.18745768E+00 0.17949265E+04</pdfrwt>
<pdfrwt beam="2">  1       -1 0.10169589E+00 0.17949265E+04</pdfrwt>
<totfact> 0.18235336E+01</totfact>
</mgrwt>
</event>
<event>
12    6  0.1663299E-008  0.1339003E+04  0.7818608E-02  0.8999195E-01
         -1   -1    0    0    0  501 -0.00000000000E+00  0.00000000000E+00  0.66902246368E+03  0.66902246368E+03  0.00000000000E+00 0.  1.
          2   -1    0    0  501    0  0.00000000000E+00 -0.00000000000E+00 -0.66998071445E+03  0.66998071445E+03  0.00000000000E+00 0. -1.
         24    2    1    2    0    0  0.27468051429E+03  0.18804409151E+03  0.12181031843E+03  0.36457342008E+03  0.85241185326E+02 0.  0.
        254    2    1    2    0    0 -0.27468051429E+03 -0.18804409151E+03 -0.12276856920E+03  0.97442975806E+03  0.90754133048E+03 0.  0.
         23    2    4    4    0    0 -0.30949572761E+03 -0.49391881215E+03  0.72879932242E+02  0.59879857884E+03  0.11621039150E+03 0.  0.
         23    2    4    4    0    0  0.34815213328E+02  0.30587472064E+03 -0.19564850144E+03  0.37563117921E+03  0.89716235291E+02 0.  0.
          4    1    3    3  502    0  0.31593981144E+02  0.62487126803E+02  0.24093359127E+02  0.74049379569E+02  0.00000000000E+00 0. -1.
         -3    1    3    3    0  502  0.24308653314E+03  0.12555696470E+03  0.97716959298E+02  0.29052404051E+03  0.00000000000E+00 0.  1.
         11    1    5    5    0    0 -0.11199211698E+03 -0.10383028069E+03  0.51017432836E+02  0.16101471953E+03  0.00000000000E+00 0. -1.
        -11    1    5    5    0    0 -0.19750361064E+03 -0.39008853146E+03  0.21862499407E+02  0.43778385931E+03  0.00000000000E+00 0.  1.
          1    1    6    6  503    0 -0.23258714252E+01  0.94206616254E+01 -0.35178837862E+02  0.36492590709E+02  0.00000000000E+00 0. -1.
         -1    1    6    6    0  503  0.37141084753E+02  0.29645405902E+03 -0.16046966358E+03  0.33913858851E+03  0.00000000000E+00 0.  1.
<mgrwt>
<rscale>  0 0.13390028E+04</rscale>
<asrwt>0</asrwt>
<pdfrwt beam="1">  1        2 0.10307396E+00 0.13390028E+04</pdfrwt>
<pdfrwt beam="2">  1       -1 0.10292653E+00 0.13390028E+04</pdfrwt>
<totfact> 0.43140514E+01</totfact>
</mgrwt>
</event>
<event>
12    6  0.1663299E-008  0.2722206E+04  0.7818608E-02  0.8327836E-01
          2   -1    0    0  501    0  0.00000000000E+00  0.00000000000E+00  0.87196008545E+03  0.87196008545E+03  0.00000000000E+00 0. -1.
         -1   -1    0    0    0  501 -0.00000000000E+00 -0.00000000000E+00 -0.21246397576E+04  0.21246397576E+04  0.00000000000E+00 0.  1.
         24    2    1    2    0    0 -0.56175536510E+02 -0.11964691328E+04 -0.37756751987E+03  0.12585625777E+04  0.82027149783E+02 0.  0.
        254    2    1    2    0    0  0.56175536510E+02  0.11964691328E+04 -0.87511215224E+03  0.17380372653E+04  0.90568105864E+03 0.  0.
         23    2    4    4    0    0 -0.30626849820E+03  0.10198967859E+04 -0.74172446698E+03  0.13031470389E+04  0.11852077109E+03 0.  0.
         23    2    4    4    0    0  0.36244403471E+03  0.17657234687E+03 -0.13338768526E+03  0.43489022640E+03  0.93775063123E+02 0.  0.
          4    1    3    3  502    0 -0.20643243679E+01 -0.84104294306E+03 -0.26825298426E+03  0.88278941830E+03  0.00000000000E+00 0. -1.
         -3    1    3    3    0  502 -0.54111212142E+02 -0.35542618973E+03 -0.10931453561E+03  0.37577315940E+03  0.00000000000E+00 0.  1.
         11    1    5    5    0    0 -0.31718253581E+03  0.99017767503E+03 -0.71730534418E+03  0.12631641010E+04  0.00000000000E+00 0.  1.
        -11    1    5    5    0    0  0.10914037612E+02  0.29719110883E+02 -0.24419122797E+02  0.39982937947E+02  0.00000000000E+00 0. -1.
          2    1    6    6  503    0  0.63956346711E+02  0.38500334623E+02  0.11469409260E+02  0.75526402002E+02  0.00000000000E+00 0. -1.
         -2    1    6    6    0  503  0.29848768800E+03  0.13807201225E+03 -0.14485709452E+03  0.35936382440E+03  0.00000000000E+00 0.  1.
<mgrwt>
<rscale>  0 0.27222058E+04</rscale>
<asrwt>0</asrwt>
<pdfrwt beam="1">  1        2 0.13414771E+00 0.27222058E+04</pdfrwt>
<pdfrwt beam="2">  1       -1 0.32686765E+00 0.27222058E+04</pdfrwt>
<totfact> 0.67525115E-01</totfact>
</mgrwt>
</event>
<event>
12    6  0.1663299E-008  0.1341872E+04  0.7818608E-02  0.8997004E-01
         -1   -1    0    0    0  501 -0.00000000000E+00  0.00000000000E+00  0.11894283480E+04  0.11894283480E+04  0.00000000000E+00 0.  1.
          2   -1    0    0  501    0  0.00000000000E+00 -0.00000000000E+00 -0.37846350658E+03  0.37846350658E+03  0.00000000000E+00 0. -1.
         24    2    1    2    0    0  0.25113134191E+03 -0.24766174510E+03  0.34094533261E+03  0.49688811057E+03  0.79061898029E+02 0.  0.
        254    2    1    2    0    0 -0.25113134191E+03  0.24766174510E+03  0.47001950879E+03  0.10710037440E+04  0.89539231072E+03 0.  0.
         23    2    4    4    0    0 -0.54994455584E+02  0.86681405541E+02 -0.26185901119E+03  0.29100484614E+03  0.74670091226E+02 0.  0.
         23    2    4    4    0    0 -0.19613688633E+03  0.16098033956E+03  0.73187851998E+03  0.77999889785E+03  0.91475487044E+02 0.  0.
          2    1    3    3  502    0  0.11281952342E+03 -0.12961958718E+03  0.11459797341E+03  0.20654824558E+03  0.00000000000E+00 0. -1.
         -1    1    3    3    0  502  0.13831181850E+03 -0.11804215792E+03  0.22634735920E+03  0.29033986499E+03  0.00000000000E+00 0.  1.
         11    1    5    5    0    0 -0.20342139295E+02  0.33852688457E+02 -0.27112886049E+02  0.47905278798E+02  0.00000000000E+00 0. -1.
        -11    1    5    5    0    0 -0.34652316290E+02  0.52828717084E+02 -0.23474612514E+03  0.24309956734E+03  0.00000000000E+00 0.  1.
          2    1    6    6  503    0 -0.16854584693E+03  0.12022392799E+03  0.66807586207E+03  0.69941893945E+03  0.00000000000E+00 0.  1.
         -2    1    6    6    0  503 -0.27591039397E+02  0.40756411567E+02  0.63802657909E+02  0.80579958396E+02  0.00000000000E+00 0. -1.
<mgrwt>
<rscale>  0 0.13418722E+04</rscale>
<asrwt>0</asrwt>
<pdfrwt beam="1">  1        2 0.58225155E-01 0.13418722E+04</pdfrwt>
<pdfrwt beam="2">  1       -1 0.18298897E+00 0.13418722E+04</pdfrwt>
<totfact> 0.18754084E+01</totfact>
</mgrwt>
</event>
<event>
12    6  0.1663299E-008  0.1368810E+04  0.7818608E-02  0.8976710E-01
         -1   -1    0    0    0  501 -0.00000000000E+00  0.00000000000E+00  0.16588106876E+03  0.16588106876E+03  0.00000000000E+00 0.  1.
          2   -1    0    0  501    0  0.00000000000E+00 -0.00000000000E+00 -0.28237698281E+04  0.28237698281E+04  0.00000000000E+00 0. -1.
         24    2    1    2    0    0  0.39753137895E+02  0.15538400008E+03 -0.80430448660E+00  0.17964611643E+03  0.80917122970E+02 0.  0.
        254    2    1    2    0    0 -0.39753137895E+02 -0.15538400008E+03 -0.26570844549E+04  0.28100047804E+04  0.90016918762E+03 0.  0.
         23    2    4    4    0    0 -0.26857217506E+03 -0.14595510117E+03 -0.30315718567E+03  0.44330728021E+03  0.10575046426E+03 0.  0.
         23    2    4    4    0    0  0.22881903717E+03 -0.94288989132E+01 -0.23539272692E+04  0.23666975002E+04  0.88523516652E+02 0.  0.
          2    1    3    3  502    0 -0.78504957543E+01  0.54636821560E+02  0.31598942596E+02  0.63602717921E+02  0.00000000000E+00 0. -1.
         -1    1    3    3    0  502  0.47603633649E+02  0.10074717852E+03 -0.32403247082E+02  0.11604339851E+03  0.00000000000E+00 0.  1.
         11    1    5    5    0    0 -0.92749320362E+02 -0.12135242016E+02 -0.45924423704E+02  0.10420534161E+03  0.00000000000E+00 0.  1.
        -11    1    5    5    0    0 -0.17582285470E+03 -0.13381985915E+03 -0.25723276196E+03  0.33910193861E+03  0.00000000000E+00 0. -1.
          3    1    6    6  503    0 -0.60033384297E+01  0.41163792077E+01 -0.16679282445E+03  0.16695158261E+03  0.00000000000E+00 0. -1.
         -3    1    6    6    0  503  0.23482237560E+03 -0.13545278121E+02 -0.21871344447E+04  0.21997459176E+04  0.00000000000E+00 0.  1.
<mgrwt>
<rscale>  0 0.13688096E+04</rscale>
<asrwt>0</asrwt>
<pdfrwt beam="1">  1        2 0.43442611E+00 0.13688096E+04</pdfrwt>
<pdfrwt beam="2">  1       -1 0.25520166E-01 0.13688096E+04</pdfrwt>
<totfact> 0.33848820E+01</totfact>
</mgrwt>
</event>
<event>
12    6  0.1663299E-008  0.1584375E+04  0.7818608E-02  0.8830205E-01
          2   -1    0    0  501    0  0.00000000000E+00  0.00000000000E+00  0.12915826781E+04  0.12915826781E+04  0.00000000000E+00 0. -1.
         -1   -1    0    0    0  501 -0.00000000000E+00 -0.00000000000E+00 -0.48588516345E+03  0.48588516345E+03  0.00000000000E+00 0.  1.
         24    2    1    2    0    0  0.21711151434E+02  0.18447169723E+03 -0.28677106360E+03  0.34996297136E+03  0.75731481120E+02 0.  0.
        254    2    1    2    0    0 -0.21711151434E+02 -0.18447169723E+03  0.10924685782E+04  0.14275048701E+04  0.89987853556E+03 0.  0.
         23    2    4    4    0    0  0.13296767820E+03 -0.23456296790E+03  0.11841483083E+04  0.12193849517E+04  0.10950915512E+03 0.  0.
         23    2    4    4    0    0 -0.15467882963E+03  0.50091270672E+02 -0.91679730124E+02  0.20811991841E+03  0.92054613092E+02 0.  0.
          4    1    3    3  502    0 -0.74459339985E+01  0.20889776962E+01  0.12246417215E+01  0.78297834115E+01  0.00000000000E+00 0. -1.
         -3    1    3    3    0  502  0.29157085432E+02  0.18238271953E+03 -0.28799570532E+03  0.34213318795E+03  0.00000000000E+00 0.  1.
         11    1    5    5    0    0  0.14039246387E+03 -0.23832666949E+03  0.10783701697E+04  0.11132797798E+04  0.00000000000E+00 0.  1.
        -11    1    5    5    0    0 -0.74247856756E+01  0.37637015894E+01  0.10577813863E+03  0.10610517190E+03  0.00000000000E+00 0. -1.
          2    1    6    6  503    0 -0.11738423253E+03  0.65307964304E+02 -0.99401113947E+02  0.16710706060E+03  0.00000000000E+00 0.  1.
         -2    1    6    6    0  503 -0.37294597103E+02 -0.15216693631E+02  0.77213838232E+01  0.41012857816E+02  0.00000000000E+00 0. -1.
<mgrwt>
<rscale>  0 0.15843748E+04</rscale>
<asrwt>0</asrwt>
<pdfrwt beam="1">  1        2 0.19870503E+00 0.15843748E+04</pdfrwt>
<pdfrwt beam="2">  1       -1 0.74751564E-01 0.15843748E+04</pdfrwt>
<totfact> 0.32947971E+01</totfact>
</mgrwt>
</event>
<event>
11    6  0.1663299E-008  0.1517707E+04  0.7818608E-02  0.8872762E-01
         -1   -1    0    0    0  501 -0.00000000000E+00  0.00000000000E+00  0.60342955885E+03  0.60342955885E+03  0.00000000000E+00 0.  1.
          2   -1    0    0  501    0  0.00000000000E+00 -0.00000000000E+00 -0.95430999983E+03  0.95430999983E+03  0.00000000000E+00 0. -1.
         24    2    1    2    0    0  0.11656824587E+03  0.24171351336E+03 -0.52298782491E+03  0.59310824976E+03  0.79041460303E+02 0.  0.
        254    2    1    2    0    0 -0.11656824587E+03 -0.24171351336E+03  0.17210738393E+03  0.96463130892E+03  0.91042793897E+03 0.  0.
         23    2    4    4    0    0  0.11056211336E+03  0.23456707841E+03 -0.14122884025E+03  0.30938827802E+03  0.92357057507E+02 0.  0.
          4    1    3    3  502    0  0.11585632266E+03  0.23551493003E+03 -0.45843278347E+03  0.52825238923E+03  0.00000000000E+00 0. -1.
         -3    1    3    3    0  502  0.71192320696E+00  0.61985833273E+01 -0.64555041439E+02  0.64855860531E+02  0.00000000000E+00 0.  1.
         11    1    4    4    0    0 -0.24975797592E+02  0.24760570371E+02  0.20225052233E+02  0.40570051124E+02  0.00000000000E+00 0. -1.
        -11    1    4    4    0    0 -0.20215456164E+03 -0.50104116214E+03  0.29311117195E+03  0.61467297978E+03  0.00000000000E+00 0.  1.
          1    1    5    5  503    0  0.49801956393E+02  0.55262619789E+02 -0.82681715569E+02  0.11122256109E+03  0.00000000000E+00 0. -1.
         -1    1    5    5    0  503  0.60760156971E+02  0.17930445862E+03 -0.58547124682E+02  0.19816571692E+03  0.00000000000E+00 0.  1.
<mgrwt>
<rscale>  0 0.15177073E+04</rscale>
<asrwt>0</asrwt>
<pdfrwt beam="1">  1        2 0.14681692E+00 0.15177073E+04</pdfrwt>
<pdfrwt beam="2">  1       -1 0.92835316E-01 0.15177073E+04</pdfrwt>
<totfact> 0.33494958E+01</totfact>
</mgrwt>
</event>
<event>
12    6  0.1663299E-008  0.1719875E+04  0.7818608E-02  0.8750110E-01
         -1   -1    0    0    0  501 -0.00000000000E+00  0.00000000000E+00  0.98069394728E+03  0.98069394728E+03  0.00000000000E+00 0.  1.
          2   -1    0    0  501    0  0.00000000000E+00 -0.00000000000E+00 -0.75405010006E+03  0.75405010006E+03  0.00000000000E+00 0. -1.
         24    2    1    2    0    0 -0.17220462951E+03  0.53927148887E+03 -0.17222135719E+03  0.59724784188E+03  0.81096335489E+02 0.  0.
        254    2    1    2    0    0  0.17220462951E+03 -0.53927148887E+03  0.39886520441E+03  0.11374962055E+04  0.90240566988E+03 0.  0.
         23    2    4    4    0    0 -0.34531984366E+03 -0.30870752675E+03  0.27846667971E+03  0.55140481346E+03  0.10935010332E+03 0.  0.
         23    2    4    4    0    0  0.51752447317E+03 -0.23056396212E+03  0.12039852469E+03  0.58609139201E+03  0.89532084068E+02 0.  0.
          2    1    3    3  502    0 -0.65208044357E+02  0.15658546117E+03 -0.87876848346E+02  0.19103255266E+03  0.00000000000E+00 0. -1.
         -1    1    3    3    0  502 -0.10699658515E+03  0.38268602769E+03 -0.84344508845E+02  0.40621528922E+03  0.00000000000E+00 0.  1.
         11    1    5    5    0    0 -0.19418941163E+03 -0.17210634598E+03  0.21800796596E+03  0.33890646960E+03  0.00000000000E+00 0.  1.
        -11    1    5    5    0    0 -0.15113043204E+03 -0.13660118076E+03  0.60458713755E+02  0.21249834386E+03  0.00000000000E+00 0. -1.
          1    1    6    6  503    0  0.46519466850E+03 -0.18120475419E+03  0.12277791610E+03  0.51411638684E+03  0.00000000000E+00 0. -1.
         -1    1    6    6    0  503  0.52329804668E+02 -0.49359207935E+02 -0.23793914023E+01  0.71975005161E+02  0.00000000000E+00 0.  1.
<mgrwt>
<rscale>  0 0.17198748E+04</rscale>
<asrwt>0</asrwt>
<pdfrwt beam="1">  1        2 0.11600771E+00 0.17198748E+04</pdfrwt>
<pdfrwt beam="2">  1       -1 0.15087599E+00 0.17198748E+04</pdfrwt>
<totfact> 0.13874084E+01</totfact>
</mgrwt>
</event>
<event>
12    6  0.1663299E-008  0.1347187E+04  0.7818608E-02  0.8992960E-01
         -1   -1    0    0    0  501 -0.00000000000E+00  0.00000000000E+00  0.12964548665E+04  0.12964548665E+04  0.00000000000E+00 0.  1.
          2   -1    0    0  501    0  0.00000000000E+00 -0.00000000000E+00 -0.34997629166E+03  0.34997629166E+03  0.00000000000E+00 0. -1.
         24    2    1    2    0    0 -0.29347710364E+03 -0.39155935103E+02 -0.20177684220E+02  0.30893324138E+03  0.85852263079E+02 0.  0.
        254    2    1    2    0    0  0.29347710364E+03  0.39155935103E+02  0.96665625907E+03  0.13374979168E+04  0.87567936862E+03 0.  0.
         23    2    4    4    0    0 -0.19639267253E+03 -0.24173555068E+03  0.52230498725E+03  0.61315701895E+03  0.78440244133E+02 0.  0.
         23    2    4    4    0    0  0.48986977616E+03  0.28089148578E+03  0.44435127182E+03  0.72434089784E+03  0.91374280505E+02 0.  0.
          2    1    3    3  502    0 -0.20134895458E+03 -0.66705446757E+02 -0.14578732948E+02  0.21261128284E+03  0.00000000000E+00 0. -1.
         -1    1    3    3    0  502 -0.92128149056E+02  0.27549511655E+02 -0.55989512720E+01  0.96321958536E+02  0.00000000000E+00 0.  1.
         11    1    5    5    0    0 -0.13634644677E+03 -0.11286064438E+03  0.25524399877E+03  0.31060807702E+03  0.00000000000E+00 0.  1.
        -11    1    5    5    0    0 -0.60046225755E+02 -0.12887490630E+03  0.26706098847E+03  0.30254894194E+03  0.00000000000E+00 0. -1.
          1    1    6    6  503    0  0.35504862227E+03  0.24849762160E+03  0.33555298695E+03  0.54809342193E+03  0.00000000000E+00 0. -1.
         -1    1    6    6    0  503  0.13482115389E+03  0.32393864182E+02  0.10879828487E+03  0.17624747591E+03  0.00000000000E+00 0.  1.
<mgrwt>
<rscale>  0 0.13471874E+04</rscale>
<asrwt>0</asrwt>
<pdfrwt beam="1">  1        2 0.53842507E-01 0.13471874E+04</pdfrwt>
<pdfrwt beam="2">  1       -1 0.19945459E+00 0.13471874E+04</pdfrwt>
<totfact> 0.15692542E+01</totfact>
</mgrwt>
</event>
<event>
12    6  0.1663299E-008  0.2226898E+04  0.7818608E-02  0.8507315E-01
          2   -1    0    0  501    0  0.00000000000E+00  0.00000000000E+00  0.18360989108E+04  0.18360989108E+04  0.00000000000E+00 0. -1.
         -1   -1    0    0    0  501 -0.00000000000E+00 -0.00000000000E+00 -0.67521880403E+03  0.67521880403E+03  0.00000000000E+00 0.  1.
         24    2    1    2    0    0 -0.63519701835E+03 -0.16446507783E+03 -0.25540849108E+03  0.70843773442E+03  0.78272040255E+02 0.  0.
        254    2    1    2    0    0  0.63519701835E+03  0.16446507783E+03  0.14162885978E+04  0.18028799804E+04  0.90220774623E+03 0.  0.
         23    2    4    4    0    0 -0.11382932501E+03 -0.18695876393E+03  0.53068717506E+03  0.58774750455E+03  0.12612516277E+03 0.  0.
         23    2    4    4    0    0  0.74902634336E+03  0.35142384176E+03  0.88560142275E+03  0.12151324758E+04  0.87851432563E+02 0.  0.
          4    1    3    3  502    0 -0.21747833024E+03 -0.55884377729E+02 -0.48128321502E+02  0.22964368732E+03  0.00000000000E+00 0. -1.
         -3    1    3    3    0  502 -0.41771868811E+03 -0.10858070010E+03 -0.20728016958E+03  0.47879404710E+03  0.00000000000E+00 0.  1.
         11    1    5    5    0    0  0.12923291518E+02  0.73900402424E+01  0.10678555934E+02  0.18320909237E+02  0.00000000000E+00 0. -1.
        -11    1    5    5    0    0 -0.12675261652E+03 -0.19434880417E+03  0.52000861913E+03  0.56942659531E+03  0.00000000000E+00 0.  1.
          1    1    6    6  503    0  0.30687780141E+02 -0.14600693418E+01  0.22589893025E+02  0.38133645503E+02  0.00000000000E+00 0. -1.
         -1    1    6    6    0  503  0.71833856321E+03  0.35288391110E+03  0.86301152972E+03  0.11769988303E+04  0.00000000000E+00 0.  1.
<mgrwt>
<rscale>  0 0.22268979E+04</rscale>
<asrwt>0</asrwt>
<pdfrwt beam="1">  1        2 0.28247675E+00 0.22268979E+04</pdfrwt>
<pdfrwt beam="2">  1       -1 0.10387982E+00 0.22268979E+04</pdfrwt>
<totfact> 0.74675436E+00</totfact>
</mgrwt>
</event>
<event>
11    6  0.1663299E-008  0.2223993E+04  0.7818608E-02  0.8508507E-01
         -1   -1    0    0    0  501 -0.00000000000E+00  0.00000000000E+00  0.50211416289E+03  0.50211416289E+03  0.00000000000E+00 0.  1.
          2   -1    0    0  501    0  0.00000000000E+00 -0.00000000000E+00 -0.24626601401E+04  0.24626601401E+04  0.00000000000E+00 0. -1.
         24    2    1    2    0    0  0.32992476277E+03  0.86696785212E+03 -0.78240502261E+03  0.12163478768E+04  0.82830744816E+02 0.  0.
        254    2    1    2    0    0 -0.32992476277E+03 -0.86696785212E+03 -0.11781409546E+04  0.17484264262E+04  0.89916364096E+03 0.  0.
         23    2    4    4    0    0 -0.22895961320E+03 -0.99604850590E+03 -0.10276887112E+04  0.14521371904E+04  0.89572329105E+02 0.  0.
          2    1    3    3  502    0  0.21474589041E+03  0.51349833383E+03 -0.42112507854E+03  0.69795606457E+03  0.00000000000E+00 0. -1.
         -1    1    3    3    0  502  0.11517887236E+03  0.35346951829E+03 -0.36127994407E+03  0.51839181222E+03  0.00000000000E+00 0.  1.
         11    1    4    4    0    0 -0.20451455024E+02  0.16521390526E+03 -0.89211874987E+02  0.18887206025E+03  0.00000000000E+00 0. -1.
        -11    1    4    4    0    0 -0.80513694552E+02 -0.36133251478E+02 -0.61240368417E+02  0.10741717552E+03  0.00000000000E+00 0.  1.
          4    1    5    5  503    0 -0.13627472654E+03 -0.76063238232E+03 -0.78630488081E+03  0.11024553450E+04  0.00000000000E+00 0. -1.
         -4    1    5    5    0  503 -0.92684886660E+02 -0.23541612358E+03 -0.24138383039E+03  0.34968184544E+03  0.00000000000E+00 0.  1.
<mgrwt>
<rscale>  0 0.22239933E+04</rscale>
<asrwt>0</asrwt>
<pdfrwt beam="1">  1        2 0.37887079E+00 0.22239933E+04</pdfrwt>
<pdfrwt beam="2">  1       -1 0.77248333E-01 0.22239933E+04</pdfrwt>
<totfact> 0.63815589E+00</totfact>
</mgrwt>
</event>
<event>
12    6  0.1663299E-008  0.2299440E+04  0.7818608E-02  0.8478142E-01
         -1   -1    0    0    0  501 -0.00000000000E+00  0.00000000000E+00  0.23962529778E+04  0.23962529778E+04  0.00000000000E+00 0.  1.
          2   -1    0    0  501    0  0.00000000000E+00 -0.00000000000E+00 -0.55163462588E+03  0.55163462588E+03  0.00000000000E+00 0. -1.
         24    2    1    2    0    0  0.53090002963E+03  0.59022247835E+03  0.14805022200E+04  0.16818006344E+04  0.79681460264E+02 0.  0.
        254    2    1    2    0    0 -0.53090002963E+03 -0.59022247835E+03  0.36411613192E+03  0.12660869693E+04  0.91661237216E+03 0.  0.
         23    2    4    4    0    0 -0.72054658259E+03 -0.64448651518E+03  0.38532839202E+03  0.10484227372E+04  0.12712993493E+03 0.  0.
         23    2    4    4    0    0  0.18964655296E+03  0.54264036831E+02 -0.21212260098E+02  0.21766423201E+03  0.89539696088E+02 0.  0.
          4    1    3    3  502    0  0.14305649668E+03  0.17799981138E+03  0.35713348922E+03  0.42390261054E+03  0.00000000000E+00 0. -1.
         -3    1    3    3    0  502  0.38784353294E+03  0.41222266697E+03  0.11233687308E+04  0.12578980239E+04  0.00000000000E+00 0.  1.
         11    1    5    5    0    0 -0.65542702103E+03 -0.52834268920E+03  0.32989506329E+03  0.90419098088E+03  0.00000000000E+00 0. -1.
        -11    1    5    5    0    0 -0.65119561563E+02 -0.11614382598E+03  0.55433328727E+02  0.14423175637E+03  0.00000000000E+00 0.  1.
          1    1    6    6  503    0  0.11554619676E+03  0.15688455090E+02  0.29048584112E+02  0.12017017703E+03  0.00000000000E+00 0. -1.
         -1    1    6    6    0  503  0.74100356202E+02  0.38575581740E+02 -0.50260844210E+02  0.97494054981E+02  0.00000000000E+00 0.  1.
<mgrwt>
<rscale>  0 0.22994400E+04</rscale>
<asrwt>0</asrwt>
<pdfrwt beam="1">  1        2 0.84866867E-01 0.22994400E+04</pdfrwt>
<pdfrwt beam="2">  1       -1 0.36865430E+00 0.22994400E+04</pdfrwt>
<totfact> 0.66286305E-01</totfact>
</mgrwt>
</event>
<event>
11    6  0.1663299E-008  0.1130499E+04  0.7818608E-02  0.9175965E-01
          2   -1    0    0  501    0  0.00000000000E+00  0.00000000000E+00  0.83767046421E+03  0.83767046421E+03  0.00000000000E+00 0. -1.
         -1   -1    0    0    0  501 -0.00000000000E+00 -0.00000000000E+00 -0.38142305877E+03  0.38142305877E+03  0.00000000000E+00 0.  1.
         24    2    1    2    0    0 -0.16057812784E+03  0.14080204907E+03  0.58316268434E+02  0.23560080833E+03  0.80600257815E+02 0.  0.
        254    2    1    2    0    0  0.16057812784E+03 -0.14080204907E+03  0.39793113701E+03  0.98349271465E+03  0.87366937557E+03 0.  0.
         23    2    4    4    0    0  0.24068097304E+03 -0.21321177769E+03 -0.17440770694E+03  0.37653254896E+03  0.89286724970E+02 0.  0.
          4    1    3    3  502    0 -0.98635719978E+02  0.11172548848E+03  0.72475969962E+02  0.16572373474E+03  0.00000000000E+00 0. -1.
         -3    1    3    3    0  502 -0.61942407862E+02  0.29076560588E+02 -0.14159701527E+02  0.69877073599E+02  0.00000000000E+00 0.  1.
         11    1    4    4    0    0 -0.14779683530E+02 -0.41735591715E+02  0.31365352082E+03  0.31676304991E+03  0.00000000000E+00 0. -1.
        -11    1    4    4    0    0 -0.65323161670E+02  0.11414532034E+03  0.25868532313E+03  0.29019711578E+03  0.00000000000E+00 0.  1.
          1    1    5    5  503    0  0.21197620397E+03 -0.14543852380E+03 -0.15585872053E+03  0.30062969916E+03  0.00000000000E+00 0. -1.
         -1    1    5    5    0  503  0.28704769074E+02 -0.67773253891E+02 -0.18548986412E+02  0.75902849798E+02  0.00000000000E+00 0.  1.
<mgrwt>
<rscale>  0 0.11304987E+04</rscale>
<asrwt>0</asrwt>
<pdfrwt beam="1">  1        2 0.12887238E+00 0.11304987E+04</pdfrwt>
<pdfrwt beam="2">  1       -1 0.58680471E-01 0.11304987E+04</pdfrwt>
<totfact> 0.10778968E+02</totfact>
</mgrwt>
</event>
<event>
11    6  0.1663299E-008  0.2869692E+04  0.7818608E-02  0.8281952E-01
         -1   -1    0    0    0  501 -0.00000000000E+00  0.00000000000E+00  0.65419156081E+03  0.65419156081E+03  0.00000000000E+00 0.  1.
          2   -1    0    0  501    0  0.00000000000E+00 -0.00000000000E+00 -0.31470653575E+04  0.31470653575E+04  0.00000000000E+00 0. -1.
         24    2    1    2    0    0  0.73594685396E+03 -0.10634211139E+04 -0.11840255010E+04  0.17551993153E+04  0.79536229631E+02 0.  0.
        254    2    1    2    0    0 -0.73594685396E+03  0.10634211139E+04 -0.13088482957E+04  0.20460576030E+04  0.89486625617E+03 0.  0.
         23    2    4    4    0    0 -0.89293037773E+03  0.96132872546E+03 -0.12350400937E+04  0.18042721728E+04  0.92717109912E+02 0.  0.
          2    1    3    3  502    0  0.10258181658E+03 -0.15784556493E+03 -0.21119510008E+03  0.28291628048E+03  0.00000000000E+00 0. -1.
         -1    1    3    3    0  502  0.63336503738E+03 -0.90557554901E+03 -0.97283040093E+03  0.14722830348E+04  0.00000000000E+00 0.  1.
         11    1    4    4    0    0  0.14212375161E+03  0.13119008849E+03 -0.45833629941E+02  0.19877304073E+03  0.00000000000E+00 0.  1.
        -11    1    4    4    0    0  0.14859772161E+02 -0.29097700004E+02 -0.27974572035E+02  0.43012389549E+02  0.00000000000E+00 0. -1.
          4    1    5    5  503    0 -0.15816919367E+03  0.15562198485E+03 -0.16494324577E+03  0.27648141044E+03  0.00000000000E+00 0. -1.
         -4    1    5    5    0  503 -0.73476118406E+03  0.80570674061E+03 -0.10700968479E+04  0.15277907623E+04  0.00000000000E+00 0.  1.
<mgrwt>
<rscale>  0 0.28696924E+04</rscale>
<asrwt>0</asrwt>
<pdfrwt beam="1">  1        2 0.48416390E+00 0.28696924E+04</pdfrwt>
<pdfrwt beam="2">  1       -1 0.10064485E+00 0.28696924E+04</pdfrwt>
<totfact> 0.12953874E+00</totfact>
</mgrwt>
</event>
<event>
12    6  0.1663299E-008  0.2682995E+04  0.7818608E-02  0.8340544E-01
         -1   -1    0    0    0  501 -0.00000000000E+00  0.00000000000E+00  0.66562544111E+03  0.66562544111E+03  0.00000000000E+00 0.  1.
          2   -1    0    0  501    0  0.00000000000E+00 -0.00000000000E+00 -0.27036462607E+04  0.27036462607E+04  0.00000000000E+00 0. -1.
         24    2    1    2    0    0  0.45171949645E+03 -0.59026674622E+03  0.25919962390E+03  0.79157667532E+03  0.83329782900E+02 0.  0.
        254    2    1    2    0    0 -0.45171949645E+03  0.59026674622E+03 -0.22972204435E+04  0.25776950265E+04  0.90267632542E+03 0.  0.
         23    2    4    4    0    0 -0.64150689270E+03  0.13603108210E+03 -0.12310870642E+04  0.13997940224E+04  0.11752615386E+03 0.  0.
         23    2    4    4    0    0  0.18978739625E+03  0.45423566412E+03 -0.10661333793E+04  0.11779010041E+04  0.91984230594E+02 0.  0.
          4    1    3    3  502    0  0.21370927261E+02 -0.41804183851E+02  0.37316348550E+02  0.59973462369E+02  0.00000000000E+00 0. -1.
         -3    1    3    3    0  502  0.43034856918E+03 -0.54846256237E+03  0.22188327535E+03  0.73160321295E+03  0.00000000000E+00 0.  1.
         11    1    5    5    0    0 -0.44336763743E+03  0.88427154387E+02 -0.72742610104E+03  0.85647122311E+03  0.00000000000E+00 0.  1.
        -11    1    5    5    0    0 -0.19813925527E+03  0.47603927715E+02 -0.50366096321E+03  0.54332279933E+03  0.00000000000E+00 0. -1.
          1    1    6    6  503    0  0.63763968962E+02  0.10894538701E+03 -0.19375909711E+03  0.23125208929E+03  0.00000000000E+00 0. -1.
         -1    1    6    6    0  503  0.12602342729E+03  0.34529027711E+03 -0.87237428215E+03  0.94664891478E+03  0.00000000000E+00 0.  1.
<mgrwt>
<rscale>  0 0.26829951E+04</rscale>
<asrwt>0</asrwt>
<pdfrwt beam="1">  1        2 0.41594558E+00 0.26829951E+04</pdfrwt>
<pdfrwt beam="2">  1       -1 0.10240391E+00 0.26829951E+04</pdfrwt>
<totfact> 0.23806229E+00</totfact>
</mgrwt>
</event>
<event>
11    6  0.1663299E-008  0.2326339E+04  0.7818608E-02  0.8467608E-01
         -1   -1    0    0    0  501 -0.00000000000E+00  0.00000000000E+00  0.48920670805E+03  0.48920670805E+03  0.00000000000E+00 0.  1.
          2   -1    0    0  501    0  0.00000000000E+00 -0.00000000000E+00 -0.27656261540E+04  0.27656261540E+04  0.00000000000E+00 0. -1.
         24    2    1    2    0    0 -0.19086142999E+03 -0.60145545884E+03 -0.20065197624E+04  0.21048350925E+04  0.77668884127E+02 0.  0.
        254    2    1    2    0    0  0.19086142999E+03  0.60145545884E+03 -0.26989968359E+03  0.11499977695E+04  0.92275255420E+03 0.  0.
         23    2    4    4    0    0  0.13673989084E+03  0.43703448672E+03  0.25477142255E+03  0.53148797998E+03  0.88735870907E+02 0.  0.
          2    1    3    3  502    0 -0.10133426448E+03 -0.25316129811E+03 -0.75807517735E+03  0.80562848170E+03  0.00000000000E+00 0. -1.
         -1    1    3    3    0  502 -0.89527165516E+02 -0.34829416072E+03 -0.12484445850E+04  0.12992066108E+04  0.00000000000E+00 0.  1.
         11    1    4    4    0    0  0.60551554815E+02  0.14333979951E+03 -0.83128600372E+02  0.17641755331E+03  0.00000000000E+00 0. -1.
        -11    1    4    4    0    0 -0.64300156594E+01  0.21081172603E+02 -0.44154250577E+03  0.44209223624E+03  0.00000000000E+00 0.  1.
          2    1    5    5  503    0  0.14694653848E+03  0.41616944977E+03  0.23058991951E+03  0.49795783664E+03  0.00000000000E+00 0.  1.
         -2    1    5    5    0  503 -0.10206647641E+02  0.20865036952E+02  0.24181503043E+02  0.33530143341E+02  0.00000000000E+00 0. -1.
<mgrwt>
<rscale>  0 0.23263386E+04</rscale>
<asrwt>0</asrwt>
<pdfrwt beam="1">  1        2 0.42548094E+00 0.23263386E+04</pdfrwt>
<pdfrwt beam="2">  1       -1 0.75262572E-01 0.23263386E+04</pdfrwt>
<totfact> 0.44319075E+00</totfact>
</mgrwt>
</event>
<event>
11    6  0.1853956E-008  0.2504957E+04  0.7818608E-02  0.8401222E-01
         -1   -1    0    0    0  501 -0.00000000000E+00  0.00000000000E+00  0.13562875583E+04  0.13562875583E+04  0.00000000000E+00 0.  1.
          2   -1    0    0  501    0  0.00000000000E+00 -0.00000000000E+00 -0.11566150613E+04  0.11566150613E+04  0.00000000000E+00 0. -1.
         24    2    1    2    0    0  0.88186549500E+03  0.53716691155E+03  0.42603674334E+03  0.11199291976E+04  0.80616740005E+02 0.  0.
        254    2    1    2    0    0 -0.88186549500E+03 -0.53716691155E+03 -0.22636424634E+03  0.13929734220E+04  0.90713788384E+03 0.  0.
         23    2    4    4    0    0 -0.48823387224E+03 -0.21774294758E+02  0.26867418921E+03  0.56533627442E+03  0.92589682563E+02 0.  0.
          4    1    3    3  502    0  0.99139559650E+02  0.61997714737E+02  0.76945578746E+02  0.13997496565E+03  0.00000000000E+00 0. -1.
         -3    1    3    3    0  502  0.78272593535E+03  0.47516919681E+03  0.34909116460E+03  0.97995423193E+03  0.00000000000E+00 0.  1.
         11    1    4    4    0    0 -0.91757758471E+02 -0.74262844571E+02 -0.15218654718E+03  0.19260114607E+03  0.00000000000E+00 0. -1.
        -11    1    4    4    0    0 -0.30187386430E+03 -0.44112977222E+03 -0.34285188837E+03  0.63503600153E+03  0.00000000000E+00 0.  1.
          3    1    5    5  503    0 -0.25237176797E+03 -0.55692132835E+02  0.15454229244E+03  0.30112529465E+03  0.00000000000E+00 0. -1.
         -3    1    5    5    0  503 -0.23586210427E+03  0.33917838077E+02  0.11413189677E+03  0.26421097977E+03  0.00000000000E+00 0.  1.
<mgrwt>
<rscale>  0 0.25049572E+04</rscale>
<asrwt>0</asrwt>
<pdfrwt beam="1">  1        2 0.17794078E+00 0.25049572E+04</pdfrwt>
<pdfrwt beam="2">  1       -1 0.20865962E+00 0.25049572E+04</pdfrwt>
<totfact> 0.26834303E+00</totfact>
</mgrwt>
</event>
<event>
12    6  0.1663299E-008  0.1341138E+04  0.7818608E-02  0.8997564E-01
          2   -1    0    0  501    0  0.00000000000E+00  0.00000000000E+00  0.18911313169E+04  0.18911313169E+04  0.00000000000E+00 0. -1.
         -1   -1    0    0    0  501 -0.00000000000E+00 -0.00000000000E+00 -0.23777450300E+03  0.23777450300E+03  0.00000000000E+00 0.  1.
         24    2    1    2    0    0 -0.10568942721E+03  0.27548933038E+03  0.78365163241E+03  0.84118787942E+03  0.80140759438E+02 0.  0.
        254    2    1    2    0    0  0.10568942721E+03 -0.27548933038E+03  0.86970518148E+03  0.12877179405E+04  0.90264376437E+03 0.  0.
         23    2    4    4    0    0 -0.25297471370E+03 -0.11658991336E+03  0.83141664188E+03  0.88311879765E+03  0.10514639647E+03 0.  0.
         23    2    4    4    0    0  0.35866414091E+03 -0.15889941702E+03  0.38288539605E+02  0.40459914284E+03  0.91353507944E+02 0.  0.
          2    1    3    3  502    0 -0.10212270181E+03  0.15779818849E+03  0.47434520050E+03  0.51022807033E+03  0.00000000000E+00 0. -1.
         -1    1    3    3    0  502 -0.35667253936E+01  0.11769114190E+03  0.30930643192E+03  0.33095980909E+03  0.00000000000E+00 0.  1.
         11    1    5    5    0    0  0.22111564359E+01  0.11288803490E+02  0.46895330434E+02  0.48285591158E+02  0.00000000000E+00 0.  1.
        -11    1    5    5    0    0 -0.25518587014E+03 -0.12787871685E+03  0.78452131145E+03  0.83483320649E+03  0.00000000000E+00 0. -1.
          3    1    6    6  503    0  0.32787764058E+03 -0.17087545815E+03  0.34127220337E+02  0.37130423719E+03  0.00000000000E+00 0. -1.
         -3    1    6    6    0  503  0.30786500330E+02  0.11976041127E+02  0.41613192678E+01  0.33294905641E+02  0.00000000000E+00 0.  1.
<mgrwt>
<rscale>  0 0.13411380E+04</rscale>
<asrwt>0</asrwt>
<pdfrwt beam="1">  1        2 0.29094327E+00 0.13411380E+04</pdfrwt>
<pdfrwt beam="2">  1       -1 0.36580694E-01 0.13411380E+04</pdfrwt>
<totfact> 0.61301727E+01</totfact>
</mgrwt>
</event>
<event>
11    6  0.1663299E-008  0.1402377E+04  0.7818608E-02  0.8952100E-01
          2   -1    0    0  501    0  0.00000000000E+00  0.00000000000E+00  0.18171595330E+04  0.18171595330E+04  0.00000000000E+00 0. -1.
         -1   -1    0    0    0  501 -0.00000000000E+00 -0.00000000000E+00 -0.27056806088E+03  0.27056806088E+03  0.00000000000E+00 0.  1.
         24    2    1    2    0    0 -0.90386218707E+02 -0.36418019186E+03  0.21732720926E+03  0.44122491705E+03  0.81556304906E+02 0.  0.
        254    2    1    2    0    0  0.90386218707E+02  0.36418019186E+03  0.13292642629E+04  0.16465026768E+04  0.89623138956E+03 0.  0.
         23    2    4    4    0    0 -0.24939343856E+03  0.16996169558E+03  0.89817092673E+02  0.32833981083E+03  0.93036853314E+02 0.  0.
          2    1    3    3  502    0 -0.66001914134E+02 -0.14750098085E+03  0.12561672495E+03  0.20467621651E+03  0.00000000000E+00 0. -1.
         -1    1    3    3    0  502 -0.24384304573E+02 -0.21667921101E+03  0.91710484311E+02  0.23654870054E+03  0.00000000000E+00 0.  1.
         11    1    4    4    0    0  0.25297785125E+03  0.24066172909E+03  0.92725106027E+03  0.99081299438E+03  0.00000000000E+00 0.  1.
        -11    1    4    4    0    0  0.86801806020E+02 -0.46443232816E+02  0.31219610993E+03  0.32734987164E+03  0.00000000000E+00 0. -1.
          1    1    5    5  503    0 -0.25833516438E+02  0.38929615006E+02  0.45935043660E+02  0.65520330677E+02  0.00000000000E+00 0. -1.
         -1    1    5    5    0  503 -0.22355992213E+03  0.13103208057E+03  0.43882049013E+02  0.26281948015E+03  0.00000000000E+00 0.  1.
<mgrwt>
<rscale>  0 0.14023770E+04</rscale>
<asrwt>0</asrwt>
<pdfrwt beam="1">  1        2 0.27956300E+00 0.14023770E+04</pdfrwt>
<pdfrwt beam="2">  1       -1 0.41625857E-01 0.14023770E+04</pdfrwt>
<totfact> 0.52978792E+01</totfact>
</mgrwt>
</event>
<event>
11    6  0.1663299E-008  0.1516794E+04  0.7818608E-02  0.8873361E-01
          2   -1    0    0  501    0  0.00000000000E+00  0.00000000000E+00  0.22827408868E+04  0.22827408868E+04  0.00000000000E+00 0. -1.
         -1   -1    0    0    0  501 -0.00000000000E+00 -0.00000000000E+00 -0.25196299515E+03  0.25196299515E+03  0.00000000000E+00 0.  1.
         24    2    1    2    0    0 -0.24416005642E+03  0.24708757749E+02  0.13755876584E+04  0.13994939936E+04  0.78213658776E+02 0.  0.
        254    2    1    2    0    0  0.24416005642E+03 -0.24708757749E+02  0.65519023325E+03  0.11352098883E+04  0.89398131575E+03 0.  0.
         23    2    4    4    0    0 -0.19172628304E+03 -0.31457121152E+03  0.20242976130E+03  0.42982292543E+03  0.89754800656E+02 0.  0.
          4    1    3    3  502    0 -0.18862503559E+03  0.30522855040E+02  0.12034874844E+04  0.12185619286E+04  0.00000000000E+00 0. -1.
         -3    1    3    3    0  502 -0.55535020835E+02 -0.58140972909E+01  0.17210017398E+03  0.18093206501E+03  0.00000000000E+00 0.  1.
         11    1    4    4    0    0  0.44451968503E+02  0.50115044955E+01  0.33916454605E+01  0.44861965405E+02  0.00000000000E+00 0.  1.
        -11    1    4    4    0    0  0.39143437096E+03  0.28485094927E+03  0.44936882649E+03  0.66052499747E+03  0.00000000000E+00 0. -1.
          2    1    5    5  503    0 -0.96353628992E+02 -0.23165053166E+03  0.15458193590E+03  0.29468893014E+03  0.00000000000E+00 0. -1.
         -2    1    5    5    0  503 -0.95372654047E+02 -0.82920679853E+02  0.47847825399E+02  0.13513399529E+03  0.00000000000E+00 0.  1.
<mgrwt>
<rscale>  0 0.15167943E+04</rscale>
<asrwt>0</asrwt>
<pdfrwt beam="1">  1        2 0.35119089E+00 0.15167943E+04</pdfrwt>
<pdfrwt beam="2">  1       -1 0.38763539E-01 0.15167943E+04</pdfrwt>
<totfact> 0.32920651E+01</totfact>
</mgrwt>
</event>
<event>
12    6  0.1663299E-008  0.2514903E+04  0.7818608E-02  0.8397695E-01
          2   -1    0    0  501    0  0.00000000000E+00  0.00000000000E+00  0.47742370125E+03  0.47742370125E+03  0.00000000000E+00 0. -1.
         -1   -1    0    0    0  501 -0.00000000000E+00 -0.00000000000E+00 -0.33119108012E+04  0.33119108012E+04  0.00000000000E+00 0.  1.
         24    2    1    2    0    0  0.57223476412E+03 -0.89140082701E+03 -0.16221695460E+04  0.19387868984E+04  0.73569977884E+02 0.  0.
        254    2    1    2    0    0 -0.57223476412E+03  0.89140082701E+03 -0.12123175539E+04  0.18505476040E+04  0.91255932608E+03 0.  0.
         23    2    4    4    0    0  0.17339489655E+03  0.48460998869E+03 -0.62916790552E+03  0.81654910961E+03  0.77379349812E+02 0.  0.
         23    2    4    4    0    0 -0.74562966068E+03  0.40679083832E+03 -0.58314964835E+03  0.10339984944E+04  0.87447109925E+02 0.  0.
          2    1    3    3  502    0  0.68645383019E+02 -0.13367909742E+03 -0.19308441234E+03  0.24467096269E+03  0.00000000000E+00 0. -1.
         -1    1    3    3    0  502  0.50358938110E+03 -0.75772172959E+03 -0.14290851337E+04  0.16941159357E+04  0.00000000000E+00 0.  1.
         11    1    5    5    0    0  0.11396849499E+03  0.22364770824E+03 -0.27042038995E+03  0.36896382283E+03  0.00000000000E+00 0. -1.
        -11    1    5    5    0    0  0.59426401567E+02  0.26096228045E+03 -0.35874751556E+03  0.44758528678E+03  0.00000000000E+00 0.  1.
          4    1    6    6  503    0 -0.60494849950E+03  0.35364289452E+03 -0.44720624241E+03  0.83127577081E+03  0.00000000000E+00 0. -1.
         -4    1    6    6    0  503 -0.14068116118E+03  0.53147943795E+02 -0.13594340595E+03  0.20272272359E+03  0.00000000000E+00 0.  1.
<mgrwt>
<rscale>  0 0.25149033E+04</rscale>
<asrwt>0</asrwt>
<pdfrwt beam="1">  1        2 0.73449797E-01 0.25149033E+04</pdfrwt>
<pdfrwt beam="2">  1       -1 0.50952476E+00 0.25149033E+04</pdfrwt>
<totfact> 0.85143926E-02</totfact>
</mgrwt>
</event>
<event>
11    6  0.1663299E-008  0.2210357E+04  0.7818608E-02  0.8514130E-01
         -1   -1    0    0    0  501 -0.00000000000E+00  0.00000000000E+00  0.10658424766E+04  0.10658424766E+04  0.00000000000E+00 0.  1.
          2   -1    0    0  501    0  0.00000000000E+00 -0.00000000000E+00 -0.11459661641E+04  0.11459661641E+04  0.00000000000E+00 0. -1.
         24    2    1    2    0    0  0.68139040502E+03 -0.32191528875E+03  0.49088847018E+03  0.90291723999E+03  0.79785430578E+02 0.  0.
        254    2    1    2    0    0 -0.68139040502E+03  0.32191528875E+03 -0.57101215762E+03  0.13088914007E+04  0.90510743979E+03 0.  0.
         23    2    4    4    0    0 -0.70971172868E+03  0.30390516710E+03 -0.72666631971E+03  0.10643772645E+04  0.93839930200E+02 0.  0.
          4    1    3    3  502    0  0.10217275996E+03 -0.80425234925E+02  0.75685567588E+02  0.15045197384E+03  0.00000000000E+00 0. -1.
         -3    1    3    3    0  502  0.57921764506E+03 -0.24149005382E+03  0.41520290259E+03  0.75246526616E+03  0.00000000000E+00 0.  1.
         11    1    4    4    0    0 -0.75127158907E+02 -0.51496259117E+01  0.32497704492E+02  0.82016519371E+02  0.00000000000E+00 0. -1.
        -11    1    4    4    0    0  0.10344848256E+03  0.23159747565E+02  0.12315645759E+03  0.16249761690E+03  0.00000000000E+00 0.  1.
          1    1    5    5  503    0 -0.28366086116E+03  0.94875525549E+02 -0.22893650533E+03  0.37666533285E+03  0.00000000000E+00 0. -1.
         -1    1    5    5    0  503 -0.42605086752E+03  0.20902964155E+03 -0.49772981437E+03  0.68771193161E+03  0.00000000000E+00 0.  1.
<mgrwt>
<rscale>  0 0.22103569E+04</rscale>
<asrwt>0</asrwt>
<pdfrwt beam="1">  1        2 0.17630249E+00 0.22103569E+04</pdfrwt>
<pdfrwt beam="2">  1       -1 0.16397577E+00 0.22103569E+04</pdfrwt>
<totfact> 0.57987386E+00</totfact>
</mgrwt>
</event>
<event>
12    6  0.1663299E-008  0.2609454E+04  0.7818608E-02  0.8364997E-01
         -1   -1    0    0    0  501 -0.00000000000E+00  0.00000000000E+00  0.49200138841E+03  0.49200138841E+03  0.00000000000E+00 0.  1.
          2   -1    0    0  501    0  0.00000000000E+00 -0.00000000000E+00 -0.34599759369E+04  0.34599759369E+04  0.00000000000E+00 0. -1.
         24    2    1    2    0    0  0.81500916173E+03  0.52942936175E+03 -0.40521808042E+03  0.10560103409E+04  0.80129674122E+02 0.  0.
        254    2    1    2    0    0 -0.81500916173E+03 -0.52942936175E+03 -0.25627564680E+04  0.28959669844E+04  0.93507682954E+03 0.  0.
         23    2    4    4    0    0 -0.54912797625E+03 -0.56501971503E+03 -0.24750586573E+04  0.26002178492E+04  0.12011949795E+03 0.  0.
         23    2    4    4    0    0 -0.26588118549E+03  0.35590353273E+02 -0.87697810760E+02  0.29574913512E+03  0.88414743511E+02 0.  0.
          2    1    3    3  502    0  0.92289908276E+02  0.54469350964E+02 -0.18855218892E+02  0.10881110533E+03  0.00000000000E+00 0. -1.
         -1    1    3    3    0  502  0.72271925346E+03  0.47496001079E+03 -0.38636286153E+03  0.94719923561E+03  0.00000000000E+00 0.  1.
         11    1    5    5    0    0 -0.12053706947E+03 -0.79716540677E+02 -0.34839479105E+03  0.37717746805E+03  0.00000000000E+00 0. -1.
        -11    1    5    5    0    0 -0.42859090677E+03 -0.48530317435E+03 -0.21266638662E+04  0.22230403812E+04  0.00000000000E+00 0.  1.
          1    1    6    6  503    0 -0.15134827396E+02 -0.79858881506E+01 -0.30382875236E+02  0.34870568069E+02  0.00000000000E+00 0. -1.
         -1    1    6    6    0  503 -0.25074635809E+03  0.43576241423E+02 -0.57314935524E+02  0.26087856705E+03  0.00000000000E+00 0.  1.
<mgrwt>
<rscale>  0 0.26094543E+04</rscale>
<asrwt>0</asrwt>
<pdfrwt beam="1">  1        2 0.53230397E+00 0.26094543E+04</pdfrwt>
<pdfrwt beam="2">  1       -1 0.75692524E-01 0.26094543E+04</pdfrwt>
<totfact> 0.15287535E+00</totfact>
</mgrwt>
</event>
<event>
12    6  0.1663299E-008  0.1866913E+04  0.7818608E-02  0.8671503E-01
         -1   -1    0    0    0  501 -0.00000000000E+00  0.00000000000E+00  0.82722641994E+03  0.82722641994E+03  0.00000000000E+00 0.  1.
          2   -1    0    0  501    0  0.00000000000E+00 -0.00000000000E+00 -0.10533286646E+04  0.10533286646E+04  0.00000000000E+00 0. -1.
         24    2    1    2    0    0  0.46432798950E+03  0.64222273679E+03 -0.67620214477E+02  0.79944714034E+03  0.80577362297E+02 0.  0.
        254    2    1    2    0    0 -0.46432798950E+03 -0.64222273679E+03 -0.15848203014E+03  0.10811079442E+04  0.71807193759E+03 0.  0.
         23    2    4    4    0    0 -0.46582403507E+03 -0.53308116479E+02 -0.68809727629E+02  0.47822877626E+03  0.64297720753E+02 0.  0.
         23    2    4    4    0    0  0.14960455719E+01 -0.58891462031E+03 -0.89672302508E+02  0.60287916789E+03  0.92733494911E+02 0.  0.
          4    1    3    3  502    0  0.16433659639E+03  0.20235186745E+03  0.12733002714E+02  0.26098836091E+03  0.00000000000E+00 0. -1.
         -3    1    3    3    0  502  0.29999139311E+03  0.43987086934E+03 -0.80353217191E+02  0.53845877943E+03  0.00000000000E+00 0.  1.
         11    1    5    5    0    0 -0.11071721359E+03 -0.33443863529E+02 -0.35633086435E+02  0.12102276746E+03  0.00000000000E+00 0.  1.
        -11    1    5    5    0    0 -0.35510682148E+03 -0.19864252951E+02 -0.33176641194E+02  0.35720600880E+03  0.00000000000E+00 0. -1.
          1    1    6    6  503    0 -0.44030135306E+02 -0.32797903058E+03 -0.39185840696E+02  0.33323329279E+03  0.00000000000E+00 0. -1.
         -1    1    6    6    0  503  0.45526180878E+02 -0.26093558973E+03 -0.50486461812E+02  0.26964587510E+03  0.00000000000E+00 0.  1.
<mgrwt>
<rscale>  0 0.18669133E+04</rscale>
<asrwt>0</asrwt>
<pdfrwt beam="1">  1        2 0.16205056E+00 0.18669133E+04</pdfrwt>
<pdfrwt beam="2">  1       -1 0.12726560E+00 0.18669133E+04</pdfrwt>
<totfact> 0.13352284E+01</totfact>
</mgrwt>
</event>
<event>
11    6  0.1663299E-008  0.1646013E+04  0.7818608E-02  0.8792769E-01
         -1   -1    0    0    0  501 -0.00000000000E+00  0.00000000000E+00  0.67664220190E+03  0.67664220190E+03  0.00000000000E+00 0.  1.
          2   -1    0    0  501    0  0.00000000000E+00 -0.00000000000E+00 -0.10010309375E+04  0.10010309375E+04  0.00000000000E+00 0. -1.
         24    2    1    2    0    0 -0.24734416199E+03 -0.21230621651E+03 -0.59309296040E+03  0.68144417601E+03  0.79710986160E+02 0.  0.
        254    2    1    2    0    0  0.24734416199E+03  0.21230621651E+03  0.26870422482E+03  0.99622896337E+03  0.90222897481E+03 0.  0.
         23    2    4    4    0    0 -0.23073076547E+02  0.49105065183E+03  0.70523346263E+02  0.50523023127E+03  0.92848988660E+02 0.  0.
          2    1    3    3  502    0 -0.13193251594E+03 -0.16380516862E+03 -0.37756427829E+03  0.43219568053E+03  0.00000000000E+00 0. -1.
         -1    1    3    3    0  502 -0.11541164605E+03 -0.48501047886E+02 -0.21552868210E+03  0.24924849548E+03  0.00000000000E+00 0.  1.
         11    1    4    4    0    0  0.13233843307E+03 -0.25494619095E+02  0.14450942326E+03  0.19760164442E+03  0.00000000000E+00 0.  1.
        -11    1    4    4    0    0  0.13807880547E+03 -0.25324981623E+03  0.53671455296E+02  0.29339708767E+03  0.00000000000E+00 0. -1.
          4    1    5    5  503    0  0.13771755673E+02  0.30109872529E+03  0.78858034018E+02  0.31155849074E+03  0.00000000000E+00 0. -1.
         -4    1    5    5    0  503 -0.36844832220E+02  0.18995192655E+03 -0.83346877553E+01  0.19367174053E+03  0.00000000000E+00 0.  1.
<mgrwt>
<rscale>  0 0.16460131E+04</rscale>
<asrwt>0</asrwt>
<pdfrwt beam="1">  1        2 0.15400476E+00 0.16460131E+04</pdfrwt>
<pdfrwt beam="2">  1       -1 0.10409880E+00 0.16460131E+04</pdfrwt>
<totfact> 0.23821565E+01</totfact>
</mgrwt>
</event>
<event>
12    6  0.1663299E-008  0.1488176E+04  0.7818608E-02  0.8892354E-01
         -1   -1    0    0    0  501 -0.00000000000E+00  0.00000000000E+00  0.36616361842E+03  0.36616361842E+03  0.00000000000E+00 0.  1.
          2   -1    0    0  501    0  0.00000000000E+00 -0.00000000000E+00 -0.15120757255E+04  0.15120757255E+04  0.00000000000E+00 0. -1.
         24    2    1    2    0    0 -0.30482614429E+03  0.10235545114E+03 -0.79811093972E+03  0.86408533447E+03  0.79162974386E+02 0.  0.
        254    2    1    2    0    0  0.30482614429E+03 -0.10235545114E+03 -0.34780116740E+03  0.10141540095E+04  0.89674248606E+03 0.  0.
         23    2    4    4    0    0  0.17387160026E+03  0.84932824602E+01  0.28613923960E+03  0.35104668583E+03  0.10514105749E+03 0.  0.
         23    2    4    4    0    0  0.13095454403E+03 -0.11084873360E+03 -0.63394040700E+03  0.66310732366E+03  0.91620678422E+02 0.  0.
          4    1    3    3  502    0 -0.11551505981E+03  0.71723761390E+02 -0.39345322960E+03  0.41628532387E+03  0.00000000000E+00 0. -1.
         -3    1    3    3    0  502 -0.18931108448E+03  0.30631689751E+02 -0.40465771013E+03  0.44780001060E+03  0.00000000000E+00 0.  1.
         11    1    5    5    0    0 -0.28177330425E+01  0.11005058110E+02 -0.33878427205E+01  0.11854467588E+02  0.00000000000E+00 0.  1.
        -11    1    5    5    0    0  0.17668933330E+03 -0.25117756494E+01  0.28952708233E+03  0.33919221825E+03  0.00000000000E+00 0. -1.
          2    1    6    6  503    0  0.23471145752E+02 -0.64528903692E+02 -0.14621398802E+03  0.16153453001E+03  0.00000000000E+00 0.  1.
         -2    1    6    6    0  503  0.10748339828E+03 -0.46319829909E+02 -0.48772641898E+03  0.50157279364E+03  0.00000000000E+00 0. -1.
<mgrwt>
<rscale>  0 0.14881762E+04</rscale>
<asrwt>0</asrwt>
<pdfrwt beam="1">  1        2 0.23262704E+00 0.14881762E+04</pdfrwt>
<pdfrwt beam="2">  1       -1 0.56332864E-01 0.14881762E+04</pdfrwt>
<totfact> 0.43905555E+01</totfact>
</mgrwt>
</event>
<event>
11    6  0.1663299E-008  0.1631222E+04  0.7818608E-02  0.8801594E-01
          2   -1    0    0  501    0  0.00000000000E+00  0.00000000000E+00  0.81947294991E+03  0.81947294991E+03  0.00000000000E+00 0. -1.
         -1   -1    0    0    0  501 -0.00000000000E+00 -0.00000000000E+00 -0.81176703457E+03  0.81176703457E+03  0.00000000000E+00 0.  1.
         24    2    1    2    0    0  0.27678989486E+03  0.20365302779E+03  0.45075795883E+03  0.57230380483E+03  0.79130941831E+02 0.  0.
        254    2    1    2    0    0 -0.27678989486E+03 -0.20365302779E+03 -0.44305204349E+03  0.10589361797E+04  0.89831148146E+03 0.  0.
         23    2    4    4    0    0 -0.49675235723E+03 -0.24462366191E+03 -0.54347545344E+03  0.78118989374E+03  0.91040876520E+02 0.  0.
          4    1    3    3  502    0  0.22147251428E+03  0.14788990677E+03  0.39331919460E+03  0.47499630309E+03  0.00000000000E+00 0. -1.
         -3    1    3    3    0  502  0.55317380571E+02  0.55763121023E+02  0.57438764231E+02  0.97307501745E+02  0.00000000000E+00 0.  1.
         11    1    4    4    0    0  0.45296062991E+02 -0.44268531690E+02  0.13107920780E+02  0.64678078262E+02  0.00000000000E+00 0.  1.
        -11    1    4    4    0    0  0.17466639939E+03  0.85239165816E+02  0.87315489170E+02  0.21306820765E+03  0.00000000000E+00 0. -1.
          2    1    5    5  503    0 -0.43332726168E+03 -0.23544393494E+03 -0.44841700515E+03  0.66654645204E+03  0.00000000000E+00 0. -1.
         -2    1    5    5    0  503 -0.63425095554E+02 -0.91797269733E+01 -0.95058448288E+02  0.11464344170E+03  0.00000000000E+00 0.  1.
<mgrwt>
<rscale>  0 0.16312218E+04</rscale>
<asrwt>0</asrwt>
<pdfrwt beam="1">  1        2 0.12607276E+00 0.16312218E+04</pdfrwt>
<pdfrwt beam="2">  1       -1 0.12488724E+00 0.16312218E+04</pdfrwt>
<totfact> 0.20434705E+01</totfact>
</mgrwt>
</event>
<event>
12    6  0.1663299E-008  0.1520110E+04  0.7818608E-02  0.8871189E-01
         -1   -1    0    0    0  501 -0.00000000000E+00  0.00000000000E+00  0.20694020199E+04  0.20694020199E+04  0.00000000000E+00 0.  1.
          2   -1    0    0  501    0  0.00000000000E+00 -0.00000000000E+00 -0.27915494699E+03  0.27915494699E+03  0.00000000000E+00 0. -1.
         24    2    1    2    0    0 -0.10897242229E+03  0.28086929402E+03 -0.78073894921E+01  0.31162536038E+03  0.79289726688E+02 0.  0.
        254    2    1    2    0    0  0.10897242229E+03 -0.28086929402E+03  0.17980544624E+04  0.20369316065E+04  0.90847563025E+03 0.  0.
         23    2    4    4    0    0 -0.77032900175E+02 -0.51789454976E+03  0.15458546244E+04  0.16338592907E+04  0.75371277998E+02 0.  0.
         23    2    4    4    0    0  0.18600532246E+03  0.23702525574E+03  0.25219983799E+03  0.40307231584E+03  0.89908740800E+02 0.  0.
          4    1    3    3  502    0 -0.11410722445E+03  0.22437106381E+03  0.10713287570E+02  0.25194762844E+03  0.00000000000E+00 0. -1.
         -3    1    3    3    0  502  0.51348021670E+01  0.56498230207E+02 -0.18520677062E+02  0.59677731933E+02  0.00000000000E+00 0.  1.
         11    1    5    5    0    0 -0.31114932190E+02 -0.12875527065E+03  0.49188517881E+03  0.50940856673E+03  0.00000000000E+00 0. -1.
        -11    1    5    5    0    0 -0.45917967985E+02 -0.38913927911E+03  0.10539694456E+04  0.11244507240E+04  0.00000000000E+00 0.  1.
          4    1    6    6  503    0  0.12109083411E+03  0.83087744579E+02  0.10662803139E+03  0.18148305839E+03  0.00000000000E+00 0. -1.
         -4    1    6    6    0  503  0.64914488351E+02  0.15393751116E+03  0.14557180659E+03  0.22158925745E+03  0.00000000000E+00 0.  1.
<mgrwt>
<rscale>  0 0.15201103E+04</rscale>
<asrwt>0</asrwt>
<pdfrwt beam="1">  1        2 0.42946916E-01 0.15201103E+04</pdfrwt>
<pdfrwt beam="2">  1       -1 0.31836953E+00 0.15201103E+04</pdfrwt>
<totfact> 0.33081548E+00</totfact>
</mgrwt>
</event>
<event>
12    6  0.1663299E-008  0.1374103E+04  0.7818608E-02  0.8972781E-01
         -1   -1    0    0    0  501 -0.00000000000E+00  0.00000000000E+00  0.57269719046E+03  0.57269719046E+03  0.00000000000E+00 0.  1.
          2   -1    0    0  501    0  0.00000000000E+00 -0.00000000000E+00 -0.82423949052E+03  0.82423949052E+03  0.00000000000E+00 0. -1.
         24    2    1    2    0    0 -0.25347280044E+03  0.12429494040E+03 -0.34435573978E+03  0.45226870656E+03  0.79173320247E+02 0.  0.
        254    2    1    2    0    0  0.25347280044E+03 -0.12429494040E+03  0.92813439719E+02  0.94466797443E+03  0.89670817691E+03 0.  0.
         23    2    4    4    0    0  0.29304987303E+03 -0.46835897425E+03  0.14249548419E+03  0.58313396387E+03  0.12042383471E+03 0.  0.
         23    2    4    4    0    0 -0.39577072588E+02  0.34406403385E+03 -0.49682044475E+02  0.36153401055E+03  0.91061139791E+02 0.  0.
          2    1    3    3  502    0 -0.24579491863E+03  0.13431956055E+03 -0.32374755319E+03  0.42809971335E+03  0.00000000000E+00 0. -1.
         -1    1    3    3    0  502 -0.76778818163E+01 -0.10024620153E+02 -0.20608186590E+02  0.24168993213E+02  0.00000000000E+00 0.  1.
         11    1    5    5    0    0  0.22955457809E+03 -0.41222036664E+03  0.81744389487E+02  0.47885601197E+03  0.00000000000E+00 0.  1.
        -11    1    5    5    0    0  0.63495294942E+02 -0.56138607611E+02  0.60751094707E+02  0.10427795190E+03  0.00000000000E+00 0. -1.
          4    1    6    6  503    0 -0.21660012137E+02  0.69120922642E+02  0.24031492229E+02  0.76317564763E+02  0.00000000000E+00 0. -1.
         -4    1    6    6    0  503 -0.17917060451E+02  0.27494311121E+03 -0.73713536704E+02  0.28521644579E+03  0.00000000000E+00 0.  1.
<mgrwt>
<rscale>  0 0.13741028E+04</rscale>
<asrwt>0</asrwt>
<pdfrwt beam="1">  1        2 0.12680607E+00 0.13741028E+04</pdfrwt>
<pdfrwt beam="2">  1       -1 0.88107261E-01 0.13741028E+04</pdfrwt>
<totfact> 0.46653033E+01</totfact>
</mgrwt>
</event>
<event>
12    6  0.1663299E-008  0.1908615E+04  0.7818608E-02  0.8650580E-01
          2   -1    0    0  501    0  0.00000000000E+00  0.00000000000E+00  0.15870472115E+04  0.15870472115E+04  0.00000000000E+00 0. -1.
         -1   -1    0    0    0  501 -0.00000000000E+00 -0.00000000000E+00 -0.57383457833E+03  0.57383457833E+03  0.00000000000E+00 0.  1.
         24    2    1    2    0    0 -0.31719650756E+03  0.65921872959E+03  0.24218899786E+03  0.77477659328E+03  0.80251485719E+02 0.  0.
        254    2    1    2    0    0  0.31719650756E+03 -0.65921872959E+03  0.77102363527E+03  0.13861051965E+04  0.88973434900E+03 0.  0.
         23    2    4    4    0    0 -0.60105743488E+01  0.45898337049E+02 -0.15422784880E+03  0.17552860305E+03  0.69866134808E+02 0.  0.
         23    2    4    4    0    0  0.32320708190E+03 -0.70511706664E+03  0.92525148408E+03  0.12105765935E+04  0.88048193597E+02 0.  0.
          2    1    3    3  502    0 -0.15655522703E+03  0.26819661438E+03  0.70115823987E+02  0.31836330167E+03  0.00000000000E+00 0. -1.
         -1    1    3    3    0  502 -0.16064128053E+03  0.39102211521E+03  0.17207317388E+03  0.45641329161E+03  0.00000000000E+00 0.  1.
         11    1    5    5    0    0 -0.11855233970E+02  0.18111967676E+02 -0.32328239898E+01  0.21887007482E+02  0.00000000000E+00 0.  1.
        -11    1    5    5    0    0  0.58446596210E+01  0.27786369373E+02 -0.15099502481E+03  0.15364159556E+03  0.00000000000E+00 0. -1.
          2    1    6    6  503    0  0.13183202746E+03 -0.21461296768E+03  0.34340651558E+03  0.42587139409E+03  0.00000000000E+00 0.  1.
         -2    1    6    6    0  503  0.19137505444E+03 -0.49050409896E+03  0.58184496850E+03  0.78470519937E+03  0.00000000000E+00 0. -1.
<mgrwt>
<rscale>  0 0.19086148E+04</rscale>
<asrwt>0</asrwt>
<pdfrwt beam="1">  1        2 0.24416111E+00 0.19086148E+04</pdfrwt>
<pdfrwt beam="2">  1       -1 0.88282243E-01 0.19086148E+04</pdfrwt>
<totfact> 0.15238382E+01</totfact>
</mgrwt>
</event>
<event>
12    6  0.1663299E-008  0.1988774E+04  0.7818608E-02  0.8611887E-01
         -1   -1    0    0    0  501 -0.00000000000E+00  0.00000000000E+00  0.10663911720E+04  0.10663911720E+04  0.00000000000E+00 0.  1.
          2   -1    0    0  501    0  0.00000000000E+00 -0.00000000000E+00 -0.92724458739E+03  0.92724458739E+03  0.00000000000E+00 0. -1.
         24    2    1    2    0    0 -0.32576806066E+03  0.71497985029E+03  0.17065413351E+03  0.80802301038E+03  0.80357553103E+02 0.  0.
        254    2    1    2    0    0  0.32576806066E+03 -0.71497985029E+03 -0.31507548844E+02  0.11856127491E+04  0.88733525200E+03 0.  0.
         23    2    4    4    0    0 -0.70100294333E+02  0.50730462536E+02  0.24120621897E+03  0.27679824378E+03  0.10463840880E+03 0.  0.
         23    2    4    4    0    0  0.39586835500E+03 -0.76571031283E+03 -0.27271376781E+03  0.90881450528E+03  0.92449814514E+02 0.  0.
          4    1    3    3  502    0 -0.98977856574E+00  0.36086319275E+02 -0.10036868780E+01  0.36113840668E+02  0.00000000000E+00 0. -1.
         -3    1    3    3    0  502 -0.32477828210E+03  0.67889353102E+03  0.17165782038E+03  0.77190916971E+03  0.00000000000E+00 0.  1.
         11    1    5    5    0    0 -0.34716756639E+02  0.31530113429E+00  0.80439521134E+01  0.35637869913E+02  0.00000000000E+00 0. -1.
        -11    1    5    5    0    0 -0.35383537693E+02  0.50415161402E+02  0.23316226685E+03  0.24116037386E+03  0.00000000000E+00 0.  1.
          2    1    6    6  503    0  0.19052026252E+03 -0.27241126893E+03 -0.95734786525E+02  0.34593499276E+03  0.00000000000E+00 0. -1.
         -2    1    6    6    0  503  0.20534809248E+03 -0.49329904390E+03 -0.17697898129E+03  0.56287951252E+03  0.00000000000E+00 0.  1.
<mgrwt>
<rscale>  0 0.19887739E+04</rscale>
<asrwt>0</asrwt>
<pdfrwt beam="1">  1        2 0.14265301E+00 0.19887739E+04</pdfrwt>
<pdfrwt beam="2">  1       -1 0.16406018E+00 0.19887739E+04</pdfrwt>
<totfact> 0.81227217E+00</totfact>
</mgrwt>
</event>
<event>
12    6  0.1663299E-008  0.1598859E+04  0.7818608E-02  0.8821249E-01
         -1   -1    0    0    0  501 -0.00000000000E+00  0.00000000000E+00  0.24240498360E+03  0.24240498360E+03  0.00000000000E+00 0.  1.
          2   -1    0    0  501    0  0.00000000000E+00 -0.00000000000E+00 -0.26364460454E+04  0.26364460454E+04  0.00000000000E+00 0. -1.
         24    2    1    2    0    0  0.51140335121E+03 -0.23991952080E+03 -0.81181970295E+03  0.99203710389E+03  0.77405563788E+02 0.  0.
        254    2    1    2    0    0 -0.51140335121E+03  0.23991952080E+03 -0.15822213588E+04  0.18868139251E+04  0.85880591259E+03 0.  0.
         23    2    4    4    0    0 -0.73467732051E+03  0.11035381434E+03 -0.12169956681E+04  0.14301156187E+04  0.11055992499E+03 0.  0.
         23    2    4    4    0    0  0.22327396929E+03  0.12956570646E+03 -0.36522569074E+03  0.45669830643E+03  0.92439170592E+02 0.  0.
          4    1    3    3  502    0  0.17084216864E+03 -0.12085129749E+03 -0.30796642876E+03  0.37233775518E+03  0.00000000000E+00 0. -1.
         -3    1    3    3    0  502  0.34056118258E+03 -0.11906822330E+03 -0.50385327420E+03  0.61969934871E+03  0.00000000000E+00 0.  1.
         11    1    5    5    0    0 -0.27006291519E+03  0.18894504076E+02 -0.35294076235E+03  0.44481250227E+03  0.00000000000E+00 0. -1.
        -11    1    5    5    0    0 -0.46461440531E+03  0.91459310259E+02 -0.86405490574E+03  0.98530311640E+03  0.00000000000E+00 0.  1.
          3    1    6    6  503    0  0.10586610824E+03  0.11354522016E+03 -0.22012007317E+03  0.26935663442E+03  0.00000000000E+00 0. -1.
         -3    1    6    6    0  503  0.11740786105E+03  0.16020486301E+02 -0.14510561757E+03  0.18734167200E+03  0.00000000000E+00 0.  1.
<mgrwt>
<rscale>  0 0.15988592E+04</rscale>
<asrwt>0</asrwt>
<pdfrwt beam="1">  1        2 0.40560710E+00 0.15988592E+04</pdfrwt>
<pdfrwt beam="2">  1       -1 0.37293073E-01 0.15988592E+04</pdfrwt>
<totfact> 0.21956639E+01</totfact>
</mgrwt>
</event>
<event>
11    6  0.1663299E-008  0.2769628E+04  0.7818608E-02  0.8312760E-01
         -1   -1    0    0    0  501 -0.00000000000E+00  0.00000000000E+00  0.14964080278E+04  0.14964080278E+04  0.00000000000E+00 0.  1.
          2   -1    0    0  501    0  0.00000000000E+00 -0.00000000000E+00 -0.12815424298E+04  0.12815424298E+04  0.00000000000E+00 0. -1.
         24    2    1    2    0    0 -0.20006608481E+03  0.42935559111E+03  0.12427702390E+04  0.13323447727E+04  0.79322535807E+02 0.  0.
        254    2    1    2    0    0  0.20006608481E+03 -0.42935559111E+03 -0.10279046410E+04  0.14456056848E+04  0.89934152751E+03 0.  0.
         23    2    4    4    0    0  0.20109788418E+03  0.22691397748E+03 -0.17625429112E+03  0.36176388554E+03  0.88753712836E+02 0.  0.
          2    1    3    3  502    0 -0.45345078819E+02  0.14655987147E+03  0.31962590742E+03  0.35453729393E+03  0.00000000000E+00 0. -1.
         -1    1    3    3    0  502 -0.15472100600E+03  0.28279571964E+03  0.92314433155E+03  0.97780747881E+03  0.00000000000E+00 0.  1.
         11    1    4    4    0    0  0.52541443606E+02 -0.14852213737E+03 -0.24021243335E+03  0.28726545515E+03  0.00000000000E+00 0. -1.
        -11    1    4    4    0    0 -0.53573242974E+02 -0.50774743122E+03 -0.61143791652E+03  0.79657634413E+03  0.00000000000E+00 0.  1.
          1    1    5    5  503    0  0.18351091770E+03  0.20381282198E+03 -0.12186774976E+03  0.30011276505E+03  0.00000000000E+00 0. -1.
         -1    1    5    5    0  503  0.17586966487E+02  0.23101155503E+02 -0.54386541364E+02  0.61651120487E+02  0.00000000000E+00 0.  1.
<mgrwt>
<rscale>  0 0.27696284E+04</rscale>
<asrwt>0</asrwt>
<pdfrwt beam="1">  1        2 0.19716037E+00 0.27696284E+04</pdfrwt>
<pdfrwt beam="2">  1       -1 0.23021662E+00 0.27696284E+04</pdfrwt>
<totfact> 0.15845539E+00</totfact>
</mgrwt>
</event>
<event>
12    6  0.1663299E-008  0.1056095E+04  0.7818608E-02  0.9249074E-01
         -1   -1    0    0    0  501 -0.00000000000E+00  0.00000000000E+00  0.30315655717E+03  0.30315655717E+03  0.00000000000E+00 0.  1.
          2   -1    0    0  501    0  0.00000000000E+00 -0.00000000000E+00 -0.91976891980E+03  0.91976891980E+03  0.00000000000E+00 0. -1.
         24    2    1    2    0    0  0.28799699565E+02  0.89447776212E+02 -0.86294611185E+00  0.12271483606E+03  0.78916784966E+02 0.  0.
        254    2    1    2    0    0 -0.28799699565E+02 -0.89447776212E+02 -0.61574941653E+03  0.11002106409E+04  0.90691001927E+03 0.  0.
         23    2    4    4    0    0  0.32851496289E+03 -0.25190524556E+03 -0.91912556004E+02  0.43930694074E+03  0.11473594314E+03 0.  0.
         23    2    4    4    0    0 -0.35731466246E+03  0.16245746935E+03 -0.52383686052E+03  0.66090370016E+03  0.91227447056E+02 0.  0.
          4    1    3    3  502    0 -0.15609356372E+02  0.59954786515E+02 -0.21458377351E+02  0.65564398807E+02  0.00000000000E+00 0. -1.
         -3    1    3    3    0  502  0.44409055937E+02  0.29492989697E+02  0.20595431239E+02  0.57150437255E+02  0.00000000000E+00 0.  1.
         11    1    5    5    0    0  0.29876615644E+02  0.39768070590E+01  0.12159546651E+02  0.32500488173E+02  0.00000000000E+00 0. -1.
        -11    1    5    5    0    0  0.29863834725E+03 -0.25588205262E+03 -0.10407210266E+03  0.40680645257E+03  0.00000000000E+00 0.  1.
          3    1    6    6  503    0 -0.44305274472E+01  0.23110804397E+02 -0.32896722401E+02  0.40446671038E+02  0.00000000000E+00 0. -1.
         -3    1    6    6    0  503 -0.35288413501E+03  0.13934666495E+03 -0.49094013812E+03  0.62045702913E+03  0.00000000000E+00 0.  1.
<mgrwt>
<rscale>  0 0.10560947E+04</rscale>
<asrwt>0</asrwt>
<pdfrwt beam="1">  1        2 0.14150291E+00 0.10560947E+04</pdfrwt>
<pdfrwt beam="2">  1       -1 0.46639470E-01 0.10560947E+04</pdfrwt>
<totfact> 0.14778068E+02</totfact>
</mgrwt>
</event>
<event>
12    6  0.1663299E-008  0.1540725E+04  0.7818608E-02  0.8857814E-01
         -1   -1    0    0    0  501 -0.00000000000E+00  0.00000000000E+00  0.25283107932E+03  0.25283107932E+03  0.00000000000E+00 0.  1.
          2   -1    0    0  501    0  0.00000000000E+00 -0.00000000000E+00 -0.23472537591E+04  0.23472537591E+04  0.00000000000E+00 0. -1.
         24    2    1    2    0    0  0.47943195907E+03  0.95368311056E+02 -0.43889791074E+03  0.66169020667E+03  0.79072342984E+02 0.  0.
        254    2    1    2    0    0 -0.47943195907E+03 -0.95368311056E+02 -0.16555247690E+04  0.19383946317E+04  0.88185110383E+03 0.  0.
         23    2    4    4    0    0 -0.17546976949E+03  0.14231799833E+03 -0.22039976332E+02  0.25761600323E+03  0.12180390761E+03 0.  0.
         23    2    4    4    0    0 -0.30396218958E+03 -0.23768630939E+03 -0.16334847927E+04  0.16807786285E+04  0.88636537082E+02 0.  0.
          4    1    3    3  502    0  0.24975749253E+03  0.35533487206E+02 -0.27543611974E+03  0.37350567578E+03  0.00000000000E+00 0. -1.
         -3    1    3    3    0  502  0.22967446654E+03  0.59834823851E+02 -0.16346179100E+03  0.28818453089E+03  0.00000000000E+00 0.  1.
         11    1    5    5    0    0 -0.12874951089E+03  0.15934030932E+03 -0.45529905180E+01  0.20490607715E+03  0.00000000000E+00 0.  1.
        -11    1    5    5    0    0 -0.46720258594E+02 -0.17022310986E+02 -0.17486985814E+02  0.52709926079E+02  0.00000000000E+00 0. -1.
          4    1    6    6  503    0  0.62603369456E+01 -0.34208038435E+01 -0.32596867700E+02  0.33368390754E+02  0.00000000000E+00 0. -1.
         -4    1    6    6    0  503 -0.31022252653E+03 -0.23426550555E+03 -0.16008879250E+04  0.16474102377E+04  0.00000000000E+00 0.  1.
<mgrwt>
<rscale>  0 0.15407254E+04</rscale>
<asrwt>0</asrwt>
<pdfrwt beam="1">  1        2 0.36111597E+00 0.15407254E+04</pdfrwt>
<pdfrwt beam="2">  1       -1 0.38897088E-01 0.15407254E+04</pdfrwt>
<totfact> 0.30016745E+01</totfact>
</mgrwt>
</event>
<event>
12    6  0.1663299E-008  0.1552040E+04  0.7818608E-02  0.8850566E-01
          2   -1    0    0  501    0  0.00000000000E+00  0.00000000000E+00  0.11921521695E+04  0.11921521695E+04  0.00000000000E+00 0. -1.
         -1   -1    0    0    0  501 -0.00000000000E+00 -0.00000000000E+00 -0.50514293855E+03  0.50514293855E+03  0.00000000000E+00 0.  1.
         24    2    1    2    0    0  0.17932578084E+03 -0.41442933011E+03  0.50138463580E+03  0.67935803406E+03  0.78939091080E+02 0.  0.
        254    2    1    2    0    0 -0.17932578084E+03  0.41442933011E+03  0.18562459515E+03  0.10179370740E+04  0.89321329532E+03 0.  0.
         23    2    4    4    0    0  0.27711607087E+03 -0.48627808812E+02 -0.79131667615E+02  0.31023117339E+03  0.10403643397E+03 0.  0.
         23    2    4    4    0    0 -0.45644185172E+03  0.46305713892E+03  0.26475626276E+03  0.70770590059E+03  0.89390632394E+02 0.  0.
          2    1    3    3  502    0  0.15978309344E+03 -0.28191639719E+03  0.34138933886E+03  0.47069541387E+03  0.00000000000E+00 0. -1.
         -1    1    3    3    0  502  0.19542687403E+02 -0.13251293292E+03  0.15999529694E+03  0.20866262019E+03  0.00000000000E+00 0.  1.
         11    1    5    5    0    0  0.15572397429E+03 -0.67955209706E+02 -0.78848499123E+02  0.18730977686E+03  0.00000000000E+00 0. -1.
        -11    1    5    5    0    0  0.12139209659E+03  0.19327400894E+02 -0.28316849200E+00  0.12292139652E+03  0.00000000000E+00 0.  1.
          1    1    6    6  503    0 -0.24511613890E+03  0.27429016808E+03  0.19296891185E+03  0.41539621904E+03  0.00000000000E+00 0. -1.
         -1    1    6    6    0  503 -0.21132571282E+03  0.18876697084E+03  0.71787350920E+02  0.29230968156E+03  0.00000000000E+00 0.  1.
<mgrwt>
<rscale>  0 0.15520403E+04</rscale>
<asrwt>0</asrwt>
<pdfrwt beam="1">  1        2 0.18340803E+00 0.15520403E+04</pdfrwt>
<pdfrwt beam="2">  1       -1 0.77714299E-01 0.15520403E+04</pdfrwt>
<totfact> 0.34863550E+01</totfact>
</mgrwt>
</event>
<event>
12    6  0.1663299E-008  0.1631461E+04  0.7818608E-02  0.8801450E-01
         -1   -1    0    0    0  501 -0.00000000000E+00  0.00000000000E+00  0.62352405042E+03  0.62352405042E+03  0.00000000000E+00 0.  1.
          2   -1    0    0  501    0  0.00000000000E+00 -0.00000000000E+00 -0.10671861145E+04  0.10671861145E+04  0.00000000000E+00 0. -1.
         24    2    1    2    0    0 -0.22884784973E+02  0.18574771537E+03  0.39459564828E+03  0.44441998741E+03  0.82325405662E+02 0.  0.
        254    2    1    2    0    0  0.22884784973E+02 -0.18574771537E+03 -0.83825771237E+03  0.12462901775E+04  0.90307103101E+03 0.  0.
         23    2    4    4    0    0  0.34071989341E+03 -0.89885482782E+02 -0.82330231940E+03  0.90152639269E+03  0.10369996049E+03 0.  0.
         23    2    4    4    0    0 -0.31783510843E+03 -0.95862232593E+02 -0.14955392969E+02  0.34476378482E+03  0.91813287459E+02 0.  0.
          4    1    3    3  502    0 -0.34542871605E+02  0.11791076382E+03  0.17165946487E+03  0.21109981071E+03  0.00000000000E+00 0. -1.
         -3    1    3    3    0  502  0.11658086632E+02  0.67836951555E+02  0.22293618342E+03  0.23332017670E+03  0.00000000000E+00 0.  1.
         11    1    5    5    0    0  0.11122204113E+03 -0.61524895898E+02 -0.39274153498E+03  0.41279724871E+03  0.00000000000E+00 0.  1.
        -11    1    5    5    0    0  0.22949785228E+03 -0.28360586883E+02 -0.43056078443E+03  0.48872914398E+03  0.00000000000E+00 0. -1.
          1    1    6    6  503    0 -0.24502096766E+03 -0.92826555410E+02  0.22213376255E+02  0.26295527770E+03  0.00000000000E+00 0. -1.
         -1    1    6    6    0  503 -0.72814140770E+02 -0.30356771826E+01 -0.37168769225E+02  0.81808507123E+02  0.00000000000E+00 0.  1.
<mgrwt>
<rscale>  0 0.16314610E+04</rscale>
<asrwt>0</asrwt>
<pdfrwt beam="1">  1        2 0.16418248E+00 0.16314610E+04</pdfrwt>
<pdfrwt beam="2">  1       -1 0.95926778E-01 0.16314610E+04</pdfrwt>
<totfact> 0.26107648E+01</totfact>
</mgrwt>
</event>
<event>
12    6  0.1663299E-008  0.2259362E+04  0.7818608E-02  0.8494119E-01
          2   -1    0    0  501    0  0.00000000000E+00  0.00000000000E+00  0.29035278638E+04  0.29035278638E+04  0.00000000000E+00 0. -1.
         -1   -1    0    0    0  501 -0.00000000000E+00 -0.00000000000E+00 -0.43952694591E+03  0.43952694591E+03  0.00000000000E+00 0.  1.
         24    2    1    2    0    0  0.54253542256E+03  0.70366597085E+03  0.15329650016E+04  0.17736470031E+04  0.79696375008E+02 0.  0.
        254    2    1    2    0    0 -0.54253542256E+03 -0.70366597085E+03  0.93103591623E+03  0.15694078066E+04  0.89817732254E+03 0.  0.
         23    2    4    4    0    0 -0.59241840776E+03 -0.86146869039E+03  0.88372811256E+03  0.13740693233E+04  0.11833534532E+03 0.  0.
         23    2    4    4    0    0  0.49882985197E+02  0.15780271954E+03  0.47307803666E+02  0.19533848325E+03  0.92353041343E+02 0.  0.
          2    1    3    3  502    0  0.48548100490E+03  0.62222399576E+03  0.14062482639E+04  0.16125720718E+04  0.00000000000E+00 0. -1.
         -1    1    3    3    0  502  0.57054417664E+02  0.81441975092E+02  0.12671673778E+03  0.16107493137E+03  0.00000000000E+00 0.  1.
         11    1    5    5    0    0 -0.37667935182E+03 -0.44431578661E+03  0.48273267271E+03  0.75652804681E+03  0.00000000000E+00 0. -1.
        -11    1    5    5    0    0 -0.21573905594E+03 -0.41715290378E+03  0.40099543985E+03  0.61754127649E+03  0.00000000000E+00 0.  1.
          4    1    6    6  503    0  0.47206635839E+02  0.22721534072E+02  0.26253387547E+02  0.58600127436E+02  0.00000000000E+00 0. -1.
         -4    1    6    6    0  503  0.26763493582E+01  0.13508118547E+03  0.21054416119E+02  0.13673835582E+03  0.00000000000E+00 0.  1.
<mgrwt>
<rscale>  0 0.22593616E+04</rscale>
<asrwt>0</asrwt>
<pdfrwt beam="1">  1        2 0.44669658E+00 0.22593616E+04</pdfrwt>
<pdfrwt beam="2">  1       -1 0.67619532E-01 0.22593616E+04</pdfrwt>
<totfact> 0.45852857E+00</totfact>
</mgrwt>
</event>
<event>
12    6  0.1663299E-008  0.3086831E+04  0.7818608E-02  0.8219361E-01
          2   -1    0    0  501    0  0.00000000000E+00  0.00000000000E+00  0.11566723627E+04  0.11566723627E+04  0.00000000000E+00 0. -1.
         -1   -1    0    0    0  501 -0.00000000000E+00 -0.00000000000E+00 -0.20594691176E+04  0.20594691176E+04  0.00000000000E+00 0.  1.
         24    2    1    2    0    0 -0.84900606796E+03  0.11506633251E+03  0.75438078503E+03  0.11444113122E+04  0.80841316012E+02 0.  0.
        254    2    1    2    0    0  0.84900606796E+03 -0.11506633251E+03 -0.16571775399E+04  0.20717301681E+04  0.90098664052E+03 0.  0.
         23    2    4    4    0    0  0.68748397464E+03 -0.40761151826E+03 -0.75419990470E+03  0.11044805976E+04  0.11080852448E+03 0.  0.
         23    2    4    4    0    0  0.16152209333E+03  0.29254518574E+03 -0.90297763515E+03  0.96724957044E+03  0.92363681162E+02 0.  0.
          2    1    3    3  502    0 -0.63990541379E+03  0.53622544148E+02  0.57971197735E+03  0.86511287848E+03  0.00000000000E+00 0. -1.
         -1    1    3    3    0  502 -0.20910065418E+03  0.61443788366E+02  0.17466880768E+03  0.27929843373E+03  0.00000000000E+00 0.  1.
         11    1    5    5    0    0  0.34468238341E+03 -0.14878009868E+03 -0.38984269967E+03  0.54121972773E+03  0.00000000000E+00 0. -1.
        -11    1    5    5    0    0  0.34280159123E+03 -0.25883141958E+03 -0.36435720503E+03  0.56326086991E+03  0.00000000000E+00 0.  1.
          4    1    6    6  503    0  0.29832617105E+02  0.68654100824E+02 -0.32625243114E+03  0.33472977075E+03  0.00000000000E+00 0. -1.
         -4    1    6    6    0  503  0.13168947622E+03  0.22389108492E+03 -0.57672520401E+03  0.63251979968E+03  0.00000000000E+00 0.  1.
<mgrwt>
<rscale>  0 0.30868307E+04</rscale>
<asrwt>0</asrwt>
<pdfrwt beam="1">  1        2 0.17794960E+00 0.30868307E+04</pdfrwt>
<pdfrwt beam="2">  1       -1 0.31684140E+00 0.30868307E+04</pdfrwt>
<totfact> 0.49977467E-01</totfact>
</mgrwt>
</event>
<event>
11    6  0.1663299E-008  0.1981901E+04  0.7818608E-02  0.8615130E-01
          2   -1    0    0  501    0  0.00000000000E+00  0.00000000000E+00  0.26507209991E+04  0.26507209991E+04  0.00000000000E+00 0. -1.
         -1   -1    0    0    0  501 -0.00000000000E+00 -0.00000000000E+00 -0.37045879026E+03  0.37045879026E+03  0.00000000000E+00 0.  1.
         24    2    1    2    0    0 -0.38203837148E+03 -0.37711997812E+03  0.17860001191E+04  0.18666571907E+04  0.80248657454E+02 0.  0.
        254    2    1    2    0    0  0.38203837148E+03  0.37711997812E+03  0.49426208968E+03  0.11545225986E+04  0.89468129645E+03 0.  0.
         23    2    4    4    0    0  0.41121047706E+03 -0.12960043056E+03  0.10524206520E+02  0.44028863715E+03  0.88617137370E+02 0.  0.
          2    1    3    3  502    0 -0.36110738398E+03 -0.33344776499E+03  0.15630932928E+04  0.16385501508E+04  0.00000000000E+00 0. -1.
         -1    1    3    3    0  502 -0.20930987493E+02 -0.43672213122E+02  0.22290682633E+03  0.22810703992E+03  0.00000000000E+00 0.  1.
         11    1    4    4    0    0  0.38408731980E+02  0.53681103505E+02  0.79372640475E+02  0.10323229931E+03  0.00000000000E+00 0.  1.
        -11    1    4    4    0    0 -0.67580837566E+02  0.45303930517E+03  0.40436524268E+03  0.61100166213E+03  0.00000000000E+00 0. -1.
          4    1    5    5  503    0  0.41307661748E+03 -0.12374550228E+03  0.38700941350E+01  0.43123105045E+03  0.00000000000E+00 0. -1.
         -4    1    5    5    0  503 -0.18661404193E+01 -0.58549282788E+01  0.66541123851E+01  0.90575867011E+01  0.00000000000E+00 0.  1.
<mgrwt>
<rscale>  0 0.19819010E+04</rscale>
<asrwt>0</asrwt>
<pdfrwt beam="1">  1        2 0.40780322E+00 0.19819010E+04</pdfrwt>
<pdfrwt beam="2">  1       -1 0.56993662E-01 0.19819010E+04</pdfrwt>
<totfact> 0.93871024E+00</totfact>
</mgrwt>
</event>
<event>
12    6  0.1663299E-008  0.1403203E+04  0.7818608E-02  0.8951503E-01
          2   -1    0    0  501    0  0.00000000000E+00  0.00000000000E+00  0.22780085866E+04  0.22780085866E+04  0.00000000000E+00 0. -1.
         -1   -1    0    0    0  501 -0.00000000000E+00 -0.00000000000E+00 -0.21608550567E+03  0.21608550567E+03  0.00000000000E+00 0.  1.
         24    2    1    2    0    0 -0.11723038171E+03 -0.47792515070E+02 -0.78266578323E+02  0.16879414638E+03  0.79616076744E+02 0.  0.
        254    2    1    2    0    0  0.11723038171E+03  0.47792515070E+02  0.21401896593E+04  0.23252999459E+04  0.90032270540E+03 0.  0.
         23    2    4    4    0    0 -0.12916991801E+03 -0.37285928432E+03  0.10497371910E+04  0.11272155363E+04  0.11383225152E+03 0.  0.
         23    2    4    4    0    0  0.24640029972E+03  0.42065179939E+03  0.10904524682E+04  0.11980844096E+04  0.93051721823E+02 0.  0.
          2    1    3    3  502    0  0.35445388807E+01  0.39396788156E+01  0.94372194315E+01  0.10823397602E+02  0.00000000000E+00 0. -1.
         -1    1    3    3    0  502 -0.12077492059E+03 -0.51732193886E+02 -0.87703797755E+02  0.15797074878E+03  0.00000000000E+00 0.  1.
         11    1    5    5    0    0  0.13538677798E+02 -0.61597406097E+01  0.20523718453E+02  0.25346818736E+02  0.00000000000E+00 0.  1.
        -11    1    5    5    0    0 -0.14270859581E+03 -0.36669954371E+03  0.10292134726E+04  0.11018687176E+04  0.00000000000E+00 0. -1.
          2    1    6    6  503    0  0.17817317353E+03  0.26230275150E+03  0.60751907266E+03  0.68529397842E+03  0.00000000000E+00 0. -1.
         -2    1    6    6    0  503  0.68227126189E+02  0.15834904789E+03  0.48293339558E+03  0.51279043115E+03  0.00000000000E+00 0.  1.
<mgrwt>
<rscale>  0 0.14032030E+04</rscale>
<asrwt>0</asrwt>
<pdfrwt beam="1">  1        2 0.35046284E+00 0.14032030E+04</pdfrwt>
<pdfrwt beam="2">  1       -1 0.33243925E-01 0.14032030E+04</pdfrwt>
<totfact> 0.44084822E+01</totfact>
</mgrwt>
</event>
<event>
11    6  0.1663299E-008  0.1940496E+04  0.7818608E-02  0.8634957E-01
          2   -1    0    0  501    0  0.00000000000E+00  0.00000000000E+00  0.25741396838E+04  0.25741396838E+04  0.00000000000E+00 0. -1.
         -1   -1    0    0    0  501 -0.00000000000E+00 -0.00000000000E+00 -0.36570724568E+03  0.36570724568E+03  0.00000000000E+00 0.  1.
         24    2    1    2    0    0  0.57972104075E+03 -0.39115745037E+03  0.42855074341E+03  0.82382866994E+03  0.77183558260E+02 0.  0.
        254    2    1    2    0    0 -0.57972104075E+03  0.39115745037E+03  0.17798816947E+04  0.21160182595E+04  0.90580008364E+03 0.  0.
         23    2    4    4    0    0 -0.32427563116E+03 -0.18935314507E+03  0.96898898479E+03  0.10434118170E+04  0.93590964523E+02 0.  0.
          2    1    3    3  502    0  0.57195121933E+03 -0.38683617588E+03  0.43177553050E+03  0.81437125011E+03  0.00000000000E+00 0. -1.
         -3    1    3    3    0  502  0.77698214181E+01 -0.43212744828E+01 -0.32247870874E+01  0.94574198270E+01  0.00000000000E+00 0.  1.
         11    1    4    4    0    0  0.65711974684E+02  0.14776809989E+03  0.21744444103E+03  0.27098996272E+03  0.00000000000E+00 0.  1.
        -11    1    4    4    0    0 -0.32115738428E+03  0.43274249554E+03  0.59344826889E+03  0.80161647985E+03  0.00000000000E+00 0. -1.
          2    1    5    5  503    0 -0.28410522525E+03 -0.12670593040E+03  0.74331171166E+03  0.80578066029E+03  0.00000000000E+00 0.  1.
         -2    1    5    5    0  503 -0.40170405912E+02 -0.62647214673E+02  0.22567727313E+03  0.23763115667E+03  0.00000000000E+00 0. -1.
<mgrwt>
<rscale>  0 0.19404964E+04</rscale>
<asrwt>0</asrwt>
<pdfrwt beam="1">  1        2 0.39602148E+00 0.19404964E+04</pdfrwt>
<pdfrwt beam="2">  1       -1 0.56262655E-01 0.19404964E+04</pdfrwt>
<totfact> 0.10715559E+01</totfact>
</mgrwt>
</event>
<event>
12    6  0.1663299E-008  0.1102879E+04  0.7818608E-02  0.9202390E-01
          2   -1    0    0  501    0  0.00000000000E+00  0.00000000000E+00  0.41342720813E+04  0.41342720813E+04  0.00000000000E+00 0. -1.
         -1   -1    0    0    0  501 -0.00000000000E+00 -0.00000000000E+00 -0.73552432005E+02  0.73552432005E+02  0.00000000000E+00 0.  1.
         24    2    1    2    0    0 -0.12026123035E+03 -0.11605119430E+01  0.25656621245E+03  0.29426234599E+03  0.79372517788E+02 0.  0.
        254    2    1    2    0    0  0.12026123035E+03  0.11605119430E+01  0.38041534368E+04  0.39135621673E+04  0.91100019544E+03 0.  0.
         23    2    4    4    0    0 -0.28244605411E+02  0.37183967397E+03  0.85236197678E+03  0.93347043991E+03  0.76050127191E+02 0.  0.
         23    2    4    4    0    0  0.14850583576E+03 -0.37067916203E+03  0.29517914601E+04  0.29800917274E+04  0.91743422932E+02 0.  0.
          2    1    3    3  502    0 -0.20586427757E+02 -0.66131292603E+01  0.13612052385E+03  0.13782717983E+03  0.00000000000E+00 0. -1.
         -1    1    3    3    0  502 -0.99674802596E+02  0.54526173173E+01  0.12044568860E+03  0.15643516616E+03  0.00000000000E+00 0.  1.
         11    1    5    5    0    0 -0.67546880169E+01  0.18878948049E+02  0.10211382700E+03  0.10406379848E+03  0.00000000000E+00 0. -1.
        -11    1    5    5    0    0 -0.21489917394E+02  0.35296072593E+03  0.75024814978E+03  0.82940664143E+03  0.00000000000E+00 0.  1.
          4    1    6    6  503    0  0.11727506815E+03 -0.22864061675E+03  0.16004765593E+04  0.16209735316E+04  0.00000000000E+00 0. -1.
         -4    1    6    6    0  503  0.31230767617E+02 -0.14203854528E+03  0.13513149007E+04  0.13591181958E+04  0.00000000000E+00 0.  1.
<mgrwt>
<rscale>  0 0.11028794E+04</rscale>
<asrwt>0</asrwt>
<pdfrwt beam="1">  1        2 0.63604168E+00 0.11028794E+04</pdfrwt>
<pdfrwt beam="2">  1       -1 0.11315762E-01 0.11028794E+04</pdfrwt>
<totfact> 0.16356759E+01</totfact>
</mgrwt>
</event>
<event>
11    6  0.1663299E-008  0.1100326E+04  0.7818608E-02  0.9204874E-01
         -3   -1    0    0    0  501 -0.00000000000E+00  0.00000000000E+00  0.15557576694E+04  0.15557576694E+04  0.00000000000E+00 0.  1.
          4   -1    0    0  501    0  0.00000000000E+00 -0.00000000000E+00 -0.19455445496E+03  0.19455445496E+03  0.00000000000E+00 0. -1.
         24    2    1    2    0    0  0.13878528162E+03 -0.32377898254E+02  0.39557509006E+03  0.42776478386E+03  0.78698003391E+02 0.  0.
        254    2    1    2    0    0 -0.13878528162E+03  0.32377898254E+02  0.96562812442E+03  0.13225473405E+04  0.89240355817E+03 0.  0.
         23    2    4    4    0    0  0.34724353180E+03 -0.76470892641E+02  0.27332145815E+03  0.45768161436E+03  0.91334401213E+02 0.  0.
          2    1    3    3  502    0  0.31047340618E+02  0.18106911203E+02  0.45253576817E+02  0.57789997469E+02  0.00000000000E+00 0. -1.
         -1    1    3    3    0  502  0.10773794100E+03 -0.50484809457E+02  0.35032151325E+03  0.36997478639E+03  0.00000000000E+00 0.  1.
         11    1    4    4    0    0 -0.42744010747E+03  0.46316324458E+02  0.54166422108E+03  0.69155648777E+03  0.00000000000E+00 0. -1.
        -11    1    4    4    0    0 -0.58588705949E+02  0.62532466436E+02  0.15064244519E+03  0.17330923841E+03  0.00000000000E+00 0.  1.
          2    1    5    5  503    0  0.34728597998E+03 -0.85281679148E+02  0.26187604568E+03  0.44323761120E+03  0.00000000000E+00 0. -1.
         -2    1    5    5    0  503 -0.42448173987E-01  0.88107865078E+01  0.11445412468E+02  0.14444003161E+02  0.00000000000E+00 0.  1.
<mgrwt>
<rscale>  0 0.11003265E+04</rscale>
<asrwt>0</asrwt>
<pdfrwt beam="1">  1        4 0.29931456E-01 0.11003265E+04</pdfrwt>
<pdfrwt beam="2">  1       -3 0.23934733E+00 0.11003265E+04</pdfrwt>
<totfact> 0.20828535E+00</totfact>
</mgrwt>
</event>
<event>
12    6  0.2424685E-008  0.1639818E+04  0.7818608E-02  0.8796453E-01
         -1   -1    0    0    0  501 -0.00000000000E+00  0.00000000000E+00  0.62189778590E+03  0.62189778590E+03  0.00000000000E+00 0.  1.
          2   -1    0    0  501    0  0.00000000000E+00 -0.00000000000E+00 -0.10809670557E+04  0.10809670557E+04  0.00000000000E+00 0. -1.
         24    2    1    2    0    0 -0.29014305223E+03 -0.35377247997E+02  0.32719069177E+03  0.44701846423E+03  0.85657563262E+02 0.  0.
        254    2    1    2    0    0  0.29014305223E+03  0.35377247997E+02 -0.78625996162E+03  0.12558463774E+04  0.93461802677E+03 0.  0.
         23    2    4    4    0    0  0.29876568614E+03  0.41581630023E+03 -0.20871668812E+03  0.55809886858E+03  0.75812666882E+02 0.  0.
         23    2    4    4    0    0 -0.86226339031E+01 -0.38043905223E+03 -0.57754327351E+03  0.69774750883E+03  0.92125626355E+02 0.  0.
          4    1    3    3  502    0  0.59016625241E+01  0.12717728087E+01  0.42288237532E+01  0.73708871217E+01  0.00000000000E+00 0. -1.
         -3    1    3    3    0  502 -0.29604471476E+03 -0.36649020806E+02  0.32296186802E+03  0.43964757711E+03  0.00000000000E+00 0.  1.
         11    1    5    5    0    0  0.49128662434E+02  0.48329259213E+02 -0.54410035545E+02  0.87805436828E+02  0.00000000000E+00 0. -1.
        -11    1    5    5    0    0  0.24963702370E+03  0.36748704102E+03 -0.15430665257E+03  0.47029343175E+03  0.00000000000E+00 0.  1.
          3    1    6    6  503    0 -0.11601683603E+02 -0.50785485008E+02 -0.14377505576E+03  0.15292165055E+03  0.00000000000E+00 0. -1.
         -3    1    6    6    0  503  0.29790496999E+01 -0.32965356723E+03 -0.43376821775E+03  0.54482585828E+03  0.00000000000E+00 0.  1.
<mgrwt>
<rscale>  0 0.16398183E+04</rscale>
<asrwt>0</asrwt>
<pdfrwt beam="1">  1        2 0.16630262E+00 0.16398183E+04</pdfrwt>
<pdfrwt beam="2">  1       -1 0.95676582E-01 0.16398183E+04</pdfrwt>
<totfact> 0.25729236E+01</totfact>
</mgrwt>
</event>
<event>
11    6  0.1663299E-008  0.1680343E+04  0.7818608E-02  0.8772656E-01
          2   -1    0    0  501    0  0.00000000000E+00  0.00000000000E+00  0.99378713641E+03  0.99378713641E+03  0.00000000000E+00 0. -1.
         -1   -1    0    0    0  501 -0.00000000000E+00 -0.00000000000E+00 -0.71030078040E+03  0.71030078040E+03  0.00000000000E+00 0.  1.
         24    2    1    2    0    0  0.23317442965E+03 -0.27767613699E+03  0.57484818702E+03  0.68438287373E+03  0.80343811413E+02 0.  0.
        254    2    1    2    0    0 -0.23317442965E+03  0.27767613699E+03 -0.29136183101E+03  0.10197050431E+04  0.90743170907E+03 0.  0.
         23    2    4    4    0    0 -0.23608461401E+01  0.15513171642E+03  0.30280101409E+03  0.35194359230E+03  0.90024524389E+02 0.  0.
          2    1    3    3  502    0  0.20018437837E+03 -0.26315876748E+03  0.54558102442E+03  0.63795374163E+03  0.00000000000E+00 0. -1.
         -1    1    3    3    0  502  0.32990051282E+02 -0.14517369506E+02  0.29267162601E+02  0.46429132101E+02  0.00000000000E+00 0.  1.
         11    1    4    4    0    0 -0.16812667755E+03  0.73675317746E+02 -0.54311452300E+03  0.57329575024E+03  0.00000000000E+00 0. -1.
        -11    1    4    4    0    0 -0.62686905961E+02  0.48869102821E+02 -0.51048322098E+02  0.94465700540E+02  0.00000000000E+00 0.  1.
          3    1    5    5  503    0 -0.37996526488E+02  0.89480099542E+02  0.11977796370E+03  0.15426336191E+03  0.00000000000E+00 0. -1.
         -3    1    5    5    0  503  0.35635680348E+02  0.65651616879E+02  0.18302305039E+03  0.19768023039E+03  0.00000000000E+00 0.  1.
<mgrwt>
<rscale>  0 0.16803426E+04</rscale>
<asrwt>0</asrwt>
<pdfrwt beam="1">  1        2 0.15289033E+00 0.16803426E+04</pdfrwt>
<pdfrwt beam="2">  1       -1 0.10927704E+00 0.16803426E+04</pdfrwt>
<totfact> 0.21431353E+01</totfact>
</mgrwt>
</event>
<event>
12    6  0.1663299E-008  0.1137283E+04  0.7818608E-02  0.9169597E-01
          2   -1    0    0  501    0  0.00000000000E+00  0.00000000000E+00  0.43741271371E+03  0.43741271371E+03  0.00000000000E+00 0. -1.
         -1   -1    0    0    0  501 -0.00000000000E+00 -0.00000000000E+00 -0.73923992489E+03  0.73923992489E+03  0.00000000000E+00 0.  1.
         24    2    1    2    0    0  0.34987487682E+02 -0.18718794475E+03 -0.77920054586E+02  0.22080149993E+03  0.80114396398E+02 0.  0.
        254    2    1    2    0    0 -0.34987487682E+02  0.18718794475E+03 -0.22390715660E+03  0.95585113867E+03  0.90953478964E+03 0.  0.
         23    2    4    4    0    0 -0.90168319509E+02 -0.26968982704E+03 -0.35546441138E+03  0.46860222737E+03  0.11122127084E+03 0.  0.
         23    2    4    4    0    0  0.55180831828E+02  0.45687777179E+03  0.13155725478E+03  0.48724891130E+03  0.91224819636E+02 0.  0.
          4    1    3    3  502    0  0.39533317297E+02 -0.18600536927E+03 -0.55785315629E+02  0.19817386814E+03  0.00000000000E+00 0. -1.
         -3    1    3    3    0  502 -0.45458296157E+01 -0.11825754797E+01 -0.22134738957E+02  0.22627631788E+02  0.00000000000E+00 0.  1.
         11    1    5    5    0    0 -0.42776067687E+02 -0.25041760012E+03 -0.29056433292E+03  0.38596165351E+03  0.00000000000E+00 0. -1.
        -11    1    5    5    0    0 -0.47392251822E+02 -0.19272226915E+02 -0.64900078460E+02  0.82640573855E+02  0.00000000000E+00 0.  1.
          3    1    6    6  503    0  0.55480613331E+02  0.45840604666E+03  0.12204194483E+03  0.47760699154E+03  0.00000000000E+00 0. -1.
         -3    1    6    6    0  503 -0.29978150321E+00 -0.15282748713E+01  0.95153099568E+01  0.96419197573E+01  0.00000000000E+00 0.  1.
<mgrwt>
<rscale>  0 0.11372826E+04</rscale>
<asrwt>0</asrwt>
<pdfrwt beam="1">  1        2 0.67294264E-01 0.11372826E+04</pdfrwt>
<pdfrwt beam="2">  1       -1 0.11372922E+00 0.11372826E+04</pdfrwt>
<totfact> 0.57432330E+01</totfact>
</mgrwt>
</event>
<event>
12    6  0.1663299E-008  0.1771453E+04  0.7818608E-02  0.8721629E-01
         -1   -1    0    0    0  501 -0.00000000000E+00  0.00000000000E+00  0.11181584129E+04  0.11181584129E+04  0.00000000000E+00 0.  1.
          2   -1    0    0  501    0  0.00000000000E+00 -0.00000000000E+00 -0.70161047214E+03  0.70161047214E+03  0.00000000000E+00 0. -1.
         24    2    1    2    0    0  0.11320750255E+03  0.18226303639E+03  0.79035243743E+03  0.82287376440E+03  0.80177950278E+02 0.  0.
        254    2    1    2    0    0 -0.11320750255E+03 -0.18226303639E+03 -0.37380449663E+03  0.99689512068E+03  0.89890729604E+03 0.  0.
         23    2    4    4    0    0 -0.44419997776E+03 -0.31059248002E+03 -0.26844137531E+03  0.61543736890E+03  0.11367090294E+03 0.  0.
         23    2    4    4    0    0  0.33099247521E+03  0.12832944363E+03 -0.10536312132E+03  0.38145775179E+03  0.91565082410E+02 0.  0.
          2    1    3    3  502    0  0.64228094419E+02  0.38886310981E+02  0.20807975861E+03  0.22121161641E+03  0.00000000000E+00 0. -1.
         -1    1    3    3    0  502  0.48979408128E+02  0.14337672541E+03  0.58227267883E+03  0.60166214799E+03  0.00000000000E+00 0.  1.
         11    1    5    5    0    0 -0.24667963189E+03 -0.15019284708E+03 -0.82709538534E+02  0.30041571175E+03  0.00000000000E+00 0. -1.
        -11    1    5    5    0    0 -0.19752034586E+03 -0.16039963294E+03 -0.18573183677E+03  0.31502165714E+03  0.00000000000E+00 0.  1.
          3    1    6    6  503    0  0.21156732195E+03  0.12114093349E+03 -0.46774924398E+02  0.24824131613E+03  0.00000000000E+00 0. -1.
         -3    1    6    6    0  503  0.11942515326E+03  0.71885101370E+01 -0.58588196921E+02  0.13321643565E+03  0.00000000000E+00 0.  1.
<mgrwt>
<rscale>  0 0.17714532E+04</rscale>
<asrwt>0</asrwt>
<pdfrwt beam="1">  1        2 0.10794007E+00 0.17714532E+04</pdfrwt>
<pdfrwt beam="2">  1       -1 0.17202437E+00 0.17714532E+04</pdfrwt>
<totfact> 0.10495534E+01</totfact>
</mgrwt>
</event>
<event>
12    6  0.1663299E-008  0.1201340E+04  0.7818608E-02  0.9111684E-01
          2   -1    0    0  501    0  0.00000000000E+00  0.00000000000E+00  0.28933225493E+04  0.28933225493E+04  0.00000000000E+00 0. -1.
         -1   -1    0    0    0  501 -0.00000000000E+00 -0.00000000000E+00 -0.12470248241E+03  0.12470248241E+03  0.00000000000E+00 0.  1.
         24    2    1    2    0    0  0.22334386480E+03  0.79887687153E+02  0.98893333922E+03  0.10200951659E+04  0.79627090544E+02 0.  0.
        254    2    1    2    0    0 -0.22334386480E+03 -0.79887687153E+02  0.17796867277E+04  0.19979298658E+04  0.87645557535E+03 0.  0.
         23    2    4    4    0    0 -0.17792490843E+03  0.30929116234E+03  0.13820529728E+04  0.14317192504E+04  0.11149572284E+03 0.  0.
         23    2    4    4    0    0 -0.45418956370E+02 -0.38917884949E+03  0.39763375495E+03  0.56621061548E+03  0.94650935150E+02 0.  0.
          2    1    3    3  502    0  0.20740795447E+03  0.89913006210E+02  0.83663316499E+03  0.86663571414E+03  0.00000000000E+00 0. -1.
         -1    1    3    3    0  502  0.15935910321E+02 -0.10025319057E+02  0.15230017423E+03  0.15345945175E+03  0.00000000000E+00 0.  1.
         11    1    5    5    0    0 -0.20713168194E+02  0.26241114907E+02  0.31113973839E+03  0.31293061252E+03  0.00000000000E+00 0. -1.
        -11    1    5    5    0    0 -0.15721174023E+03  0.28305004743E+03  0.10709132344E+04  0.11187886378E+04  0.00000000000E+00 0.  1.
          3    1    6    6  503    0 -0.35042757598E+01 -0.16422418728E+03  0.22962937516E+03  0.28233227512E+03  0.00000000000E+00 0. -1.
         -3    1    6    6    0  503 -0.41914680610E+02 -0.22495466221E+03  0.16800437978E+03  0.28387834037E+03  0.00000000000E+00 0.  1.
<mgrwt>
<rscale>  0 0.12013401E+04</rscale>
<asrwt>0</asrwt>
<pdfrwt beam="1">  1        2 0.44512649E+00 0.12013401E+04</pdfrwt>
<pdfrwt beam="2">  1       -1 0.19185000E-01 0.12013401E+04</pdfrwt>
<totfact> 0.50610549E+01</totfact>
</mgrwt>
</event>
<event>
12    6  0.1663299E-008  0.1620065E+04  0.7818608E-02  0.8808315E-01
          2   -1    0    0  501    0  0.00000000000E+00  0.00000000000E+00  0.92539243708E+03  0.92539243708E+03  0.00000000000E+00 0. -1.
         -1   -1    0    0    0  501 -0.00000000000E+00 -0.00000000000E+00 -0.70905329455E+03  0.70905329455E+03  0.00000000000E+00 0.  1.
         24    2    1    2    0    0 -0.44410505168E+03 -0.30482642841E+03 -0.11627191276E+03  0.56140557012E+03  0.10727818083E+03 0.  0.
        254    2    1    2    0    0  0.44410505168E+03  0.30482642841E+03  0.33261105529E+03  0.10730401615E+04  0.86639288186E+03 0.  0.
         23    2    4    4    0    0  0.49686132969E+03  0.64499657297E+01  0.50175253341E+03  0.71404859362E+03  0.10581590744E+03 0.  0.
         23    2    4    4    0    0 -0.52756278008E+02  0.29837646268E+03 -0.16914147812E+03  0.35899156789E+03  0.91947636442E+02 0.  0.
          4    1    3    3  502    0 -0.17653795745E+03 -0.86031538543E+02  0.10926026578E+01  0.19638805928E+03  0.00000000000E+00 0. -1.
         -3    1    3    3    0  502 -0.26756709423E+03 -0.21879488987E+03 -0.11736451542E+03  0.36501751085E+03  0.00000000000E+00 0.  1.
         11    1    5    5    0    0  0.80410136771E+02 -0.35596613046E+02  0.10919108069E+03  0.14019843457E+03  0.00000000000E+00 0. -1.
        -11    1    5    5    0    0  0.41645119292E+03  0.42046578776E+02  0.39256145273E+03  0.57385015905E+03  0.00000000000E+00 0.  1.
          1    1    6    6  503    0  0.70931700490E+01  0.13799644786E+03 -0.37882684708E+02  0.14327745979E+03  0.00000000000E+00 0. -1.
         -1    1    6    6    0  503 -0.59849448057E+02  0.16038001482E+03 -0.13125879341E+03  0.21571410810E+03  0.00000000000E+00 0.  1.
<mgrwt>
<rscale>  0 0.16200649E+04</rscale>
<asrwt>0</asrwt>
<pdfrwt beam="1">  1        2 0.14236807E+00 0.16200649E+04</pdfrwt>
<pdfrwt beam="2">  1       -1 0.10908512E+00 0.16200649E+04</pdfrwt>
<totfact> 0.23982142E+01</totfact>
</mgrwt>
</event>
<event>
12    6  0.1689157E-008  0.1669067E+04  0.7818608E-02  0.8779206E-01
         -1   -1    0    0    0  501 -0.00000000000E+00  0.00000000000E+00  0.43175628998E+03  0.43175628998E+03  0.00000000000E+00 0.  1.
          2   -1    0    0  501    0  0.00000000000E+00 -0.00000000000E+00 -0.16130532523E+04  0.16130532523E+04  0.00000000000E+00 0. -1.
         24    2    1    2    0    0  0.35356535332E+03  0.37391123186E+03 -0.77714333531E+03  0.93570981896E+03  0.82359172571E+02 0.  0.
        254    2    1    2    0    0 -0.35356535332E+03 -0.37391123186E+03 -0.40415362704E+03  0.11090997234E+04  0.89551324597E+03 0.  0.
         23    2    4    4    0    0 -0.48415479461E+03 -0.13855664262E+03  0.10568049668E+03  0.52534271852E+03  0.10589049141E+03 0.  0.
         23    2    4    4    0    0  0.13058944129E+03 -0.23535458924E+03 -0.50983412372E+03  0.58375700483E+03  0.91629810238E+02 0.  0.
          4    1    3    3  502    0  0.33229342030E+03  0.37180561567E+03 -0.75598421198E+03  0.90563263070E+03  0.00000000000E+00 0. -1.
         -3    1    3    3    0  502  0.21271933014E+02  0.21056161879E+01 -0.21159123324E+02  0.30077188258E+02  0.00000000000E+00 0.  1.
         11    1    5    5    0    0 -0.17562588211E+03 -0.10402127836E+03  0.39249677075E+02  0.20785912048E+03  0.00000000000E+00 0. -1.
        -11    1    5    5    0    0 -0.30852891250E+03 -0.34535364267E+02  0.66430819603E+02  0.31748359804E+03  0.00000000000E+00 0.  1.
          3    1    6    6  503    0  0.22276524990E+02 -0.37642250397E+02 -0.28389292411E+02  0.52145321020E+02  0.00000000000E+00 0. -1.
         -3    1    6    6    0  503  0.10831291630E+03 -0.19771233884E+03 -0.48144483131E+03  0.53161168381E+03  0.00000000000E+00 0.  1.
<mgrwt>
<rscale>  0 0.16690667E+04</rscale>
<asrwt>0</asrwt>
<pdfrwt beam="1">  1        2 0.24816204E+00 0.16690667E+04</pdfrwt>
<pdfrwt beam="2">  1       -1 0.66424045E-01 0.16690667E+04</pdfrwt>
<totfact> 0.27367659E+01</totfact>
</mgrwt>
</event>
<event>
12    6  0.1663299E-008  0.1282043E+04  0.7818608E-02  0.9043928E-01
          2   -1    0    0  501    0  0.00000000000E+00  0.00000000000E+00  0.42995610862E+03  0.42995610862E+03  0.00000000000E+00 0. -1.
         -1   -1    0    0    0  501 -0.00000000000E+00 -0.00000000000E+00 -0.95569871947E+03  0.95569871947E+03  0.00000000000E+00 0.  1.
         24    2    1    2    0    0  0.12447568823E+03 -0.15811945487E+03  0.13344501060E+03  0.25123559724E+03  0.69395932879E+02 0.  0.
        254    2    1    2    0    0 -0.12447568823E+03  0.15811945487E+03 -0.65918762144E+03  0.11344192309E+04  0.90104534409E+03 0.  0.
         23    2    4    4    0    0 -0.38739023080E+03 -0.14307893751E+03 -0.98024096652E+02  0.43920101259E+03  0.11289832886E+03 0.  0.
         23    2    4    4    0    0  0.26291454258E+03  0.30119839238E+03 -0.56116352479E+03  0.69521821826E+03  0.92624733072E+02 0.  0.
          2    1    3    3  502    0  0.59319956565E+02 -0.66076005308E+02  0.99730146392E+02  0.13353275937E+03  0.00000000000E+00 0. -1.
         -1    1    3    3    0  502  0.65155731660E+02 -0.92043449561E+02  0.33714864203E+02  0.11770283787E+03  0.00000000000E+00 0.  1.
         11    1    5    5    0    0 -0.31111242158E+03 -0.14154323638E+03 -0.41620676216E+02  0.34432209821E+03  0.00000000000E+00 0.  1.
        -11    1    5    5    0    0 -0.76277809221E+02 -0.15357011297E+01 -0.56403420437E+02  0.94878914383E+02  0.00000000000E+00 0. -1.
          3    1    6    6  503    0  0.72083897461E+00  0.40835938134E+02 -0.59062053326E+02  0.71808213982E+02  0.00000000000E+00 0. -1.
         -3    1    6    6    0  503  0.26219370360E+03  0.26036245425E+03 -0.50210147146E+03  0.62341000428E+03  0.00000000000E+00 0.  1.
<mgrwt>
<rscale>  0 0.12820429E+04</rscale>
<asrwt>0</asrwt>
<pdfrwt beam="1">  1        2 0.66147094E-01 0.12820429E+04</pdfrwt>
<pdfrwt beam="2">  1       -1 0.14703057E+00 0.12820429E+04</pdfrwt>
<totfact> 0.30289673E+01</totfact>
</mgrwt>
</event>
<event>
12    6  0.1663299E-008  0.1706568E+04  0.7818608E-02  0.8757627E-01
          2   -1    0    0  501    0  0.00000000000E+00  0.00000000000E+00  0.21467846545E+04  0.21467846545E+04  0.00000000000E+00 0. -1.
         -1   -1    0    0    0  501 -0.00000000000E+00 -0.00000000000E+00 -0.33915557533E+03  0.33915557533E+03  0.00000000000E+00 0.  1.
         24    2    1    2    0    0 -0.21880600351E+03 -0.19583502283E+02 -0.17570971657E+03  0.30051306065E+03  0.10571004865E+03 0.  0.
        254    2    1    2    0    0  0.21880600351E+03  0.19583502283E+02  0.19833387957E+04  0.21854271692E+04  0.89117874322E+03 0.  0.
         23    2    4    4    0    0  0.26254235257E+03 -0.39726336672E+03  0.10962516514E+04  0.11998763581E+04  0.10577770111E+03 0.  0.
         23    2    4    4    0    0 -0.43736349060E+02  0.41684686901E+03  0.88708714430E+03  0.98555081106E+03  0.93341411893E+02 0.  0.
          2    1    3    3  502    0 -0.56839807417E+02  0.40407554316E+02 -0.36724695765E+02  0.78817748205E+02  0.00000000000E+00 0. -1.
         -1    1    3    3    0  502 -0.16196619610E+03 -0.59991056599E+02 -0.13898502081E+03  0.22169531244E+03  0.00000000000E+00 0.  1.
         11    1    5    5    0    0  0.14803957735E+03 -0.30815067859E+03  0.73690842081E+03  0.81234634106E+03  0.00000000000E+00 0. -1.
        -11    1    5    5    0    0  0.11450277522E+03 -0.89112688137E+02  0.35934323061E+03  0.38753001704E+03  0.00000000000E+00 0.  1.
          3    1    6    6  503    0 -0.20187681568E+02  0.39977671387E+03  0.82995819580E+03  0.92144428492E+03  0.00000000000E+00 0. -1.
         -3    1    6    6    0  503 -0.23548667492E+02  0.17070155133E+02  0.57128948507E+02  0.64106526145E+02  0.00000000000E+00 0.  1.
<mgrwt>
<rscale>  0 0.17065685E+04</rscale>
<asrwt>0</asrwt>
<pdfrwt beam="1">  1        2 0.33027455E+00 0.17065685E+04</pdfrwt>
<pdfrwt beam="2">  1       -1 0.52177782E-01 0.17065685E+04</pdfrwt>
<totfact> 0.22172830E+01</totfact>
</mgrwt>
</event>
<event>
12    6  0.1663299E-008  0.2280990E+04  0.7818608E-02  0.8485454E-01
         -1   -1    0    0    0  501 -0.00000000000E+00  0.00000000000E+00  0.67286514043E+03  0.67286514043E+03  0.00000000000E+00 0.  1.
          2   -1    0    0  501    0  0.00000000000E+00 -0.00000000000E+00 -0.19331202833E+04  0.19331202833E+04  0.00000000000E+00 0. -1.
         24    2    1    2    0    0 -0.10961346142E+03 -0.74443512822E+03  0.15954414036E+03  0.77308090779E+03  0.77466032682E+02 0.  0.
        254    2    1    2    0    0  0.10961346142E+03  0.74443512822E+03 -0.14197992833E+04  0.18329045160E+04  0.88176538200E+03 0.  0.
         23    2    4    4    0    0  0.37184156907E+03  0.38652812479E+02 -0.39924974035E+03  0.56136319379E+03  0.12636489928E+03 0.  0.
         23    2    4    4    0    0 -0.26222810765E+03  0.70578231574E+03 -0.10205495429E+04  0.12715413222E+04  0.91671734175E+02 0.  0.
          4    1    3    3  502    0  0.71290332999E+01 -0.16810313290E+03  0.29156361782E+02  0.17076176339E+03  0.00000000000E+00 0. -1.
         -1    1    3    3    0  502 -0.11674249472E+03 -0.57633199533E+03  0.13038777858E+03  0.60231914440E+03  0.00000000000E+00 0.  1.
         11    1    5    5    0    0  0.12831097238E+03  0.28909874256E+02 -0.22892987137E+03  0.26402343166E+03  0.00000000000E+00 0.  1.
        -11    1    5    5    0    0  0.24353059669E+03  0.97429382227E+01 -0.17031986898E+03  0.29733976213E+03  0.00000000000E+00 0. -1.
          1    1    6    6  503    0 -0.19156508053E+03  0.60930051072E+03 -0.86970620828E+03  0.10790427152E+04  0.00000000000E+00 0. -1.
         -1    1    6    6    0  503 -0.70663027119E+02  0.96481805019E+02 -0.15084333463E+03  0.19249860702E+03  0.00000000000E+00 0.  1.
<mgrwt>
<rscale>  0 0.22809904E+04</rscale>
<asrwt>0</asrwt>
<pdfrwt beam="1">  1        2 0.29740312E+00 0.22809904E+04</pdfrwt>
<pdfrwt beam="2">  1       -1 0.10351771E+00 0.22809904E+04</pdfrwt>
<totfact> 0.66195944E+00</totfact>
</mgrwt>
</event>
<event>
11    6  0.1663299E-008  0.1353282E+04  0.7818608E-02  0.8988348E-01
         -1   -1    0    0    0  501 -0.00000000000E+00  0.00000000000E+00  0.83219180123E+03  0.83219180123E+03  0.00000000000E+00 0.  1.
          2   -1    0    0  501    0  0.00000000000E+00 -0.00000000000E+00 -0.55016503379E+03  0.55016503379E+03  0.00000000000E+00 0. -1.
         24    2    1    2    0    0 -0.20046439050E+03 -0.98416294180E+02 -0.21497028240E+03  0.32038431733E+03  0.81007096327E+02 0.  0.
        254    2    1    2    0    0  0.20046439050E+03  0.98416294180E+02  0.49699704985E+03  0.10619725177E+04  0.91154145378E+03 0.  0.
         23    2    4    4    0    0 -0.22243195836E+03 -0.11584269933E+03 -0.51720355681E+02  0.27095897879E+03  0.88590439157E+02 0.  0.
          2    1    3    3  502    0 -0.16615042361E+03 -0.91700481458E+02 -0.21312301048E+03  0.28537056463E+03  0.00000000000E+00 0. -1.
         -1    1    3    3    0  502 -0.34313966888E+02 -0.67158127224E+01 -0.18472719273E+01  0.35013752694E+02  0.00000000000E+00 0.  1.
         11    1    4    4    0    0  0.18118803092E+03  0.95939529584E+02  0.30758561049E+02  0.20731518266E+03  0.00000000000E+00 0. -1.
        -11    1    4    4    0    0  0.24170831794E+03  0.11831946392E+03  0.51795884448E+03  0.58369835624E+03  0.00000000000E+00 0.  1.
          3    1    5    5  503    0 -0.55019770151E+02 -0.61817761875E+01 -0.43929287887E+02  0.70676529333E+02  0.00000000000E+00 0. -1.
         -3    1    5    5    0  503 -0.16741218821E+03 -0.10966092314E+03 -0.77910677941E+01  0.20028244946E+03  0.00000000000E+00 0.  1.
<mgrwt>
<rscale>  0 0.13532817E+04</rscale>
<asrwt>0</asrwt>
<pdfrwt beam="1">  1        2 0.84640775E-01 0.13532817E+04</pdfrwt>
<pdfrwt beam="2">  1       -1 0.12802951E+00 0.13532817E+04</pdfrwt>
<totfact> 0.32389001E+01</totfact>
</mgrwt>
</event>
<event>
11    6  0.1663299E-008  0.2173214E+04  0.7818608E-02  0.8529660E-01
         -1   -1    0    0    0  501 -0.00000000000E+00  0.00000000000E+00  0.12059361997E+04  0.12059361997E+04  0.00000000000E+00 0.  1.
          2   -1    0    0  501    0  0.00000000000E+00 -0.00000000000E+00 -0.97908573617E+03  0.97908573617E+03  0.00000000000E+00 0. -1.
         24    2    1    2    0    0 -0.85599775389E+03  0.23323696908E+03  0.24079980351E+03  0.92230564294E+03  0.74374156950E+02 0.  0.
        254    2    1    2    0    0  0.85599775389E+03 -0.23323696908E+03 -0.13949339981E+02  0.12627162929E+04  0.89840203358E+03 0.  0.
         23    2    4    4    0    0  0.15139988127E+03  0.63586891328E+02  0.34590951516E+03  0.39593185166E+03  0.10071455549E+03 0.  0.
          2    1    3    3  502    0 -0.77772030853E+02  0.36772027832E+02  0.70296950781E+01  0.86313888956E+02  0.00000000000E+00 0. -1.
         -1    1    3    3    0  502 -0.77822572304E+03  0.19646494125E+03  0.23377010843E+03  0.83599175399E+03  0.00000000000E+00 0.  1.
         11    1    4    4    0    0  0.60266776184E+03 -0.31929580422E+03 -0.28960111905E+03  0.74096359553E+03  0.00000000000E+00 0.  1.
        -11    1    4    4    0    0  0.10193011078E+03  0.22471943805E+02 -0.70257736091E+02  0.12582084574E+03  0.00000000000E+00 0. -1.
          3    1    5    5  503    0 -0.15107050279E+02  0.46752656111E+01  0.23753757732E+02  0.28536329180E+02  0.00000000000E+00 0. -1.
         -3    1    5    5    0  503  0.16650693155E+03  0.58911625717E+02  0.32215575742E+03  0.36739552248E+03  0.00000000000E+00 0.  1.
<mgrwt>
<rscale>  0 0.21732141E+04</rscale>
<asrwt>0</asrwt>
<pdfrwt beam="1">  1        2 0.15062858E+00 0.21732141E+04</pdfrwt>
<pdfrwt beam="2">  1       -1 0.18552864E+00 0.21732141E+04</pdfrwt>
<totfact> 0.51589098E+00</totfact>
</mgrwt>
</event>
<event>
11    6  0.1663299E-008  0.1182042E+04  0.7818608E-02  0.9128722E-01
          2   -1    0    0  501    0  0.00000000000E+00  0.00000000000E+00  0.21290015711E+03  0.21290015711E+03  0.00000000000E+00 0. -1.
         -1   -1    0    0    0  501 -0.00000000000E+00 -0.00000000000E+00 -0.16407018690E+04  0.16407018690E+04  0.00000000000E+00 0.  1.
         24    2    1    2    0    0  0.22114367876E+03  0.44581918914E+02 -0.49205636995E+03  0.54731242521E+03  0.80866219369E+02 0.  0.
        254    2    1    2    0    0 -0.22114367876E+03 -0.44581918914E+02 -0.93574534190E+03  0.13062896009E+04  0.88310877147E+03 0.  0.
         23    2    4    4    0    0 -0.14220629932E+03 -0.39420439597E+03 -0.76166921445E+03  0.87384551722E+03  0.88579107919E+02 0.  0.
          4    1    3    3  502    0  0.14951200977E+03  0.21846148953E+02 -0.23407688212E+03  0.27860919230E+03  0.00000000000E+00 0. -1.
         -3    1    3    3    0  502  0.71631668985E+02  0.22735769961E+02 -0.25797948783E+03  0.26870323291E+03  0.00000000000E+00 0.  1.
         11    1    4    4    0    0 -0.70350626339E+02  0.35096036744E+03 -0.19654498062E+03  0.40835317992E+03  0.00000000000E+00 0.  1.
        -11    1    4    4    0    0 -0.85867530955E+01 -0.13378903920E+01  0.22468853162E+02  0.24090903715E+02  0.00000000000E+00 0. -1.
          4    1    5    5  503    0 -0.82319790981E+02 -0.12830471249E+03 -0.22269563245E+03  0.26987402977E+03  0.00000000000E+00 0. -1.
         -4    1    5    5    0  503 -0.59886508342E+02 -0.26589968348E+03 -0.53897358200E+03  0.60397148745E+03  0.00000000000E+00 0.  1.
<mgrwt>
<rscale>  0 0.11820418E+04</rscale>
<asrwt>0</asrwt>
<pdfrwt beam="1">  1        2 0.32753870E-01 0.11820418E+04</pdfrwt>
<pdfrwt beam="2">  1       -1 0.25241568E+00 0.11820418E+04</pdfrwt>
<totfact> 0.12320346E+01</totfact>
</mgrwt>
</event>
<event>
12    6  0.1663299E-008  0.1467014E+04  0.7818608E-02  0.8906689E-01
          2   -1    0    0  501    0  0.00000000000E+00  0.00000000000E+00  0.15214756715E+04  0.15214756715E+04  0.00000000000E+00 0. -1.
         -1   -1    0    0    0  501 -0.00000000000E+00 -0.00000000000E+00 -0.35362552731E+03  0.35362552731E+03  0.00000000000E+00 0.  1.
         24    2    1    2    0    0 -0.21230994822E+03 -0.39184665156E+03  0.32647646017E+03  0.55866986202E+03  0.83101282976E+02 0.  0.
        254    2    1    2    0    0  0.21230994822E+03  0.39184665156E+03  0.84137368401E+03  0.13164313368E+04  0.90909981622E+03 0.  0.
         23    2    4    4    0    0  0.30190004009E+03 -0.15888180520E+03  0.61473108426E+03  0.70730269690E+03  0.77432143545E+02 0.  0.
         23    2    4    4    0    0 -0.89590091868E+02  0.55072845676E+03  0.22664259975E+03  0.60912863988E+03  0.91337912458E+02 0.  0.
          2    1    3    3  502    0 -0.25059456953E+02 -0.90300372102E+02  0.10286533092E+03  0.13915246994E+03  0.00000000000E+00 0. -1.
         -1    1    3    3    0  502 -0.18725049127E+03 -0.30154627946E+03  0.22361112925E+03  0.41951739209E+03  0.00000000000E+00 0.  1.
         11    1    5    5    0    0  0.59408805383E+02 -0.40778826334E+01  0.75823247286E+02  0.96411618143E+02  0.00000000000E+00 0.  1.
        -11    1    5    5    0    0  0.24249123471E+03 -0.15480392257E+03  0.53890783697E+03  0.61089107876E+03  0.00000000000E+00 0. -1.
          3    1    6    6  503    0 -0.17440494363E+02  0.34966194023E+03  0.16334958031E+03  0.38632981852E+03  0.00000000000E+00 0. -1.
         -3    1    6    6    0  503 -0.72149597505E+02  0.20106651653E+03  0.63293019445E+02  0.22279882136E+03  0.00000000000E+00 0.  1.
<mgrwt>
<rscale>  0 0.14670142E+04</rscale>
<asrwt>0</asrwt>
<pdfrwt beam="1">  1        2 0.23407318E+00 0.14670142E+04</pdfrwt>
<pdfrwt beam="2">  1       -1 0.54403928E-01 0.14670142E+04</pdfrwt>
<totfact> 0.46487452E+01</totfact>
</mgrwt>
</event>
<event>
12    6  0.1663299E-008  0.1707153E+04  0.7818608E-02  0.8757295E-01
         -1   -1    0    0    0  501 -0.00000000000E+00  0.00000000000E+00  0.70313990465E+03  0.70313990465E+03  0.00000000000E+00 0.  1.
          2   -1    0    0  501    0  0.00000000000E+00 -0.00000000000E+00 -0.10361994896E+04  0.10361994896E+04  0.00000000000E+00 0. -1.
         24    2    1    2    0    0  0.60385408621E+03  0.35192610450E+02 -0.55036894330E+02  0.61364208212E+03  0.87460093411E+02 0.  0.
        254    2    1    2    0    0 -0.60385408621E+03 -0.35192610450E+02 -0.27802269064E+03  0.11256973121E+04  0.90775522295E+03 0.  0.
         23    2    4    4    0    0 -0.10551853585E+03 -0.20510130578E+03 -0.48723097776E+03  0.55049483696E+03  0.11157881873E+03 0.  0.
         23    2    4    4    0    0 -0.49833555036E+03  0.16990869533E+03  0.20920828712E+03  0.57520247519E+03  0.99410736636E+02 0.  0.
          4    1    3    3  502    0  0.41657952174E+02 -0.92296226837E+00  0.18345274843E+02  0.45527859029E+02  0.00000000000E+00 0. -1.
         -3    1    3    3    0  502  0.56219613404E+03  0.36115572719E+02 -0.73382169172E+02  0.56811422309E+03  0.00000000000E+00 0.  1.
         11    1    5    5    0    0 -0.27986007040E+02  0.81690498812E+01 -0.61534761822E+02  0.68091679951E+02  0.00000000000E+00 0.  1.
        -11    1    5    5    0    0 -0.77532528812E+02 -0.21327035567E+03 -0.42569621593E+03  0.48240315701E+03  0.00000000000E+00 0. -1.
          4    1    6    6  503    0 -0.33867604017E+03  0.10733529944E+03  0.18931244066E+03  0.40256866108E+03  0.00000000000E+00 0.  1.
         -4    1    6    6    0  503 -0.15965951019E+03  0.62573395889E+02  0.19895846455E+02  0.17263381411E+03  0.00000000000E+00 0. -1.
<mgrwt>
<rscale>  0 0.17071534E+04</rscale>
<asrwt>0</asrwt>
<pdfrwt beam="1">  1        2 0.15941531E+00 0.17071534E+04</pdfrwt>
<pdfrwt beam="2">  1       -1 0.10817537E+00 0.17071534E+04</pdfrwt>
<totfact> 0.20575042E+01</totfact>
</mgrwt>
</event>
<event>
12    6  0.1663299E-008  0.1483161E+04  0.7818608E-02  0.8895729E-01
         -1   -1    0    0    0  501 -0.00000000000E+00  0.00000000000E+00  0.48966687639E+03  0.48966687639E+03  0.00000000000E+00 0.  1.
          2   -1    0    0  501    0  0.00000000000E+00 -0.00000000000E+00 -0.11230931752E+04  0.11230931752E+04  0.00000000000E+00 0. -1.
         24    2    1    2    0    0 -0.45775939514E+03 -0.90734110858E+02 -0.20258124930E+03  0.51511094486E+03  0.80769921632E+02 0.  0.
        254    2    1    2    0    0  0.45775939514E+03  0.90734110858E+02 -0.43084504954E+03  0.10976491068E+04  0.89522609555E+03 0.  0.
         23    2    4    4    0    0  0.69479418984E+03 -0.69580666126E+02 -0.27061865884E+03  0.75775854329E+03  0.11568541862E+03 0.  0.
         23    2    4    4    0    0 -0.23703479470E+03  0.16031477698E+03 -0.16022639071E+03  0.33989056347E+03  0.89256805010E+02 0.  0.
          4    1    3    3  502    0 -0.81368962453E+02 -0.18375134257E+02 -0.72004824676E+02  0.11019640823E+03  0.00000000000E+00 0. -1.
         -3    1    3    3    0  502 -0.37639043269E+03 -0.72358976601E+02 -0.13057642462E+03  0.40491453664E+03  0.00000000000E+00 0.  1.
         11    1    5    5    0    0  0.34265103701E+03 -0.85873760049E+02 -0.16405277771E+03  0.38948343957E+03  0.00000000000E+00 0. -1.
        -11    1    5    5    0    0  0.35214315283E+03  0.16293093923E+02 -0.10656588113E+03  0.36827510372E+03  0.00000000000E+00 0.  1.
          4    1    6    6  503    0 -0.23382221156E+03  0.12766088735E+03 -0.14882813412E+03  0.30515560339E+03  0.00000000000E+00 0. -1.
         -4    1    6    6    0  503 -0.32125831448E+01  0.32653889632E+02 -0.11398256590E+02  0.34734960082E+02  0.00000000000E+00 0.  1.
<mgrwt>
<rscale>  0 0.14831609E+04</rscale>
<asrwt>0</asrwt>
<pdfrwt beam="1">  1        2 0.17278356E+00 0.14831609E+04</pdfrwt>
<pdfrwt beam="2">  1       -1 0.75333366E-01 0.14831609E+04</pdfrwt>
<totfact> 0.41213041E+01</totfact>
</mgrwt>
</event>
<event>
12    6  0.1663299E-008  0.1492513E+04  0.7818608E-02  0.8889447E-01
         -1   -1    0    0    0  501 -0.00000000000E+00  0.00000000000E+00  0.27912854166E+03  0.27912854166E+03  0.00000000000E+00 0.  1.
          2   -1    0    0  501    0  0.00000000000E+00 -0.00000000000E+00 -0.19951339223E+04  0.19951339223E+04  0.00000000000E+00 0. -1.
         24    2    1    2    0    0 -0.41439124907E+03 -0.20604241622E+03 -0.59159132356E+03  0.75561365261E+03  0.82450672017E+02 0.  0.
        254    2    1    2    0    0  0.41439124907E+03  0.20604241622E+03 -0.11244140571E+04  0.15186488114E+04  0.90984265446E+03 0.  0.
         23    2    4    4    0    0  0.56866858821E+03 -0.32263662319E+01 -0.11007731096E+04  0.12441165592E+04  0.11282819508E+03 0.  0.
         23    2    4    4    0    0 -0.15427733914E+03  0.20926878246E+03 -0.23640947533E+02  0.27453225212E+03  0.84936107591E+02 0.  0.
          2    1    3    3  502    0 -0.73098500013E+01 -0.22093738478E+02 -0.32639501622E+02  0.40086210261E+02  0.00000000000E+00 0. -1.
         -1    1    3    3    0  502 -0.40708139907E+03 -0.18394867775E+03 -0.55895182194E+03  0.71552744235E+03  0.00000000000E+00 0.  1.
         11    1    5    5    0    0  0.46644619009E+02  0.18875701044E+01 -0.17682686673E+03  0.18288527607E+03  0.00000000000E+00 0.  1.
        -11    1    5    5    0    0  0.52202396920E+03 -0.51139363363E+01 -0.92394624283E+03  0.10612312832E+04  0.00000000000E+00 0. -1.
          1    1    6    6  503    0 -0.15357366016E+03  0.17202593346E+03 -0.35530445734E+00  0.23060337621E+03  0.00000000000E+00 0. -1.
         -1    1    6    6    0  503 -0.70367897675E+00  0.37242848997E+02 -0.23285643076E+02  0.43928875913E+02  0.00000000000E+00 0.  1.
<mgrwt>
<rscale>  0 0.14925131E+04</rscale>
<asrwt>0</asrwt>
<pdfrwt beam="1">  1        2 0.30694367E+00 0.14925131E+04</pdfrwt>
<pdfrwt beam="2">  1       -1 0.42942854E-01 0.14925131E+04</pdfrwt>
<totfact> 0.39574681E+01</totfact>
</mgrwt>
</event>
<event>
11    6  0.1663299E-008  0.1228491E+04  0.7818608E-02  0.9088278E-01
          2   -1    0    0  501    0  0.00000000000E+00  0.00000000000E+00  0.88729929308E+03  0.88729929308E+03  0.00000000000E+00 0. -1.
         -1   -1    0    0    0  501 -0.00000000000E+00 -0.00000000000E+00 -0.42521987711E+03  0.42521987711E+03  0.00000000000E+00 0.  1.
         24    2    1    2    0    0 -0.97347680126E+02 -0.21537747648E+03 -0.25217844674E+02  0.25041506680E+03  0.78789198431E+02 0.  0.
        254    2    1    2    0    0  0.97347680126E+02  0.21537747648E+03  0.48729726064E+03  0.10621041034E+04  0.91364242348E+03 0.  0.
         23    2    4    4    0    0  0.61586774760E+02  0.18417718549E+03  0.66414166884E+03  0.69766537124E+03  0.89099087839E+02 0.  0.
          4    1    3    3  502    0 -0.39265731796E+02 -0.17716757002E+02 -0.25285574213E+01  0.43151764446E+02  0.00000000000E+00 0. -1.
         -3    1    3    3    0  502 -0.58081948329E+02 -0.19766071948E+03 -0.22689287253E+02  0.20726330236E+03  0.00000000000E+00 0.  1.
         11    1    4    4    0    0 -0.78905501394E+02 -0.10563448459E+03 -0.34989651009E+02  0.13641480185E+03  0.00000000000E+00 0.  1.
        -11    1    4    4    0    0  0.11466640676E+03  0.13683477559E+03 -0.14185475719E+03  0.22802393030E+03  0.00000000000E+00 0. -1.
          3    1    5    5  503    0  0.13826270134E+02  0.15769356246E+03  0.51826346342E+03  0.54189984583E+03  0.00000000000E+00 0. -1.
         -3    1    5    5    0  503  0.47760504626E+02  0.26483623029E+02  0.14587820542E+03  0.15576552541E+03  0.00000000000E+00 0.  1.
<mgrwt>
<rscale>  0 0.12284906E+04</rscale>
<asrwt>0</asrwt>
<pdfrwt beam="1">  1        2 0.13650758E+00 0.12284906E+04</pdfrwt>
<pdfrwt beam="2">  1       -1 0.65418443E-01 0.12284906E+04</pdfrwt>
<totfact> 0.79650739E+01</totfact>
</mgrwt>
</event>
<event>
12    6  0.1663299E-008  0.1898116E+04  0.7818608E-02  0.8655795E-01
         -1   -1    0    0    0  501 -0.00000000000E+00  0.00000000000E+00  0.12646242770E+04  0.12646242770E+04  0.00000000000E+00 0.  1.
          2   -1    0    0  501    0  0.00000000000E+00 -0.00000000000E+00 -0.71223640536E+03  0.71223640536E+03  0.00000000000E+00 0. -1.
         24    2    1    2    0    0  0.60347179916E+03  0.12511536779E+03  0.48728282704E+03  0.78972168927E+03  0.79898218586E+02 0.  0.
        254    2    1    2    0    0 -0.60347179916E+03 -0.12511536779E+03  0.65105044554E+02  0.11871389930E+04  0.10125355571E+04 0.  0.
         23    2    4    4    0    0 -0.55528476183E+03  0.35452146960E+03  0.16092528314E+03  0.68732848884E+03  0.11178938094E+03 0.  0.
         23    2    4    4    0    0 -0.48187037334E+02 -0.47963683740E+03 -0.95820238581E+02  0.49981050420E+03  0.90859978185E+02 0.  0.
          4    1    3    3  502    0  0.50959638327E+03  0.94274670847E+02  0.37227128423E+03  0.63809254538E+03  0.00000000000E+00 0. -1.
         -3    1    3    3    0  502  0.93875415887E+02  0.30840696946E+02  0.11501154282E+03  0.15162914389E+03  0.00000000000E+00 0.  1.
         11    1    5    5    0    0 -0.37874253209E+02  0.65167609847E+02  0.20103319989E+02  0.78009101417E+02  0.00000000000E+00 0.  1.
        -11    1    5    5    0    0 -0.51741050862E+03  0.28935385976E+03  0.14082196315E+03  0.60931938742E+03  0.00000000000E+00 0. -1.
          1    1    6    6  503    0  0.20406031912E+02 -0.22562034458E+03 -0.29394389467E+02  0.22844031203E+03  0.00000000000E+00 0. -1.
         -1    1    6    6    0  503 -0.68593069246E+02 -0.25401649281E+03 -0.66425849115E+02  0.27137019217E+03  0.00000000000E+00 0.  1.
<mgrwt>
<rscale>  0 0.18981164E+04</rscale>
<asrwt>0</asrwt>
<pdfrwt beam="1">  1        2 0.10957483E+00 0.18981164E+04</pdfrwt>
<pdfrwt beam="2">  1       -1 0.19455758E+00 0.18981164E+04</pdfrwt>
<totfact> 0.70360946E+00</totfact>
</mgrwt>
</event>
<event>
11    6  0.1663299E-008  0.2990944E+04  0.7818608E-02  0.8246322E-01
          2   -1    0    0  501    0  0.00000000000E+00  0.00000000000E+00  0.26986531245E+04  0.26986531245E+04  0.00000000000E+00 0. -1.
         -1   -1    0    0    0  501 -0.00000000000E+00 -0.00000000000E+00 -0.82872320219E+03  0.82872320219E+03  0.00000000000E+00 0.  1.
         24    2    1    2    0    0  0.14239732717E+03 -0.96708708278E+03 -0.25874897763E+03  0.10144197706E+04  0.81006253559E+02 0.  0.
        254    2    1    2    0    0 -0.14239732717E+03  0.96708708278E+03  0.21286788999E+04  0.25129565561E+04  0.91002327948E+03 0.  0.
         23    2    4    4    0    0 -0.12389616888E+03  0.41929096452E+03  0.17479002221E+03  0.47940484214E+03  0.90123677331E+02 0.  0.
          4    1    3    3  502    0  0.22950995919E+01 -0.24889282122E+00  0.22460707217E+01  0.32209103464E+01  0.00000000000E+00 0. -1.
         -3    1    3    3    0  502  0.14010222758E+03 -0.96683818996E+03 -0.26099504835E+03  0.10111988603E+04  0.00000000000E+00 0.  1.
         11    1    4    4    0    0 -0.26034061514E+02  0.42105701912E+03  0.16718521967E+04  0.17242553619E+04  0.00000000000E+00 0.  1.
        -11    1    4    4    0    0  0.75329032231E+01  0.12673909914E+03  0.28203668107E+03  0.30929635199E+03  0.00000000000E+00 0. -1.
          4    1    5    5  503    0 -0.81616350995E+02  0.14879715872E+03  0.93753160911E+02  0.19388521959E+03  0.00000000000E+00 0. -1.
         -4    1    5    5    0  503 -0.42279817883E+02  0.27049380580E+03  0.81036861298E+02  0.28551962256E+03  0.00000000000E+00 0.  1.
<mgrwt>
<rscale>  0 0.29909440E+04</rscale>
<asrwt>0</asrwt>
<pdfrwt beam="1">  1        2 0.41517740E+00 0.29909440E+04</pdfrwt>
<pdfrwt beam="2">  1       -1 0.12749588E+00 0.29909440E+04</pdfrwt>
<totfact> 0.13789494E+00</totfact>
</mgrwt>
</event>
<event>
12    6  0.1663299E-008  0.1617809E+04  0.7818608E-02  0.8809681E-01
          2   -1    0    0  501    0  0.00000000000E+00  0.00000000000E+00  0.37069829824E+04  0.37069829824E+04  0.00000000000E+00 0. -1.
         -1   -1    0    0    0  501 -0.00000000000E+00 -0.00000000000E+00 -0.17651197529E+03  0.17651197529E+03  0.00000000000E+00 0.  1.
         24    2    1    2    0    0 -0.62899479068E+02  0.14686138390E+03  0.25115825262E+04  0.25179039079E+04  0.79175078393E+02 0.  0.
        254    2    1    2    0    0  0.62899479068E+02 -0.14686138390E+03  0.10188884809E+04  0.13655910498E+04  0.89508690536E+03 0.  0.
         23    2    4    4    0    0  0.39862340956E+03 -0.30529257551E+03  0.69466110144E+03  0.86415094383E+03  0.10999376597E+03 0.  0.
         23    2    4    4    0    0 -0.33572393049E+03  0.15843119161E+03  0.32422737950E+03  0.50144010597E+03  0.92237661922E+02 0.  0.
          2    1    3    3  502    0 -0.48244075206E+02  0.15242871544E+03  0.21262404602E+04  0.21322430675E+04  0.00000000000E+00 0. -1.
         -3    1    3    3    0  502 -0.14655403862E+02 -0.55673315354E+01  0.38534206595E+03  0.38566084042E+03  0.00000000000E+00 0.  1.
         11    1    5    5    0    0  0.23885389884E+03 -0.11592633933E+03  0.33605553454E+03  0.42827960895E+03  0.00000000000E+00 0. -1.
        -11    1    5    5    0    0  0.15976951072E+03 -0.18936623618E+03  0.35860556689E+03  0.43587133488E+03  0.00000000000E+00 0.  1.
          4    1    6    6  503    0  0.56769401111E+01  0.13678162205E+01  0.10002422911E+02  0.11582186077E+02  0.00000000000E+00 0. -1.
         -4    1    6    6    0  503 -0.34140087061E+03  0.15706337539E+03  0.31422495659E+03  0.48985791989E+03  0.00000000000E+00 0.  1.
<mgrwt>
<rscale>  0 0.16178095E+04</rscale>
<asrwt>0</asrwt>
<pdfrwt beam="1">  1        2 0.57030501E+00 0.16178095E+04</pdfrwt>
<pdfrwt beam="2">  1       -1 0.27155691E-01 0.16178095E+04</pdfrwt>
<totfact> 0.77493248E+00</totfact>
</mgrwt>
</event>
<event>
11    6  0.1663299E-008  0.1854281E+04  0.7818608E-02  0.8677954E-01
         -1   -1    0    0    0  501 -0.00000000000E+00  0.00000000000E+00  0.13151002439E+04  0.13151002439E+04  0.00000000000E+00 0.  1.
          2   -1    0    0  501    0  0.00000000000E+00 -0.00000000000E+00 -0.65363057828E+03  0.65363057828E+03  0.00000000000E+00 0. -1.
         24    2    1    2    0    0  0.68125946780E+03 -0.11406878602E+03  0.92754245482E+02  0.70111433316E+03  0.76366273322E+02 0.  0.
        254    2    1    2    0    0 -0.68125946780E+03  0.11406878602E+03  0.56871542016E+03  0.12676164890E+04  0.89793551203E+03 0.  0.
         23    2    4    4    0    0 -0.15740845040E+03  0.82300821557E+02 -0.22362559515E+03  0.30133893077E+03  0.96155597356E+02 0.  0.
          4    1    3    3  502    0  0.59563215009E+03 -0.91563936497E+02  0.55904526613E+02  0.60521643135E+03  0.00000000000E+00 0. -1.
         -3    1    3    3    0  502  0.85627317708E+02 -0.22504849527E+02  0.36849718869E+02  0.95897901806E+02  0.00000000000E+00 0.  1.
         11    1    4    4    0    0 -0.46158496319E+03  0.73480994139E+02  0.73855803612E+03  0.87402980926E+03  0.00000000000E+00 0.  1.
        -11    1    4    4    0    0 -0.62266054197E+02 -0.41713029672E+02  0.53782979182E+02  0.92247749021E+02  0.00000000000E+00 0. -1.
          3    1    5    5  503    0 -0.65818053404E+02  0.46633420635E+02 -0.33568536262E+02  0.87370124761E+02  0.00000000000E+00 0. -1.
         -3    1    5    5    0  503 -0.91590397000E+02  0.35667400923E+02 -0.19005705889E+03  0.21396880601E+03  0.00000000000E+00 0.  1.
<mgrwt>
<rscale>  0 0.18542812E+04</rscale>
<asrwt>0</asrwt>
<pdfrwt beam="1">  1        2 0.10055855E+00 0.18542812E+04</pdfrwt>
<pdfrwt beam="2">  1       -1 0.20232311E+00 0.18542812E+04</pdfrwt>
<totfact> 0.69516870E+00</totfact>
</mgrwt>
</event>
<event>
12    6  0.1663299E-008  0.3382160E+04  0.7818608E-02  0.8142299E-01
         -1   -1    0    0    0  501 -0.00000000000E+00  0.00000000000E+00  0.13227143914E+04  0.13227143914E+04  0.00000000000E+00 0.  1.
          2   -1    0    0  501    0  0.00000000000E+00 -0.00000000000E+00 -0.21620322513E+04  0.21620322513E+04  0.00000000000E+00 0. -1.
         24    2    1    2    0    0 -0.13018390801E+04 -0.86709847167E+03 -0.54451810667E+03  0.16579812055E+04  0.75874629622E+02 0.  0.
        254    2    1    2    0    0  0.13018390801E+04  0.86709847167E+03 -0.29479975322E+03  0.18267654372E+04  0.89639294852E+03 0.  0.
         23    2    4    4    0    0  0.83476735343E+03  0.81186184485E+02 -0.34009602291E+03  0.90672360494E+03  0.55268979163E+02 0.  0.
         23    2    4    4    0    0  0.46707172663E+03  0.78591228719E+03  0.45296269691E+02  0.92004183227E+03  0.92796013441E+02 0.  0.
          2    1    3    3  502    0 -0.12292899323E+04 -0.82562892877E+03 -0.49783129592E+03  0.15622588981E+04  0.00000000000E+00 0. -1.
         -1    1    3    3    0  502 -0.72549147777E+02 -0.41469542905E+02 -0.46686810742E+02  0.95722307375E+02  0.00000000000E+00 0.  1.
         11    1    5    5    0    0  0.28701828001E+03  0.59536671748E+01 -0.13191369668E+03  0.31593695983E+03  0.00000000000E+00 0.  1.
        -11    1    5    5    0    0  0.54774907342E+03  0.75232517310E+02 -0.20818232623E+03  0.59078664512E+03  0.00000000000E+00 0. -1.
          1    1    6    6  503    0  0.28396789317E+03  0.56187349269E+03  0.34264973244E+02  0.63048685515E+03  0.00000000000E+00 0. -1.
         -1    1    6    6    0  503  0.18310383346E+03  0.22403879450E+03  0.11031296447E+02  0.28955497712E+03  0.00000000000E+00 0.  1.
<mgrwt>
<rscale>  0 0.33821598E+04</rscale>
<asrwt>0</asrwt>
<pdfrwt beam="1">  1        2 0.33262034E+00 0.33821598E+04</pdfrwt>
<pdfrwt beam="2">  1       -1 0.20349452E+00 0.33821598E+04</pdfrwt>
<totfact> 0.72861540E-01</totfact>
</mgrwt>
</event>
<event>
12    6  0.1663299E-008  0.1574674E+04  0.7818608E-02  0.8836259E-01
         -1   -1    0    0    0  501 -0.00000000000E+00  0.00000000000E+00  0.35834440315E+03  0.35834440315E+03  0.00000000000E+00 0.  1.
          2   -1    0    0  501    0  0.00000000000E+00 -0.00000000000E+00 -0.17298998612E+04  0.17298998612E+04  0.00000000000E+00 0. -1.
         24    2    1    2    0    0 -0.16502511393E+03  0.37270460271E+03 -0.95595196917E+03  0.10422279118E+04  0.79074924975E+02 0.  0.
        254    2    1    2    0    0  0.16502511393E+03 -0.37270460271E+03 -0.41560348885E+03  0.10460163525E+04  0.86906958329E+03 0.  0.
         23    2    4    4    0    0 -0.43751824978E+02 -0.60918784583E+03 -0.34449643832E+03  0.70971786723E+03  0.10953356268E+03 0.  0.
         23    2    4    4    0    0  0.20877693891E+03  0.23648324311E+03 -0.71107050530E+02  0.33629848525E+03  0.92348925575E+02 0.  0.
          2    1    3    3  502    0 -0.11002006351E+03  0.31500142998E+03 -0.73043394072E+03  0.80303428135E+03  0.00000000000E+00 0. -1.
         -1    1    3    3    0  502 -0.55005050418E+02  0.57703172735E+02 -0.22551802845E+03  0.23919363049E+03  0.00000000000E+00 0.  1.
         11    1    5    5    0    0 -0.15841410995E+02 -0.49348417379E+03 -0.31950650505E+03  0.58810032040E+03  0.00000000000E+00 0.  1.
        -11    1    5    5    0    0 -0.27910413982E+02 -0.11570367203E+03 -0.24989933269E+02  0.12161754682E+03  0.00000000000E+00 0. -1.
          1    1    6    6  503    0  0.19210656819E+03  0.21989030868E+03 -0.90631669676E+02  0.30572991502E+03  0.00000000000E+00 0. -1.
         -1    1    6    6    0  503  0.16670370718E+02  0.16592934437E+02  0.19524619146E+02  0.30568570230E+02  0.00000000000E+00 0.  1.
<mgrwt>
<rscale>  0 0.15746745E+04</rscale>
<asrwt>0</asrwt>
<pdfrwt beam="1">  1        2 0.26613844E+00 0.15746745E+04</pdfrwt>
<pdfrwt beam="2">  1       -1 0.55129908E-01 0.15746745E+04</pdfrwt>
<totfact> 0.34355908E+01</totfact>
</mgrwt>
</event>
<event>
12    6  0.1663299E-008  0.1847615E+04  0.7818608E-02  0.8681380E-01
         -1   -1    0    0    0  501 -0.00000000000E+00  0.00000000000E+00  0.60694191854E+03  0.60694191854E+03  0.00000000000E+00 0.  1.
          2   -1    0    0  501    0  0.00000000000E+00 -0.00000000000E+00 -0.14060984591E+04  0.14060984591E+04  0.00000000000E+00 0. -1.
         24    2    1    2    0    0 -0.26575724236E+03  0.16942949825E+03  0.39250039568E+03  0.51008361252E+03  0.82434606848E+02 0.  0.
        254    2    1    2    0    0  0.26575724236E+03 -0.16942949825E+03 -0.11916569363E+04  0.15029567651E+04  0.85994157791E+03 0.  0.
         23    2    4    4    0    0  0.33737008517E+03 -0.16865121912E+02 -0.66764398385E+02  0.36181634295E+03  0.11113313830E+03 0.  0.
         23    2    4    4    0    0 -0.71612842809E+02 -0.15256437634E+03 -0.11248925379E+04  0.11411404222E+04  0.91727603419E+02 0.  0.
          2    1    3    3  502    0 -0.39513589996E+02  0.23970139601E+02  0.11348502634E+03  0.12253465873E+03  0.00000000000E+00 0. -1.
         -1    1    3    3    0  502 -0.22624365236E+03  0.14545935865E+03  0.27901536934E+03  0.38754895379E+03  0.00000000000E+00 0.  1.
         11    1    5    5    0    0  0.18857058958E+03  0.32335029182E+01 -0.91532270571E+02  0.20963654107E+03  0.00000000000E+00 0. -1.
        -11    1    5    5    0    0  0.14879949558E+03 -0.20098624830E+02  0.24767872186E+02  0.15217980187E+03  0.00000000000E+00 0.  1.
          2    1    6    6  503    0 -0.89871581065E+02 -0.11112178196E+03 -0.74741706097E+03  0.76095808987E+03  0.00000000000E+00 0. -1.
         -2    1    6    6    0  503  0.18258738256E+02 -0.41442594381E+02 -0.37747547690E+03  0.38018233232E+03  0.00000000000E+00 0.  1.
<mgrwt>
<rscale>  0 0.18476148E+04</rscale>
<asrwt>0</asrwt>
<pdfrwt beam="1">  1        2 0.21632284E+00 0.18476148E+04</pdfrwt>
<pdfrwt beam="2">  1       -1 0.93375680E-01 0.18476148E+04</pdfrwt>
<totfact> 0.17125063E+01</totfact>
</mgrwt>
</event>
<event>
11    6  0.1663299E-008  0.1548183E+04  0.7818608E-02  0.8853029E-01
         -1   -1    0    0    0  501 -0.00000000000E+00  0.00000000000E+00  0.32042661270E+03  0.32042661270E+03  0.00000000000E+00 0.  1.
          2   -1    0    0  501    0  0.00000000000E+00 -0.00000000000E+00 -0.18700612396E+04  0.18700612396E+04  0.00000000000E+00 0. -1.
         24    2    1    2    0    0 -0.80278498114E+02 -0.43910008007E+03 -0.82079460102E+03  0.93745130457E+03  0.76535310787E+02 0.  0.
        254    2    1    2    0    0  0.80278498114E+02  0.43910008007E+03 -0.72884002584E+03  0.12530365477E+04  0.91631833388E+03 0.  0.
         23    2    4    4    0    0  0.25058129328E+03 -0.17060780689E+03 -0.59673092638E+02  0.32202382621E+03  0.90776970362E+02 0.  0.
          4    1    3    3  502    0 -0.43932263298E+02 -0.38628163991E+03 -0.70602162280E+03  0.80598392102E+03  0.00000000000E+00 0. -1.
         -1    1    3    3    0  502 -0.36346234816E+02 -0.52818440157E+02 -0.11477297823E+03  0.13146738355E+03  0.00000000000E+00 0.  1.
         11    1    4    4    0    0  0.17347982763E+02  0.90767779666E+02 -0.13012087448E+03  0.15959694328E+03  0.00000000000E+00 0.  1.
        -11    1    4    4    0    0 -0.18765077793E+03  0.51894010729E+03 -0.53904605873E+03  0.77141577819E+03  0.00000000000E+00 0. -1.
          2    1    5    5  503    0  0.25550478994E+03 -0.17029133270E+03 -0.49907795695E+02  0.31108298531E+03  0.00000000000E+00 0. -1.
         -2    1    5    5    0  503 -0.49234966631E+01 -0.31647419214E+00 -0.97652969421E+01  0.10940840903E+02  0.00000000000E+00 0.  1.
<mgrwt>
<rscale>  0 0.15481827E+04</rscale>
<asrwt>0</asrwt>
<pdfrwt beam="1">  1        2 0.28770172E+00 0.15481827E+04</pdfrwt>
<pdfrwt beam="2">  1       -1 0.49296403E-01 0.15481827E+04</pdfrwt>
<totfact> 0.35681389E+01</totfact>
</mgrwt>
</event>
<event>
11    6  0.1663299E-008  0.3396389E+04  0.7818608E-02  0.8138793E-01
          2   -1    0    0  501    0  0.00000000000E+00  0.00000000000E+00  0.25518217634E+04  0.25518217634E+04  0.00000000000E+00 0. -1.
         -1   -1    0    0    0  501 -0.00000000000E+00 -0.00000000000E+00 -0.11301199655E+04  0.11301199655E+04  0.00000000000E+00 0.  1.
         24    2    1    2    0    0 -0.17573634715E+03 -0.39668437242E+03  0.22931249079E+04  0.23352460500E+04  0.81917736675E+02 0.  0.
        254    2    1    2    0    0  0.17573634715E+03  0.39668437242E+03 -0.87142311005E+03  0.13466956789E+04  0.93057469336E+03 0.  0.
         23    2    4    4    0    0  0.21312070504E+02  0.43949230664E+03 -0.91582579998E+03  0.10200694867E+04  0.90538223507E+02 0.  0.
          2    1    3    3  502    0 -0.13983385664E+03 -0.28446363175E+03  0.14744983742E+04  0.15081838484E+04  0.00000000000E+00 0. -1.
         -1    1    3    3    0  502 -0.35902490512E+02 -0.11222074067E+03  0.81862653372E+03  0.82706220151E+03  0.00000000000E+00 0.  1.
         11    1    4    4    0    0  0.18745407662E+03  0.31409337313E+02 -0.55366737954E+02  0.19796730281E+03  0.00000000000E+00 0.  1.
        -11    1    4    4    0    0 -0.33029799971E+02 -0.74217271541E+02  0.99769427881E+02  0.12865888940E+03  0.00000000000E+00 0. -1.
          2    1    5    5  503    0  0.38989816225E+02  0.17091001308E+03 -0.43568584321E+03  0.46963027193E+03  0.00000000000E+00 0. -1.
         -2    1    5    5    0  503 -0.17677745721E+02  0.26858229357E+03 -0.48013995678E+03  0.55043921481E+03  0.00000000000E+00 0.  1.
<mgrwt>
<rscale>  0 0.33963891E+04</rscale>
<asrwt>0</asrwt>
<pdfrwt beam="1">  1        2 0.39258796E+00 0.33963891E+04</pdfrwt>
<pdfrwt beam="2">  1       -1 0.17386461E+00 0.33963891E+04</pdfrwt>
<totfact> 0.70487082E-01</totfact>
</mgrwt>
</event>
<event>
11    6  0.1663299E-008  0.1504887E+04  0.7818608E-02  0.8881210E-01
          2   -1    0    0  501    0  0.00000000000E+00  0.00000000000E+00  0.17134828002E+04  0.17134828002E+04  0.00000000000E+00 0. -1.
         -1   -1    0    0    0  501 -0.00000000000E+00 -0.00000000000E+00 -0.33042111035E+03  0.33042111035E+03  0.00000000000E+00 0.  1.
         24    2    1    2    0    0  0.31598469809E+02  0.42831295777E+03  0.22284648871E+03  0.49039287579E+03  0.79838349236E+02 0.  0.
        254    2    1    2    0    0 -0.31598469809E+02 -0.42831295777E+03  0.11602152011E+04  0.15535110347E+04  0.93959925980E+03 0.  0.
         23    2    4    4    0    0 -0.46392188632E+03 -0.14278081966E+03  0.59026540910E+03  0.76968252032E+03  0.91586297236E+02 0.  0.
          4    1    3    3  502    0  0.19672473279E+02  0.24026340995E+03  0.16905795331E+03  0.29443862509E+03  0.00000000000E+00 0. -1.
         -3    1    3    3    0  502  0.11925996530E+02  0.18804954782E+03  0.53788535398E+02  0.19595425070E+03  0.00000000000E+00 0.  1.
         11    1    4    4    0    0  0.31978931889E+03 -0.17818511138E+03  0.30446753422E+03  0.47614663896E+03  0.00000000000E+00 0. -1.
        -11    1    4    4    0    0  0.11253409762E+03 -0.10734702673E+03  0.26548225777E+03  0.30768187542E+03  0.00000000000E+00 0.  1.
          4    1    5    5  503    0 -0.42729526887E+02 -0.39345447194E+02  0.95087854755E+02  0.11142520722E+03  0.00000000000E+00 0. -1.
         -4    1    5    5    0  503 -0.42119235943E+03 -0.10343537246E+03  0.49517755435E+03  0.65825731310E+03  0.00000000000E+00 0.  1.
<mgrwt>
<rscale>  0 0.15048866E+04</rscale>
<asrwt>0</asrwt>
<pdfrwt beam="1">  1        2 0.26361273E+00 0.15048866E+04</pdfrwt>
<pdfrwt beam="2">  1       -1 0.50834018E-01 0.15048866E+04</pdfrwt>
<totfact> 0.41245133E+01</totfact>
</mgrwt>
</event>
<event>
12    6  0.1663299E-008  0.2003325E+04  0.7818608E-02  0.8605068E-01
          2   -1    0    0  501    0  0.00000000000E+00  0.00000000000E+00  0.22508616713E+04  0.22508616713E+04  0.00000000000E+00 0. -1.
         -1   -1    0    0    0  501 -0.00000000000E+00 -0.00000000000E+00 -0.44575270099E+03  0.44575270099E+03  0.00000000000E+00 0.  1.
         24    2    1    2    0    0  0.43008054555E+03  0.24114194962E+02  0.16048898035E+04  0.16636389862E+04  0.80452624451E+02 0.  0.
        254    2    1    2    0    0 -0.43008054555E+03 -0.24114194962E+02  0.20021916679E+03  0.10329753861E+04  0.91727840024E+03 0.  0.
         23    2    4    4    0    0 -0.46442700832E+03  0.35243762726E+03  0.23843677919E+03  0.64283713460E+03  0.12838518909E+03 0.  0.
         23    2    4    4    0    0  0.34346462771E+02 -0.37655182222E+03 -0.38217612400E+02  0.39013825153E+03  0.88183417302E+02 0.  0.
          4    1    3    3  502    0  0.36379162474E+03  0.31608134540E+02  0.14442363774E+04  0.14896852467E+04  0.00000000000E+00 0. -1.
         -3    1    3    3    0  502  0.66288920808E+02 -0.74939395774E+01  0.16065342611E+03  0.17395373946E+03  0.00000000000E+00 0.  1.
         11    1    5    5    0    0 -0.38512546447E+03  0.22438134134E+03  0.16518494179E+03  0.47534689934E+03  0.00000000000E+00 0.  1.
        -11    1    5    5    0    0 -0.79301543853E+02  0.12805628593E+03  0.73251837404E+02  0.16749023525E+03  0.00000000000E+00 0. -1.
          2    1    6    6  503    0  0.23860503036E+02 -0.33365415868E+03 -0.61659148326E+02  0.34014154669E+03  0.00000000000E+00 0. -1.
         -2    1    6    6    0  503  0.10485959735E+02 -0.42897663544E+02  0.23441535925E+02  0.49996704848E+02  0.00000000000E+00 0.  1.
<mgrwt>
<rscale>  0 0.20033249E+04</rscale>
<asrwt>0</asrwt>
<pdfrwt beam="1">  1        2 0.34628640E+00 0.20033249E+04</pdfrwt>
<pdfrwt beam="2">  1       -1 0.68577340E-01 0.20033249E+04</pdfrwt>
<totfact> 0.11000074E+01</totfact>
</mgrwt>
</event>
<event>
11    6  0.1663299E-008  0.1076916E+04  0.7818608E-02  0.9227987E-01
          2   -1    0    0  501    0  0.00000000000E+00  0.00000000000E+00  0.34967300393E+03  0.34967300393E+03  0.00000000000E+00 0. -1.
         -1   -1    0    0    0  501 -0.00000000000E+00 -0.00000000000E+00 -0.82916670781E+03  0.82916670781E+03  0.00000000000E+00 0.  1.
         24    2    1    2    0    0 -0.71771218756E+02 -0.32105345880E+02 -0.19810851650E+03  0.22775741020E+03  0.80278219446E+02 0.  0.
        254    2    1    2    0    0  0.71771218756E+02  0.32105345880E+02 -0.28138518738E+03  0.95108230154E+03  0.90509560796E+03 0.  0.
         23    2    4    4    0    0  0.22107918135E+03 -0.31382755797E+03  0.55519988511E+02  0.39832992019E+03  0.90667059188E+02 0.  0.
          4    1    3    3  502    0 -0.12392370043E+02  0.13642980424E+02 -0.29075473259E+01  0.18658927665E+02  0.00000000000E+00 0. -1.
         -3    1    3    3    0  502 -0.59378848712E+02 -0.45748326304E+02 -0.19520096917E+03  0.20909848254E+03  0.00000000000E+00 0.  1.
         11    1    4    4    0    0 -0.15210868696E+03  0.11051042494E+03 -0.80131937091E+02  0.20437889816E+03  0.00000000000E+00 0. -1.
        -11    1    4    4    0    0  0.28007243616E+01  0.23542247891E+03 -0.25677323880E+03  0.34837348320E+03  0.00000000000E+00 0.  1.
          4    1    5    5  503    0  0.22009763030E+03 -0.26858334714E+03  0.36215610445E+02  0.34912970608E+03  0.00000000000E+00 0. -1.
         -4    1    5    5    0  503  0.98155105524E+00 -0.45244210830E+02  0.19304378066E+02  0.49200214111E+02  0.00000000000E+00 0.  1.
<mgrwt>
<rscale>  0 0.10769164E+04</rscale>
<asrwt>0</asrwt>
<pdfrwt beam="1">  1        2 0.53795847E-01 0.10769164E+04</pdfrwt>
<pdfrwt beam="2">  1       -1 0.12756411E+00 0.10769164E+04</pdfrwt>
<totfact> 0.56043754E+01</totfact>
</mgrwt>
</event>
<event>
12    6  0.1663299E-008  0.1390008E+04  0.7818608E-02  0.8961084E-01
         -1   -1    0    0    0  501 -0.00000000000E+00  0.00000000000E+00  0.68137106749E+03  0.68137106749E+03  0.00000000000E+00 0.  1.
          2   -1    0    0  501    0  0.00000000000E+00 -0.00000000000E+00 -0.70890923519E+03  0.70890923519E+03  0.00000000000E+00 0. -1.
         24    2    1    2    0    0 -0.85113518964E+02 -0.21694799361E+03  0.32834472349E+03  0.41026012033E+03  0.78691586892E+02 0.  0.
        254    2    1    2    0    0  0.85113518964E+02  0.21694799361E+03 -0.35588289120E+03  0.98002018234E+03  0.88287948357E+03 0.  0.
         23    2    4    4    0    0 -0.26081228713E+03  0.37673669219E+02 -0.48002000493E+03  0.56094158746E+03  0.12163019748E+03 0.  0.
         23    2    4    4    0    0  0.34592580609E+03  0.17927432439E+03  0.12413711374E+03  0.41907859488E+03  0.91721856562E+02 0.  0.
          4    1    3    3  502    0 -0.82412693279E+02 -0.10595960585E+03  0.16404474587E+03  0.21196690481E+03  0.00000000000E+00 0. -1.
         -3    1    3    3    0  502 -0.27008256851E+01 -0.11098838776E+03  0.16429997762E+03  0.19829321553E+03  0.00000000000E+00 0.  1.
         11    1    5    5    0    0 -0.63543354276E+02 -0.24659538745E+02 -0.52638192564E+02  0.86119858570E+02  0.00000000000E+00 0.  1.
        -11    1    5    5    0    0 -0.19726893285E+03  0.62333207964E+02 -0.42738181237E+03  0.47482172889E+03  0.00000000000E+00 0. -1.
          1    1    6    6  503    0  0.18944487351E+03  0.11954139834E+03  0.27456910491E+02  0.22568426607E+03  0.00000000000E+00 0. -1.
         -1    1    6    6    0  503  0.15648093259E+03  0.59732926048E+02  0.96680203245E+02  0.19339432881E+03  0.00000000000E+00 0.  1.
<mgrwt>
<rscale>  0 0.13900075E+04</rscale>
<asrwt>0</asrwt>
<pdfrwt beam="1">  1        2 0.10906296E+00 0.13900075E+04</pdfrwt>
<pdfrwt beam="2">  1       -1 0.10482632E+00 0.13900075E+04</pdfrwt>
<totfact> 0.38352060E+01</totfact>
</mgrwt>
</event>
<event>
11    6  0.1663299E-008  0.1540078E+04  0.7818608E-02  0.8858230E-01
          2   -1    0    0  501    0  0.00000000000E+00  0.00000000000E+00  0.87118247168E+03  0.87118247168E+03  0.00000000000E+00 0. -1.
         -1   -1    0    0    0  501 -0.00000000000E+00 -0.00000000000E+00 -0.68063818960E+03  0.68063818960E+03  0.00000000000E+00 0.  1.
         24    2    1    2    0    0  0.11742577741E+03 -0.34936896137E+03  0.39967358373E+03  0.54955967442E+03  0.80183401332E+02 0.  0.
        254    2    1    2    0    0 -0.11742577741E+03  0.34936896137E+03 -0.20912930165E+03  0.10022609869E+04  0.90826457412E+03 0.  0.
         23    2    4    4    0    0 -0.14357727607E+03 -0.45380042077E+02  0.28397188170E+03  0.33323912514E+03  0.87946020404E+02 0.  0.
          4    1    3    3  502    0  0.67665094443E+02 -0.14048701997E+03  0.21953467018E+03  0.26927799613E+03  0.00000000000E+00 0. -1.
         -3    1    3    3    0  502  0.49760682962E+02 -0.20888194141E+03  0.18013891355E+03  0.28028167830E+03  0.00000000000E+00 0.  1.
         11    1    4    4    0    0  0.11538936571E+03  0.13706522529E+03 -0.18397135432E+03  0.25680155941E+03  0.00000000000E+00 0.  1.
        -11    1    4    4    0    0 -0.89237867055E+02  0.25768377817E+03 -0.30912982903E+03  0.41222030232E+03  0.00000000000E+00 0. -1.
          3    1    5    5  503    0 -0.10918174546E+03  0.27818117782E+01  0.22276845746E+03  0.24810114400E+03  0.00000000000E+00 0. -1.
         -3    1    5    5    0  503 -0.34395530609E+02 -0.48161853855E+02  0.61203424242E+02  0.85137981134E+02  0.00000000000E+00 0.  1.
<mgrwt>
<rscale>  0 0.15400780E+04</rscale>
<asrwt>0</asrwt>
<pdfrwt beam="1">  1        2 0.13402807E+00 0.15400780E+04</pdfrwt>
<pdfrwt beam="2">  1       -1 0.10471357E+00 0.15400780E+04</pdfrwt>
<totfact> 0.28913142E+01</totfact>
</mgrwt>
</event>
<event>
12    6  0.1663299E-008  0.2348324E+04  0.7818608E-02  0.8459108E-01
         -1   -1    0    0    0  501 -0.00000000000E+00  0.00000000000E+00  0.95345494680E+03  0.95345494680E+03  0.00000000000E+00 0.  1.
          2   -1    0    0  501    0  0.00000000000E+00 -0.00000000000E+00 -0.14459582885E+04  0.14459582885E+04  0.00000000000E+00 0. -1.
         24    2    1    2    0    0 -0.85258733280E+03 -0.54421546961E+03 -0.33945724517E+03  0.10710220920E+04  0.93709459911E+02 0.  0.
        254    2    1    2    0    0  0.85258733280E+03  0.54421546961E+03 -0.15304609655E+03  0.13283911433E+04  0.84742214070E+03 0.  0.
         23    2    4    4    0    0  0.61293720376E+03  0.65446498251E+03  0.15044670619E+03  0.91638137146E+03  0.11447347931E+03 0.  0.
         23    2    4    4    0    0  0.23965012903E+03 -0.11024951290E+03 -0.30349280274E+03  0.41200977185E+03  0.89760967809E+02 0.  0.
          4    1    3    3  502    0 -0.65982646434E+03 -0.45081218485E+03 -0.23665458106E+03  0.83343144876E+03  0.00000000000E+00 0. -1.
         -3    1    3    3    0  502 -0.19276086846E+03 -0.93403284760E+02 -0.10280266411E+03  0.23759064325E+03  0.00000000000E+00 0.  1.
         11    1    5    5    0    0  0.36265054818E+03  0.33239315533E+03  0.38666265229E+02  0.49345284462E+03  0.00000000000E+00 0. -1.
        -11    1    5    5    0    0  0.25028665559E+03  0.32207182718E+03  0.11178044096E+03  0.42292852684E+03  0.00000000000E+00 0.  1.
          4    1    6    6  503    0  0.11346289533E+03 -0.34870894464E+02 -0.19883213313E+03  0.23156861847E+03  0.00000000000E+00 0. -1.
         -4    1    6    6    0  503  0.12618723371E+03 -0.75378618439E+02 -0.10466066962E+03  0.18044115338E+03  0.00000000000E+00 0.  1.
<mgrwt>
<rscale>  0 0.23483237E+04</rscale>
<asrwt>0</asrwt>
<pdfrwt beam="1">  1        2 0.22245512E+00 0.23483237E+04</pdfrwt>
<pdfrwt beam="2">  1       -1 0.14668538E+00 0.23483237E+04</pdfrwt>
<totfact> 0.51923138E+00</totfact>
</mgrwt>
</event>
<event>
11    6  0.1663299E-008  0.2132901E+04  0.7818608E-02  0.8546887E-01
          2   -1    0    0  501    0  0.00000000000E+00  0.00000000000E+00  0.19388574265E+04  0.19388574265E+04  0.00000000000E+00 0. -1.
         -1   -1    0    0    0  501 -0.00000000000E+00 -0.00000000000E+00 -0.58659127806E+03  0.58659127806E+03  0.00000000000E+00 0.  1.
         24    2    1    2    0    0  0.76339031785E+03  0.42461297058E+03  0.65600326755E+03  0.10957907740E+04  0.85768182438E+02 0.  0.
        254    2    1    2    0    0 -0.76339031785E+03 -0.42461297058E+03  0.69626288086E+03  0.14296579306E+04  0.89223250726E+03 0.  0.
         23    2    4    4    0    0 -0.90811170871E+03 -0.46377026741E+03  0.50264733744E+03  0.11408624867E+04  0.95724246121E+02 0.  0.
          2    1    3    3  502    0  0.94996413451E+02  0.32430286983E+02  0.10250107928E+03  0.14346607033E+03  0.00000000000E+00 0. -1.
         -1    1    3    3    0  502  0.66839390439E+03  0.39218268360E+03  0.55350218827E+03  0.95232470364E+03  0.00000000000E+00 0.  1.
         11    1    4    4    0    0  0.15651175962E+03  0.34313258030E+02  0.21242217470E+03  0.26607613738E+03  0.00000000000E+00 0. -1.
        -11    1    4    4    0    0 -0.11790368754E+02  0.48440388018E+01 -0.18806631280E+02  0.22719306489E+02  0.00000000000E+00 0.  1.
          1    1    5    5  503    0 -0.27219668896E+03 -0.18690094748E+03  0.14719972557E+03  0.36151177140E+03  0.00000000000E+00 0. -1.
         -1    1    5    5    0  503 -0.63591501975E+03 -0.27686931993E+03  0.35544761187E+03  0.77935071530E+03  0.00000000000E+00 0.  1.
<mgrwt>
<rscale>  0 0.21329012E+04</rscale>
<asrwt>0</asrwt>
<pdfrwt beam="1">  1        2 0.29828575E+00 0.21329012E+04</pdfrwt>
<pdfrwt beam="2">  1       -1 0.90244813E-01 0.21329012E+04</pdfrwt>
<totfact> 0.90766260E+00</totfact>
</mgrwt>
</event>
<event>
12    6  0.1663299E-008  0.1421947E+04  0.7818608E-02  0.8938084E-01
          2   -1    0    0  501    0  0.00000000000E+00  0.00000000000E+00  0.12306268469E+04  0.12306268469E+04  0.00000000000E+00 0. -1.
         -1   -1    0    0    0  501 -0.00000000000E+00 -0.00000000000E+00 -0.41075255246E+03  0.41075255246E+03  0.00000000000E+00 0.  1.
         24    2    1    2    0    0  0.29479999649E+02  0.11993128225E+03 -0.19929870239E+03  0.24851719012E+03  0.82390765058E+02 0.  0.
        254    2    1    2    0    0 -0.29479999649E+02 -0.11993128225E+03  0.10191729969E+04  0.13928622093E+04  0.94132829216E+03 0.  0.
         23    2    4    4    0    0  0.12415463941E+03  0.18265274097E+03  0.10111234171E+04  0.10406096747E+04  0.10826602442E+03 0.  0.
         23    2    4    4    0    0 -0.15363463906E+03 -0.30258402322E+03  0.80495797117E+01  0.35225253459E+03  0.94108230057E+02 0.  0.
          2    1    3    3  502    0 -0.18272650747E+02  0.13341660502E+01 -0.41943867964E+02  0.45770709238E+02  0.00000000000E+00 0. -1.
         -1    1    3    3    0  502  0.47752650396E+02  0.11859711620E+03 -0.15735483443E+03  0.20274648088E+03  0.00000000000E+00 0.  1.
         11    1    5    5    0    0  0.87923099324E+02  0.94291942798E+02  0.77919448431E+03  0.78978825406E+03  0.00000000000E+00 0. -1.
        -11    1    5    5    0    0  0.36231540090E+02  0.88360798168E+02  0.23192893283E+03  0.25082142061E+03  0.00000000000E+00 0.  1.
          1    1    6    6  503    0 -0.92098579233E+02 -0.17740395073E+03 -0.41643798885E+02  0.20417765798E+03  0.00000000000E+00 0. -1.
         -1    1    6    6    0  503 -0.61536059830E+02 -0.12518007248E+03  0.49693378597E+02  0.14807487661E+03  0.00000000000E+00 0.  1.
<mgrwt>
<rscale>  0 0.14219467E+04</rscale>
<asrwt>0</asrwt>
<pdfrwt beam="1">  1        2 0.18932721E+00 0.14219467E+04</pdfrwt>
<pdfrwt beam="2">  1       -1 0.63192701E-01 0.14219467E+04</pdfrwt>
<totfact> 0.51105692E+01</totfact>
</mgrwt>
</event>
<event>
12    6  0.1663299E-008  0.1371137E+04  0.7818608E-02  0.8974980E-01
          2   -1    0    0  501    0  0.00000000000E+00  0.00000000000E+00  0.35905659966E+03  0.35905659966E+03  0.00000000000E+00 0. -1.
         -1   -1    0    0    0  501 -0.00000000000E+00 -0.00000000000E+00 -0.13089967575E+04  0.13089967575E+04  0.00000000000E+00 0.  1.
         24    2    1    2    0    0  0.26704727508E+03 -0.12668364918E+03  0.24256819242E+02  0.30845890845E+03  0.84826356911E+02 0.  0.
        254    2    1    2    0    0 -0.26704727508E+03  0.12668364918E+03 -0.97419697705E+03  0.13595944487E+04  0.90115166352E+03 0.  0.
         23    2    4    4    0    0  0.18425050704E+03 -0.10898927217E+03  0.16100365056E+02  0.24241059645E+03  0.11259113963E+03 0.  0.
         23    2    4    4    0    0 -0.45129778212E+03  0.23567292136E+03 -0.99029734210E+03  0.11171838522E+04  0.90551200286E+02 0.  0.
          2    1    3    3  502    0  0.24250430504E+03 -0.12339206177E+03 -0.23632756834E+01  0.27210204693E+03  0.00000000000E+00 0. -1.
         -1    1    3    3    0  502  0.24542970039E+02 -0.32915874111E+01  0.26620094925E+02  0.36356861524E+02  0.00000000000E+00 0.  1.
         11    1    5    5    0    0  0.49719809005E+02 -0.77639506393E+01 -0.40706468519E+02  0.64725226275E+02  0.00000000000E+00 0.  1.
        -11    1    5    5    0    0  0.13453069804E+03 -0.10122532153E+03  0.56806833575E+02  0.17768537018E+03  0.00000000000E+00 0. -1.
          3    1    6    6  503    0 -0.34130100846E+03  0.20335905002E+03 -0.82912259939E+03  0.91939413008E+03  0.00000000000E+00 0. -1.
         -3    1    6    6    0  503 -0.10999677365E+03  0.32313871339E+02 -0.16117474271E+03  0.19778972214E+03  0.00000000000E+00 0.  1.
<mgrwt>
<rscale>  0 0.13711366E+04</rscale>
<asrwt>0</asrwt>
<pdfrwt beam="1">  1        2 0.55239477E-01 0.13711366E+04</pdfrwt>
<pdfrwt beam="2">  1       -1 0.20138412E+00 0.13711366E+04</pdfrwt>
<totfact> 0.14760634E+01</totfact>
</mgrwt>
</event>
<event>
12    6  0.1663299E-008  0.1234229E+04  0.7818608E-02  0.9083413E-01
         -1   -1    0    0    0  501 -0.00000000000E+00  0.00000000000E+00  0.36307979382E+03  0.36307979382E+03  0.00000000000E+00 0.  1.
          2   -1    0    0  501    0  0.00000000000E+00 -0.00000000000E+00 -0.10488886096E+04  0.10488886096E+04  0.00000000000E+00 0. -1.
         24    2    1    2    0    0 -0.16047797866E+03  0.21323160833E+03 -0.85100323661E+02  0.29118395819E+03  0.79530698449E+02 0.  0.
        254    2    1    2    0    0  0.16047797866E+03 -0.21323160833E+03 -0.60070849209E+03  0.11207844452E+04  0.90779192535E+03 0.  0.
         23    2    4    4    0    0 -0.96533249304E+02  0.11024200822E+03 -0.66706021967E+03  0.69135412232E+03  0.10737419238E+03 0.  0.
         23    2    4    4    0    0  0.25701122796E+03 -0.32347361655E+03  0.66351727575E+02  0.42943032289E+03  0.96529262718E+02 0.  0.
          4    1    3    3  502    0 -0.42632109638E+02  0.24027799577E+02 -0.41262525372E+02  0.64011154691E+02  0.00000000000E+00 0. -1.
         -3    1    3    3    0  502 -0.11784586902E+03  0.18920380875E+03 -0.43837798288E+02  0.22717280350E+03  0.00000000000E+00 0.  1.
         11    1    5    5    0    0 -0.88110020897E+02  0.97288583701E+02 -0.34816961075E+03  0.37208940075E+03  0.00000000000E+00 0.  1.
        -11    1    5    5    0    0 -0.84232284069E+01  0.12953424523E+02 -0.31889060892E+03  0.31926472157E+03  0.00000000000E+00 0. -1.
          1    1    6    6  503    0  0.17511991081E+03 -0.24837717048E+03  0.87659168871E+02  0.31629469149E+03  0.00000000000E+00 0. -1.
         -1    1    6    6    0  503  0.81891317150E+02 -0.75096446072E+02 -0.21307441296E+02  0.11313563140E+03  0.00000000000E+00 0.  1.
<mgrwt>
<rscale>  0 0.12342289E+04</rscale>
<asrwt>0</asrwt>
<pdfrwt beam="1">  1        2 0.16136747E+00 0.12342289E+04</pdfrwt>
<pdfrwt beam="2">  1       -1 0.55858431E-01 0.12342289E+04</pdfrwt>
<totfact> 0.85341832E+01</totfact>
</mgrwt>
</event>
<event>
12    6  0.1663299E-008  0.1869446E+04  0.7818608E-02  0.8670216E-01
          2   -1    0    0  501    0  0.00000000000E+00  0.00000000000E+00  0.97290448072E+03  0.97290448072E+03  0.00000000000E+00 0. -1.
         -1   -1    0    0    0  501 -0.00000000000E+00 -0.00000000000E+00 -0.89803983836E+03  0.89803983836E+03  0.00000000000E+00 0.  1.
         24    2    1    2    0    0 -0.11294620912E+03  0.17943731158E+03  0.70704921189E+03  0.74302459959E+03  0.84925688772E+02 0.  0.
        254    2    1    2    0    0  0.11294620912E+03 -0.17943731158E+03 -0.63218456954E+03  0.11279197195E+04  0.90972026949E+03 0.  0.
         23    2    4    4    0    0  0.31220784822E+03  0.92066094857E+02 -0.69505913553E+03  0.77147870657E+03  0.78245041312E+02 0.  0.
         23    2    4    4    0    0 -0.19926163910E+03 -0.27150340644E+03  0.62874565996E+02  0.35644101293E+03  0.98375221077E+02 0.  0.
          2    1    3    3  502    0 -0.10385944400E+03  0.12359952520E+03  0.41007102175E+03  0.44070610345E+03  0.00000000000E+00 0. -1.
         -1    1    3    3    0  502 -0.90867651242E+01  0.55837786379E+02  0.29697819014E+03  0.30231849614E+03  0.00000000000E+00 0.  1.
         11    1    5    5    0    0  0.43194778918E+02 -0.11638144932E+02 -0.69133977080E+02  0.82345261735E+02  0.00000000000E+00 0. -1.
        -11    1    5    5    0    0  0.26901306930E+03  0.10370423979E+03 -0.62592515845E+03  0.68913344483E+03  0.00000000000E+00 0.  1.
          1    1    6    6  503    0 -0.19051468141E+02 -0.93439838401E+02 -0.20991160414E+00  0.95362497354E+02  0.00000000000E+00 0. -1.
         -1    1    6    6    0  503 -0.18021017096E+03 -0.17806356804E+03  0.63084477600E+02  0.26107851557E+03  0.00000000000E+00 0.  1.
<mgrwt>
<rscale>  0 0.18694459E+04</rscale>
<asrwt>0</asrwt>
<pdfrwt beam="1">  1        2 0.14967761E+00 0.18694459E+04</pdfrwt>
<pdfrwt beam="2">  1       -1 0.13815997E+00 0.18694459E+04</pdfrwt>
<totfact> 0.12190475E+01</totfact>
</mgrwt>
</event>
<event>
11    6  0.1663299E-008  0.1788398E+04  0.7818608E-02  0.8712494E-01
          2   -1    0    0  501    0  0.00000000000E+00  0.00000000000E+00  0.98805404753E+03  0.98805404753E+03  0.00000000000E+00 0. -1.
         -1   -1    0    0    0  501 -0.00000000000E+00 -0.00000000000E+00 -0.80925914864E+03  0.80925914864E+03  0.00000000000E+00 0.  1.
         24    2    1    2    0    0 -0.42406974658E+02  0.65450621865E+03  0.13581102675E+02  0.66085602187E+03  0.79809106879E+02 0.  0.
        254    2    1    2    0    0  0.42406974658E+02 -0.65450621865E+03  0.16521379621E+03  0.11364571743E+04  0.91327026055E+03 0.  0.
         23    2    4    4    0    0 -0.30529697168E+03  0.47198853283E+02  0.82928095030E+02  0.33252946525E+03  0.90910965472E+02 0.  0.
          2    1    3    3  502    0 -0.45326994947E+02  0.25189192504E+03 -0.20705922479E+02  0.25677385692E+03  0.00000000000E+00 0. -1.
         -1    1    3    3    0  502  0.29200202898E+01  0.40261429361E+03  0.34287025154E+02  0.40408216495E+03  0.00000000000E+00 0.  1.
         11    1    4    4    0    0  0.23816677010E+03 -0.35246748122E+03  0.10177827858E+03  0.43739633479E+03  0.00000000000E+00 0. -1.
        -11    1    4    4    0    0  0.10953717624E+03 -0.34923759071E+03 -0.19492577394E+02  0.36653137426E+03  0.00000000000E+00 0.  1.
          3    1    5    5  503    0 -0.26291568142E+03  0.45383401920E+02  0.10249526279E+03  0.28581390379E+03  0.00000000000E+00 0. -1.
         -3    1    5    5    0  503 -0.42381290261E+02  0.18154513634E+01 -0.19567167760E+02  0.46715561454E+02  0.00000000000E+00 0.  1.
<mgrwt>
<rscale>  0 0.17883979E+04</rscale>
<asrwt>0</asrwt>
<pdfrwt beam="1">  1        2 0.15200832E+00 0.17883979E+04</pdfrwt>
<pdfrwt beam="2">  1       -1 0.12450141E+00 0.17883979E+04</pdfrwt>
<totfact> 0.15625994E+01</totfact>
</mgrwt>
</event>
<event>
12    6  0.1663299E-008  0.2238968E+04  0.7818608E-02  0.8502382E-01
         -1   -1    0    0    0  501 -0.00000000000E+00  0.00000000000E+00  0.88309722798E+03  0.88309722798E+03  0.00000000000E+00 0.  1.
          2   -1    0    0  501    0  0.00000000000E+00 -0.00000000000E+00 -0.14191469152E+04  0.14191469152E+04  0.00000000000E+00 0. -1.
         24    2    1    2    0    0  0.59753834582E+03 -0.55845717329E+03 -0.68635344056E+03  0.10706624576E+04  0.79439056029E+02 0.  0.
        254    2    1    2    0    0 -0.59753834582E+03  0.55845717329E+03  0.15030375337E+03  0.12315816856E+04  0.90844688386E+03 0.  0.
         23    2    4    4    0    0 -0.54249759904E+03 -0.17701576613E+02 -0.14972863147E+03  0.57276794258E+03  0.10501172403E+03 0.  0.
         23    2    4    4    0    0 -0.55040746777E+02  0.57615874990E+03  0.30003238484E+03  0.65881374297E+03  0.95014351986E+02 0.  0.
          2    1    3    3  502    0  0.26288559995E+03 -0.26994882282E+03 -0.26998079092E+03  0.46354161956E+03  0.00000000000E+00 0. -1.
         -1    1    3    3    0  502  0.33465274587E+03 -0.28850835047E+03 -0.41637264964E+03  0.60712083804E+03  0.00000000000E+00 0.  1.
         11    1    5    5    0    0 -0.63074174391E+02  0.21356233503E+02  0.67771531223E+01  0.66935565950E+02  0.00000000000E+00 0. -1.
        -11    1    5    5    0    0 -0.47942342465E+03 -0.39057810116E+02 -0.15650578459E+03  0.50583237663E+03  0.00000000000E+00 0.  1.
          1    1    6    6  503    0  0.53708975610E+01  0.55801536836E+02  0.61483486937E+02  0.83203829358E+02  0.00000000000E+00 0. -1.
         -1    1    6    6    0  503 -0.60411644338E+02  0.52035721307E+03  0.23854889790E+03  0.57560991362E+03  0.00000000000E+00 0.  1.
<mgrwt>
<rscale>  0 0.22389683E+04</rscale>
<asrwt>0</asrwt>
<pdfrwt beam="1">  1        2 0.21833030E+00 0.22389683E+04</pdfrwt>
<pdfrwt beam="2">  1       -1 0.13586111E+00 0.22389683E+04</pdfrwt>
<totfact> 0.66385538E+00</totfact>
</mgrwt>
</event>
<event>
12    6  0.1663299E-008  0.1944226E+04  0.7818608E-02  0.8633150E-01
          2   -1    0    0  501    0  0.00000000000E+00  0.00000000000E+00  0.22035412293E+04  0.22035412293E+04  0.00000000000E+00 0. -1.
         -1   -1    0    0    0  501 -0.00000000000E+00 -0.00000000000E+00 -0.42885669348E+03  0.42885669348E+03  0.00000000000E+00 0.  1.
         24    2    1    2    0    0 -0.56062910673E+03  0.29411341655E+03  0.13129805082E+03  0.65147773100E+03  0.79852105364E+02 0.  0.
        254    2    1    2    0    0  0.56062910673E+03 -0.29411341655E+03  0.16433864850E+04  0.19809201917E+04  0.90692776447E+03 0.  0.
         23    2    4    4    0    0  0.17736861887E+03  0.31475995067E+03  0.48455837873E+03  0.61382562047E+03  0.10701222568E+03 0.  0.
         23    2    4    4    0    0  0.38326048786E+03 -0.60887336723E+03  0.11588281062E+04  0.13670945713E+04  0.91921749922E+02 0.  0.
          4    1    3    3  502    0 -0.43301251705E+03  0.24818490877E+03  0.75302570657E+02  0.50474356460E+03  0.00000000000E+00 0. -1.
         -3    1    3    3    0  502 -0.12761658968E+03  0.45928507782E+02  0.55995480166E+02  0.14673416640E+03  0.00000000000E+00 0.  1.
         11    1    5    5    0    0  0.13241096011E+03  0.13190486078E+03  0.26970968876E+03  0.32813849342E+03  0.00000000000E+00 0. -1.
        -11    1    5    5    0    0  0.44957658764E+02  0.18285508990E+03  0.21484868997E+03  0.28568712705E+03  0.00000000000E+00 0.  1.
          2    1    6    6  503    0  0.32013726669E+01 -0.11916218378E+02  0.45480988444E+01  0.13150294692E+02  0.00000000000E+00 0. -1.
         -2    1    6    6    0  503  0.38005911519E+03 -0.59695714885E+03  0.11542800074E+04  0.13539442766E+04  0.00000000000E+00 0.  1.
<mgrwt>
<rscale>  0 0.19442257E+04</rscale>
<asrwt>0</asrwt>
<pdfrwt beam="1">  1        2 0.33900634E+00 0.19442257E+04</pdfrwt>
<pdfrwt beam="2">  1       -1 0.65977954E-01 0.19442257E+04</pdfrwt>
<totfact> 0.12717218E+01</totfact>
</mgrwt>
</event>
<event>
11    6  0.1663299E-008  0.1375211E+04  0.7818608E-02  0.8971960E-01
         -3   -1    0    0    0  501 -0.00000000000E+00  0.00000000000E+00  0.74273276848E+03  0.74273276848E+03  0.00000000000E+00 0.  1.
          4   -1    0    0  501    0  0.00000000000E+00 -0.00000000000E+00 -0.63657006580E+03  0.63657006580E+03  0.00000000000E+00 0. -1.
         24    2    1    2    0    0 -0.29864038539E+03 -0.15148268952E+03 -0.17806924458E+03  0.38760458719E+03  0.79972339832E+02 0.  0.
        254    2    1    2    0    0  0.29864038539E+03  0.15148268952E+03  0.28423194725E+03  0.99169824709E+03  0.88912571014E+03 0.  0.
         23    2    4    4    0    0  0.38715243921E+03 -0.21098462899E+03  0.28635662303E+03  0.53367843035E+03  0.91711649275E+02 0.  0.
          4    1    3    3  502    0 -0.27377189662E+03 -0.10925937072E+03 -0.14512474426E+03  0.32855722921E+03  0.00000000000E+00 0. -1.
         -3    1    3    3    0  502 -0.24868488777E+02 -0.42223318794E+02 -0.32944500319E+02  0.59047357988E+02  0.00000000000E+00 0.  1.
         11    1    4    4    0    0  0.79373474124E+02  0.42710330011E+02  0.31086084379E+02  0.95344980603E+02  0.00000000000E+00 0.  1.
        -11    1    4    4    0    0 -0.16788552794E+03  0.31975698849E+03 -0.33210760155E+02  0.36267483614E+03  0.00000000000E+00 0. -1.
          1    1    5    5  503    0  0.11649087135E+03 -0.11179446005E+03  0.11641897839E+03  0.19905150825E+03  0.00000000000E+00 0.  1.
         -1    1    5    5    0  503  0.27066156786E+03 -0.99190168931E+02  0.16993764464E+03  0.33462692210E+03  0.00000000000E+00 0. -1.
<mgrwt>
<rscale>  0 0.13752112E+04</rscale>
<asrwt>0</asrwt>
<pdfrwt beam="1">  1        4 0.97933856E-01 0.13752112E+04</pdfrwt>
<pdfrwt beam="2">  1       -3 0.11426658E+00 0.13752112E+04</pdfrwt>
<totfact> 0.12318624E+00</totfact>
</mgrwt>
</event>
<event>
12    6  0.1663299E-008  0.2487152E+04  0.7818608E-02  0.8407577E-01
          2   -1    0    0  501    0  0.00000000000E+00  0.00000000000E+00  0.26032149841E+04  0.26032149841E+04  0.00000000000E+00 0. -1.
         -3   -1    0    0    0  501 -0.00000000000E+00 -0.00000000000E+00 -0.59406598727E+03  0.59406598727E+03  0.00000000000E+00 0.  1.
         24    2    1    2    0    0 -0.29839769218E+03 -0.24632049419E+03 -0.42021457913E+03  0.57693833031E+03  0.81009727214E+02 0.  0.
        254    2    1    2    0    0  0.29839769218E+03  0.24632049419E+03  0.24293635759E+04  0.26203426410E+04  0.90259249046E+03 0.  0.
         23    2    4    4    0    0  0.14091138610E+03  0.10520488108E+03  0.12106016865E+02  0.19226905900E+03  0.76790296699E+02 0.  0.
         23    2    4    4    0    0  0.15748630608E+03  0.14111561311E+03  0.24172575591E+04  0.24280735820E+04  0.87702109944E+02 0.  0.
          4    1    3    3  502    0 -0.32994249370E+02 -0.25658764044E+02 -0.90150638240E+02  0.99368658231E+02  0.00000000000E+00 0. -1.
         -3    1    3    3    0  502 -0.26540344281E+03 -0.22066173015E+03 -0.33006394089E+03  0.47756967207E+03  0.00000000000E+00 0.  1.
         11    1    5    5    0    0 -0.70840550201E+00  0.92781435128E+01  0.18918911104E+02  0.21083429103E+02  0.00000000000E+00 0. -1.
        -11    1    5    5    0    0  0.14161979160E+03  0.95926737570E+02 -0.68128942388E+01  0.17118562989E+03  0.00000000000E+00 0.  1.
          1    1    6    6  503    0  0.33683975861E+02  0.45508295701E+01  0.17621708192E+03  0.17946526193E+03  0.00000000000E+00 0. -1.
         -1    1    6    6    0  503  0.12380233022E+03  0.13656478354E+03  0.22410404771E+04  0.22486083201E+04  0.00000000000E+00 0.  1.
<mgrwt>
<rscale>  0 0.24871522E+04</rscale>
<asrwt>0</asrwt>
<pdfrwt beam="1">  1        2 0.40049461E+00 0.24871522E+04</pdfrwt>
<pdfrwt beam="2">  1       -3 0.91394769E-01 0.24871522E+04</pdfrwt>
<totfact> 0.18629414E+00</totfact>
</mgrwt>
</event>
<event>
11    6  0.1663299E-008  0.1836939E+04  0.7818608E-02  0.8686898E-01
         -1   -1    0    0    0  501 -0.00000000000E+00  0.00000000000E+00  0.69322767182E+03  0.69322767182E+03  0.00000000000E+00 0.  1.
          2   -1    0    0  501    0  0.00000000000E+00 -0.00000000000E+00 -0.12168969807E+04  0.12168969807E+04  0.00000000000E+00 0. -1.
         24    2    1    2    0    0  0.49589145326E+03  0.28838526407E+02  0.30073255882E+03  0.58599641179E+03  0.78814520719E+02 0.  0.
        254    2    1    2    0    0 -0.49589145326E+03 -0.28838526407E+02 -0.82440186774E+03  0.13241282408E+04  0.90936085492E+03 0.  0.
         23    2    4    4    0    0 -0.45724732425E+03 -0.10647688759E+03 -0.95906731483E+03  0.10716927173E+04  0.91119277911E+02 0.  0.
          2    1    3    3  502    0  0.17554794698E+03  0.45866751163E+02  0.93846879798E+02  0.20427451480E+03  0.00000000000E+00 0. -1.
         -1    1    3    3    0  502  0.32034350628E+03 -0.17028224756E+02  0.20688567902E+03  0.38172189698E+03  0.00000000000E+00 0.  1.
         11    1    4    4    0    0 -0.43339738441E+02  0.13026692591E+03  0.14380228069E+03  0.19881373405E+03  0.00000000000E+00 0. -1.
        -11    1    4    4    0    0  0.46956094372E+01 -0.52628564724E+02 -0.91368335975E+01  0.53621789424E+02  0.00000000000E+00 0.  1.
          1    1    5    5  503    0 -0.33055854340E+03 -0.11607997618E+03 -0.73114125766E+03  0.81074721717E+03  0.00000000000E+00 0. -1.
         -1    1    5    5    0  503 -0.12668878085E+03  0.96030885834E+01 -0.22792605717E+03  0.26094550013E+03  0.00000000000E+00 0.  1.
<mgrwt>
<rscale>  0 0.18369395E+04</rscale>
<asrwt>0</asrwt>
<pdfrwt beam="1">  1        2 0.18721492E+00 0.18369395E+04</pdfrwt>
<pdfrwt beam="2">  1       -1 0.10665041E+00 0.18369395E+04</pdfrwt>
<totfact> 0.16305128E+01</totfact>
</mgrwt>
</event>
<event>
12    6  0.1663299E-008  0.3007621E+04  0.7818608E-02  0.8241558E-01
         -1   -1    0    0    0  501 -0.00000000000E+00  0.00000000000E+00  0.91350241707E+03  0.91350241707E+03  0.00000000000E+00 0.  1.
          2   -1    0    0  501    0  0.00000000000E+00 -0.00000000000E+00 -0.24755768138E+04  0.24755768138E+04  0.00000000000E+00 0. -1.
         24    2    1    2    0    0  0.41762505543E+03  0.25891114030E+03 -0.21514959960E+04  0.22084345311E+04  0.82476613823E+02 0.  0.
        254    2    1    2    0    0 -0.41762505543E+03 -0.25891114030E+03  0.58942159928E+03  0.11806446998E+04  0.89725047778E+03 0.  0.
         23    2    4    4    0    0 -0.42616311316E+03  0.13356624296E+02  0.73684092042E+03  0.85792948513E+03  0.10637227564E+03 0.  0.
         23    2    4    4    0    0  0.85380577234E+01 -0.27226776460E+03 -0.14741932114E+03  0.32271521463E+03  0.90609157605E+02 0.  0.
          2    1    3    3  502    0  0.37186706515E+03  0.22654577689E+03 -0.20012600847E+04  0.20480844782E+04  0.00000000000E+00 0. -1.
         -1    1    3    3    0  502  0.45757990281E+02  0.32365363406E+02 -0.15023591126E+03  0.16035005287E+03  0.00000000000E+00 0.  1.
         11    1    5    5    0    0 -0.21332521840E+03  0.38980425516E+02  0.45298773770E+03  0.50222008411E+03  0.00000000000E+00 0.  1.
        -11    1    5    5    0    0 -0.21283789476E+03 -0.25623801220E+02  0.28385318272E+03  0.35570940103E+03  0.00000000000E+00 0. -1.
          1    1    6    6  503    0 -0.36026862251E+02 -0.11555504099E+03 -0.86501449398E+02  0.14877299167E+03  0.00000000000E+00 0.  1.
         -1    1    6    6    0  503  0.44564919974E+02 -0.15671272360E+03 -0.60917871740E+02  0.17394222296E+03  0.00000000000E+00 0. -1.
<mgrwt>
<rscale>  0 0.30076206E+04</rscale>
<asrwt>0</asrwt>
<pdfrwt beam="1">  1        2 0.38085797E+00 0.30076206E+04</pdfrwt>
<pdfrwt beam="2">  1       -1 0.14053883E+00 0.30076206E+04</pdfrwt>
<totfact> 0.14508358E+00</totfact>
</mgrwt>
</event>
<event>
11    6  0.1663299E-008  0.1519124E+04  0.7818608E-02  0.8871834E-01
          2   -1    0    0  501    0  0.00000000000E+00  0.00000000000E+00  0.27934446553E+03  0.27934446553E+03  0.00000000000E+00 0. -1.
         -1   -1    0    0    0  501 -0.00000000000E+00 -0.00000000000E+00 -0.20653159899E+04  0.20653159899E+04  0.00000000000E+00 0.  1.
         24    2    1    2    0    0 -0.28358657788E+03 -0.35132696627E+03 -0.29803912842E+03  0.54691222993E+03  0.80210228694E+02 0.  0.
        254    2    1    2    0    0  0.28358657788E+03  0.35132696627E+03 -0.14879323959E+04  0.17977482255E+04  0.90227705446E+03 0.  0.
         23    2    4    4    0    0  0.21396547880E+03  0.52777689673E+03 -0.14951010054E+04  0.16026388064E+04  0.93778721349E+02 0.  0.
          2    1    3    3  502    0 -0.97435219076E+02 -0.95119729318E+02 -0.51541776661E+02  0.14559512204E+03  0.00000000000E+00 0. -1.
         -3    1    3    3    0  502 -0.18615135881E+03 -0.25620723696E+03 -0.24649735176E+03  0.40131710788E+03  0.00000000000E+00 0.  1.
         11    1    4    4    0    0  0.45462313249E+02 -0.57685621022E+02 -0.28272825817E+01  0.73501335535E+02  0.00000000000E+00 0.  1.
        -11    1    4    4    0    0  0.24158785834E+02 -0.11876430943E+03  0.99958920553E+01  0.12160808356E+03  0.00000000000E+00 0. -1.
          3    1    5    5  503    0  0.20570925634E+03  0.43907414136E+03 -0.11959046046E+04  0.12904612443E+04  0.00000000000E+00 0. -1.
         -3    1    5    5    0  503  0.82562224629E+01  0.88702755371E+02 -0.29919640084E+03  0.31217756213E+03  0.00000000000E+00 0.  1.
<mgrwt>
<rscale>  0 0.15191242E+04</rscale>
<asrwt>0</asrwt>
<pdfrwt beam="1">  1        2 0.42976071E-01 0.15191242E+04</pdfrwt>
<pdfrwt beam="2">  1       -1 0.31774092E+00 0.15191242E+04</pdfrwt>
<totfact> 0.33371773E+00</totfact>
</mgrwt>
</event>
<event>
12    6  0.1663299E-008  0.1139378E+04  0.7818608E-02  0.9167639E-01
         -1   -1    0    0    0  501 -0.00000000000E+00  0.00000000000E+00  0.97110221572E+02  0.97110221572E+02  0.00000000000E+00 0.  1.
          2   -1    0    0  501    0  0.00000000000E+00 -0.00000000000E+00 -0.33420308212E+04  0.33420308212E+04  0.00000000000E+00 0. -1.
         24    2    1    2    0    0 -0.81156746390E+02  0.16501200038E+02 -0.64185059286E+02  0.13331257486E+03  0.82424593975E+02 0.  0.
        254    2    1    2    0    0  0.81156746390E+02 -0.16501200038E+02 -0.31807355403E+04  0.33058284679E+04  0.89697523633E+03 0.  0.
         23    2    4    4    0    0 -0.28354422905E+03  0.34200451019E+02 -0.25631334108E+04  0.25801065414E+04  0.75695989123E+02 0.  0.
         23    2    4    4    0    0  0.36470097544E+03 -0.50701651058E+02 -0.61760212952E+03  0.72572192649E+03  0.98297839683E+02 0.  0.
          4    1    3    3  502    0 -0.40512665046E+02 -0.86813108072E+01 -0.73713152826E+02  0.84559269664E+02  0.00000000000E+00 0. -1.
         -3    1    3    3    0  502 -0.40644081343E+02  0.25182510846E+02  0.95280935397E+01  0.48753305193E+02  0.00000000000E+00 0.  1.
         11    1    5    5    0    0 -0.14225355626E+03  0.30437386640E+01 -0.15784676592E+04  0.15848676568E+04  0.00000000000E+00 0.  1.
        -11    1    5    5    0    0 -0.14129067280E+03  0.31156712355E+02 -0.98466575161E+03  0.99523888456E+03  0.00000000000E+00 0. -1.
          2    1    6    6  503    0  0.66984483651E+02 -0.40828195093E+02 -0.18005201414E+03  0.19639905896E+03  0.00000000000E+00 0. -1.
         -2    1    6    6    0  503  0.29771649179E+03 -0.98734559649E+01 -0.43755011539E+03  0.52932286753E+03  0.00000000000E+00 0.  1.
<mgrwt>
<rscale>  0 0.11393776E+04</rscale>
<asrwt>0</asrwt>
<pdfrwt beam="1">  1        2 0.51415850E+00 0.11393776E+04</pdfrwt>
<pdfrwt beam="2">  1       -1 0.14940037E-01 0.11393776E+04</pdfrwt>
<totfact> 0.39991964E+01</totfact>
</mgrwt>
</event>
<event>
11    6  0.1663299E-008  0.1437742E+04  0.7818608E-02  0.8926943E-01
          2   -1    0    0  501    0  0.00000000000E+00  0.00000000000E+00  0.11122562409E+04  0.11122562409E+04  0.00000000000E+00 0. -1.
         -1   -1    0    0    0  501 -0.00000000000E+00 -0.00000000000E+00 -0.46461905189E+03  0.46461905189E+03  0.00000000000E+00 0.  1.
         24    2    1    2    0    0  0.19841757980E+02 -0.15043225259E+03  0.66452595922E+03  0.68628890513E+03  0.79838291809E+02 0.  0.
        254    2    1    2    0    0 -0.19841757980E+02  0.15043225259E+03 -0.16888770230E+02  0.89058638765E+03  0.87740260162E+03 0.  0.
         23    2    4    4    0    0 -0.38820183026E+03 -0.11539779022E+03 -0.59166423984E+01  0.41606210734E+03  0.95159652707E+02 0.  0.
          2    1    3    3  502    0  0.13112367296E+02 -0.14148714364E+03  0.45975505132E+03  0.48121227458E+03  0.00000000000E+00 0. -1.
         -1    1    3    3    0  502  0.67293906839E+01 -0.89451089511E+01  0.20477090790E+03  0.20507663055E+03  0.00000000000E+00 0.  1.
         11    1    4    4    0    0  0.24984658246E+03  0.23510567234E+03 -0.48471840117E+02  0.34647873127E+03  0.00000000000E+00 0. -1.
        -11    1    4    4    0    0  0.11851348981E+03  0.30724370471E+02  0.37499712285E+02  0.12804554905E+03  0.00000000000E+00 0.  1.
          4    1    5    5  503    0 -0.29871022768E+03 -0.12601298702E+03 -0.20142010012E+02  0.32482729809E+03  0.00000000000E+00 0. -1.
         -4    1    5    5    0  503 -0.89491602581E+02  0.10615196796E+02  0.14225367614E+02  0.91234809252E+02  0.00000000000E+00 0.  1.
<mgrwt>
<rscale>  0 0.14377419E+04</rscale>
<asrwt>0</asrwt>
<pdfrwt beam="1">  1        2 0.17111634E+00 0.14377419E+04</pdfrwt>
<pdfrwt beam="2">  1       -1 0.71479854E-01 0.14377419E+04</pdfrwt>
<totfact> 0.46842754E+01</totfact>
</mgrwt>
</event>
<event>
11    6  0.1663299E-008  0.1220268E+04  0.7818608E-02  0.9095299E-01
          2   -1    0    0  501    0  0.00000000000E+00  0.00000000000E+00  0.20972105146E+04  0.20972105146E+04  0.00000000000E+00 0. -1.
         -1   -1    0    0    0  501 -0.00000000000E+00 -0.00000000000E+00 -0.17750399380E+03  0.17750399380E+03  0.00000000000E+00 0.  1.
         24    2    1    2    0    0  0.36294715596E+02  0.60711288525E+02  0.92172468208E+03  0.92809267969E+03  0.82319290617E+02 0.  0.
        254    2    1    2    0    0 -0.36294715596E+02 -0.60711288525E+02  0.99798183870E+03  0.13466218287E+04  0.90134312678E+03 0.  0.
         23    2    4    4    0    0  0.84473007425E+02  0.29894073018E+03  0.73421367290E+03  0.80230666762E+03  0.90138905475E+02 0.  0.
          2    1    3    3  502    0  0.11077261616E+02  0.55545428363E+02  0.85006710518E+03  0.85195192566E+03  0.00000000000E+00 0. -1.
         -1    1    3    3    0  502  0.25217453980E+02  0.51658601619E+01  0.71657576898E+02  0.76140754024E+02  0.00000000000E+00 0.  1.
         11    1    4    4    0    0 -0.14438620308E+03 -0.70900375736E+02  0.13410635383E+02  0.16141277540E+03  0.00000000000E+00 0. -1.
        -11    1    4    4    0    0  0.23618480062E+02 -0.28875164297E+03  0.25035753042E+03  0.38290238567E+03  0.00000000000E+00 0.  1.
          1    1    5    5  503    0 -0.40038128129E+01 -0.51726377786E+01  0.19246397973E+02  0.20327580612E+02  0.00000000000E+00 0. -1.
         -1    1    5    5    0  503  0.88476820238E+02  0.30411336796E+03  0.71496727493E+03  0.78197908701E+03  0.00000000000E+00 0.  1.
<mgrwt>
<rscale>  0 0.12202676E+04</rscale>
<asrwt>0</asrwt>
<pdfrwt beam="1">  1        2 0.32264775E+00 0.12202676E+04</pdfrwt>
<pdfrwt beam="2">  1       -1 0.27308308E-01 0.12202676E+04</pdfrwt>
<totfact> 0.79757163E+01</totfact>
</mgrwt>
</event>
<event>
12    6  0.1663299E-008  0.1575207E+04  0.7818608E-02  0.8835925E-01
          2   -1    0    0  501    0  0.00000000000E+00  0.00000000000E+00  0.25457782302E+04  0.25457782302E+04  0.00000000000E+00 0. -1.
         -1   -1    0    0    0  501 -0.00000000000E+00 -0.00000000000E+00 -0.24366599649E+03  0.24366599649E+03  0.00000000000E+00 0.  1.
         24    2    1    2    0    0 -0.17408270161E+03 -0.17729837693E+03  0.16386748798E+04  0.16594869829E+04  0.83079378004E+02 0.  0.
        254    2    1    2    0    0  0.17408270161E+03  0.17729837693E+03  0.66343735389E+03  0.11299572438E+04  0.88029242237E+03 0.  0.
         23    2    4    4    0    0  0.43968256945E+03  0.35829940092E+03  0.39524822269E+03  0.70156732611E+03  0.11948360955E+03 0.  0.
         23    2    4    4    0    0 -0.26559986784E+03 -0.18100102399E+03  0.26818913120E+03  0.42838991771E+03  0.91037635214E+02 0.  0.
          4    1    3    3  502    0 -0.10549620193E+03 -0.92840419957E+02  0.11667669311E+04  0.11751994996E+04  0.00000000000E+00 0. -1.
         -3    1    3    3    0  502 -0.68586499676E+02 -0.84457956978E+02  0.47190794870E+03  0.48428748330E+03  0.00000000000E+00 0.  1.
         11    1    5    5    0    0  0.34766861819E+03  0.27065404576E+03  0.36193752745E+03  0.57019808342E+03  0.00000000000E+00 0.  1.
        -11    1    5    5    0    0  0.92013951264E+02  0.87645355165E+02  0.33310695240E+02  0.13136924270E+03  0.00000000000E+00 0. -1.
          4    1    6    6  503    0 -0.13358651977E+03 -0.94675175133E+02  0.19464877863E+03  0.25435584144E+03  0.00000000000E+00 0. -1.
         -4    1    6    6    0  503 -0.13201334807E+03 -0.86325848852E+02  0.73540352561E+02  0.17403407627E+03  0.00000000000E+00 0.  1.
<mgrwt>
<rscale>  0 0.15752074E+04</rscale>
<asrwt>0</asrwt>
<pdfrwt beam="1">  1        2 0.39165817E+00 0.15752074E+04</pdfrwt>
<pdfrwt beam="2">  1       -1 0.37487078E-01 0.15752074E+04</pdfrwt>
<totfact> 0.24621409E+01</totfact>
</mgrwt>
</event>
<event>
12    6  0.1663299E-008  0.3955701E+04  0.7818608E-02  0.8013543E-01
          2   -1    0    0  501    0  0.00000000000E+00  0.00000000000E+00  0.33460224498E+04  0.33460224498E+04  0.00000000000E+00 0. -1.
         -1   -1    0    0    0  501 -0.00000000000E+00 -0.00000000000E+00 -0.11691172577E+04  0.11691172577E+04  0.00000000000E+00 0.  1.
         24    2    1    2    0    0  0.15398708018E+04 -0.94138574748E+03  0.44584713582E+03  0.18608667183E+04  0.81462034534E+02 0.  0.
        254    2    1    2    0    0 -0.15398708018E+04  0.94138574748E+03  0.17310580563E+04  0.26542729891E+04  0.88949080649E+03 0.  0.
         23    2    4    4    0    0 -0.18381070834E+03  0.66242623168E+02 -0.64586693398E+02  0.23821290739E+03  0.11999786105E+03 0.  0.
         23    2    4    4    0    0 -0.13560600935E+04  0.87514312432E+03  0.17956447497E+04  0.24160600817E+04  0.90729192987E+02 0.  0.
          2    1    3    3  502    0  0.34200727188E+03 -0.20986124910E+03  0.13427314088E+03  0.42313117854E+03  0.00000000000E+00 0. -1.
         -1    1    3    3    0  502  0.11978635299E+04 -0.73152449838E+03  0.31157399494E+03  0.14377355398E+04  0.00000000000E+00 0.  1.
         11    1    5    5    0    0 -0.11239305384E+03  0.69702958634E+02  0.12776518017E+02  0.13286813164E+03  0.00000000000E+00 0.  1.
        -11    1    5    5    0    0 -0.71417654504E+02 -0.34603354658E+01 -0.77363211416E+02  0.10534477575E+03  0.00000000000E+00 0. -1.
          1    1    6    6  503    0 -0.12044729463E+04  0.77608857887E+03  0.15491118448E+04  0.21101696777E+04  0.00000000000E+00 0. -1.
         -1    1    6    6    0  503 -0.15158714717E+03  0.99054545443E+02  0.24653290480E+03  0.30589040408E+03  0.00000000000E+00 0.  1.
<mgrwt>
<rscale>  0 0.39557010E+04</rscale>
<asrwt>0</asrwt>
<pdfrwt beam="1">  1        2 0.51477268E+00 0.39557010E+04</pdfrwt>
<pdfrwt beam="2">  1       -1 0.17986420E+00 0.39557010E+04</pdfrwt>
<totfact> 0.19417681E-01</totfact>
</mgrwt>
</event>
<event>
12    6  0.1663299E-008  0.2618784E+04  0.7818608E-02  0.8361848E-01
         -1   -1    0    0    0  501 -0.00000000000E+00  0.00000000000E+00  0.13511378371E+04  0.13511378371E+04  0.00000000000E+00 0.  1.
          2   -1    0    0  501    0  0.00000000000E+00 -0.00000000000E+00 -0.12689363231E+04  0.12689363231E+04  0.00000000000E+00 0. -1.
         24    2    1    2    0    0 -0.79452944831E+03 -0.76595640352E+03  0.38606285140E+03  0.11718536641E+04  0.78931797310E+02 0.  0.
        254    2    1    2    0    0  0.79452944831E+03  0.76595640352E+03 -0.30386133738E+03  0.14482204960E+04  0.88715536204E+03 0.  0.
         23    2    4    4    0    0  0.25299622505E+01  0.42013231433E+03  0.16207398409E+03  0.46245008149E+03  0.10523563705E+03 0.  0.
         23    2    4    4    0    0  0.79199948605E+03  0.34582408920E+03 -0.46593532147E+03  0.98577041452E+03  0.88261541824E+02 0.  0.
          4    1    3    3  502    0 -0.97571436543E+02 -0.13070947249E+03  0.47293580858E+02  0.16982883800E+03  0.00000000000E+00 0. -1.
         -3    1    3    3    0  502 -0.69695801176E+03 -0.63524693103E+03  0.33876927054E+03  0.10020248261E+04  0.00000000000E+00 0.  1.
         11    1    5    5    0    0  0.31493545302E+02  0.34726833853E+03  0.16091441309E+03  0.38403201778E+03  0.00000000000E+00 0.  1.
        -11    1    5    5    0    0 -0.28963583052E+02  0.72863975794E+02  0.11595710050E+01  0.78418063714E+02  0.00000000000E+00 0. -1.
          3    1    6    6  503    0  0.37125140515E+03  0.11514331916E+03 -0.21826390563E+03  0.44578551151E+03  0.00000000000E+00 0. -1.
         -3    1    6    6    0  503  0.42074808091E+03  0.23068077004E+03 -0.24767141584E+03  0.53998490301E+03  0.00000000000E+00 0.  1.
<mgrwt>
<rscale>  0 0.26187844E+04</rscale>
<asrwt>0</asrwt>
<pdfrwt beam="1">  1        2 0.19522097E+00 0.26187844E+04</pdfrwt>
<pdfrwt beam="2">  1       -1 0.20786736E+00 0.26187844E+04</pdfrwt>
<totfact> 0.23060089E+00</totfact>
</mgrwt>
</event>
<event>
12    6  0.1663299E-008  0.1790701E+04  0.7818608E-02  0.8711260E-01
         -1   -1    0    0    0  501 -0.00000000000E+00  0.00000000000E+00  0.83159865638E+03  0.83159865638E+03  0.00000000000E+00 0.  1.
          2   -1    0    0  501    0  0.00000000000E+00 -0.00000000000E+00 -0.96398921799E+03  0.96398921799E+03  0.00000000000E+00 0. -1.
         24    2    1    2    0    0  0.17134229114E+03  0.52475896244E+03  0.31814498970E+03  0.64207889561E+03  0.79491662039E+02 0.  0.
        254    2    1    2    0    0 -0.17134229114E+03 -0.52475896244E+03 -0.45053555132E+03  0.11535089788E+04  0.90712211508E+03 0.  0.
         23    2    4    4    0    0 -0.46722108257E+03 -0.83622655087E+02 -0.69724712391E+02  0.49358883224E+03  0.11610388175E+03 0.  0.
         23    2    4    4    0    0  0.29587879143E+03 -0.44113630735E+03 -0.38081083892E+03  0.65992014651E+03  0.91280906271E+02 0.  0.
          4    1    3    3  502    0  0.96822803615E+02  0.19057949759E+03  0.99095913084E+02  0.23561663819E+03  0.00000000000E+00 0. -1.
         -3    1    3    3    0  502  0.74519487521E+02  0.33417946484E+03  0.21904907662E+03  0.40646225742E+03  0.00000000000E+00 0.  1.
         11    1    5    5    0    0 -0.34571270018E+03 -0.96564740742E+01 -0.59926541864E+02  0.35100100994E+03  0.00000000000E+00 0.  1.
        -11    1    5    5    0    0 -0.12150838238E+03 -0.73966181013E+02 -0.97981705269E+01  0.14258782230E+03  0.00000000000E+00 0. -1.
          3    1    6    6  503    0  0.17296182114E+03 -0.17646143392E+03 -0.17041725748E+03  0.30016074173E+03  0.00000000000E+00 0. -1.
         -3    1    6    6    0  503  0.12291697029E+03 -0.26467487343E+03 -0.21039358145E+03  0.35975940478E+03  0.00000000000E+00 0.  1.
<mgrwt>
<rscale>  0 0.17907006E+04</rscale>
<asrwt>0</asrwt>
<pdfrwt beam="1">  1        2 0.14830603E+00 0.17907006E+04</pdfrwt>
<pdfrwt beam="2">  1       -1 0.12793825E+00 0.17907006E+04</pdfrwt>
<totfact> 0.15131327E+01</totfact>
</mgrwt>
</event>
<event>
12    6  0.1664970E-008  0.3384985E+04  0.7818608E-02  0.8141601E-01
         -1   -1    0    0    0  501 -0.00000000000E+00  0.00000000000E+00  0.12971358944E+04  0.12971358944E+04  0.00000000000E+00 0.  1.
          2   -1    0    0  501    0  0.00000000000E+00 -0.00000000000E+00 -0.22083504014E+04  0.22083504014E+04  0.00000000000E+00 0. -1.
         24    2    1    2    0    0  0.65198239063E+03 -0.14032152193E+03  0.10218936575E+04  0.12228811844E+04  0.80003604274E+02 0.  0.
        254    2    1    2    0    0 -0.65198239063E+03  0.14032152193E+03 -0.19331081644E+04  0.22826051114E+04  0.10142030132E+04 0.  0.
         23    2    4    4    0    0 -0.70828795987E+03  0.27489574611E+03 -0.70300987739E+03  0.10405828780E+04  0.10653794177E+03 0.  0.
         23    2    4    4    0    0  0.56305569236E+02 -0.13457422418E+03 -0.12300982870E+04  0.12420222334E+04  0.90536696864E+02 0.  0.
          2    1    3    3  502    0  0.18415903281E+03 -0.62091993139E+02  0.24621036976E+03  0.31367102378E+03  0.00000000000E+00 0. -1.
         -1    1    3    3    0  502  0.46782335782E+03 -0.78229528793E+02  0.77568328773E+03  0.90921016062E+03  0.00000000000E+00 0.  1.
         11    1    5    5    0    0 -0.66191873115E+03  0.27890344780E+03 -0.63855478503E+03  0.96108051344E+03  0.00000000000E+00 0. -1.
        -11    1    5    5    0    0 -0.46369228723E+02 -0.40077016882E+01 -0.64455092364E+02  0.79502364600E+02  0.00000000000E+00 0.  1.
          1    1    6    6  503    0  0.46623536641E+01 -0.11079879132E+03 -0.67865802368E+03  0.68765894367E+03  0.00000000000E+00 0. -1.
         -1    1    6    6    0  503  0.51643215572E+02 -0.23775432861E+02 -0.55144026334E+03  0.55436328969E+03  0.00000000000E+00 0.  1.
<mgrwt>
<rscale>  0 0.33849848E+04</rscale>
<asrwt>0</asrwt>
<pdfrwt beam="1">  1        2 0.33974621E+00 0.33849848E+04</pdfrwt>
<pdfrwt beam="2">  1       -1 0.19955937E+00 0.33849848E+04</pdfrwt>
<totfact> 0.73013364E-01</totfact>
</mgrwt>
</event>
<event>
12    6  0.1663299E-008  0.1917261E+04  0.7818608E-02  0.8646312E-01
          2   -1    0    0  501    0  0.00000000000E+00  0.00000000000E+00  0.59185784000E+03  0.59185784000E+03  0.00000000000E+00 0. -1.
         -1   -1    0    0    0  501 -0.00000000000E+00 -0.00000000000E+00 -0.15526904782E+04  0.15526904782E+04  0.00000000000E+00 0.  1.
         24    2    1    2    0    0  0.31870148159E+03 -0.21438320773E+03 -0.10845834395E+04  0.11533534969E+04  0.79826420123E+02 0.  0.
        254    2    1    2    0    0 -0.31870148159E+03  0.21438320773E+03  0.12375080136E+03  0.99119482129E+03  0.90532983977E+03 0.  0.
         23    2    4    4    0    0  0.33533839571E+02 -0.30679113155E+03 -0.53860745601E+02  0.33114764566E+03  0.10729616262E+03 0.  0.
         23    2    4    4    0    0 -0.35223532116E+03  0.52117433928E+03  0.17761154697E+03  0.66004717563E+03  0.91782346006E+02 0.  0.
          2    1    3    3  502    0  0.89335318832E+02 -0.82462950363E+02 -0.25311945164E+03  0.28080312351E+03  0.00000000000E+00 0. -1.
         -1    1    3    3    0  502  0.22936616276E+03 -0.13192025737E+03 -0.83146398790E+03  0.87255037338E+03  0.00000000000E+00 0.  1.
         11    1    5    5    0    0  0.43232486912E+02 -0.18083460156E+03  0.16298388279E+02  0.18664361362E+03  0.00000000000E+00 0. -1.
        -11    1    5    5    0    0 -0.96986473408E+01 -0.12595652999E+03 -0.70159133880E+02  0.14450403203E+03  0.00000000000E+00 0.  1.
          1    1    6    6  503    0 -0.27695326135E+03  0.37221426165E+03  0.16596671766E+03  0.49273879177E+03  0.00000000000E+00 0. -1.
         -1    1    6    6    0  503 -0.75282059807E+02  0.14896007764E+03  0.11644829304E+02  0.16730838385E+03  0.00000000000E+00 0.  1.
<mgrwt>
<rscale>  0 0.19172606E+04</rscale>
<asrwt>0</asrwt>
<pdfrwt beam="1">  1        2 0.91055052E-01 0.19172606E+04</pdfrwt>
<pdfrwt beam="2">  1       -1 0.23887546E+00 0.19172606E+04</pdfrwt>
<totfact> 0.44415118E+00</totfact>
</mgrwt>
</event>
<event>
12    6  0.1663299E-008  0.1267969E+04  0.7818608E-02  0.9055359E-01
         -1   -1    0    0    0  501 -0.00000000000E+00  0.00000000000E+00  0.18646372122E+04  0.18646372122E+04  0.00000000000E+00 0.  1.
          2   -1    0    0  501    0  0.00000000000E+00 -0.00000000000E+00 -0.21555727912E+03  0.21555727912E+03  0.00000000000E+00 0. -1.
         24    2    1    2    0    0 -0.24316112587E+03 -0.51114512744E+02  0.87708059621E+03  0.91532924130E+03  0.82566465171E+02 0.  0.
        254    2    1    2    0    0  0.24316112587E+03  0.51114512744E+02  0.77199933683E+03  0.11648652500E+04  0.83617465163E+03 0.  0.
         23    2    4    4    0    0  0.17812892926E+03 -0.35627602801E+03  0.54156646878E+03  0.68332519270E+03  0.12237873714E+03 0.  0.
         23    2    4    4    0    0  0.65032196610E+02  0.40739054075E+03  0.23043286805E+03  0.48154005729E+03  0.92656790409E+02 0.  0.
          4    1    3    3  502    0 -0.98907070209E+02 -0.62417960216E+02  0.37511914336E+03  0.39292872383E+03  0.00000000000E+00 0. -1.
         -3    1    3    3    0  502 -0.14425405566E+03  0.11303447472E+02  0.50196145286E+03  0.52240051747E+03  0.00000000000E+00 0.  1.
         11    1    5    5    0    0  0.16860239572E+03 -0.22748962161E+03  0.32377658819E+03  0.43012739373E+03  0.00000000000E+00 0.  1.
        -11    1    5    5    0    0  0.95265335419E+01 -0.12878640640E+03  0.21778988059E+03  0.25319779897E+03  0.00000000000E+00 0. -1.
          3    1    6    6  503    0  0.18262201160E+02  0.16228637167E+02 -0.13426030085E+01  0.24467922641E+02  0.00000000000E+00 0. -1.
         -3    1    6    6    0  503  0.46769995451E+02  0.39116190358E+03  0.23177547106E+03  0.45707213465E+03  0.00000000000E+00 0.  1.
<mgrwt>
<rscale>  0 0.12679686E+04</rscale>
<asrwt>0</asrwt>
<pdfrwt beam="1">  1        2 0.33162660E-01 0.12679686E+04</pdfrwt>
<pdfrwt beam="2">  1       -1 0.28686725E+00 0.12679686E+04</pdfrwt>
<totfact> 0.72264004E+00</totfact>
</mgrwt>
</event>
<event>
11    6  0.1663299E-008  0.1298662E+04  0.7818608E-02  0.9030627E-01
         -3   -1    0    0    0  501 -0.00000000000E+00  0.00000000000E+00  0.39689873959E+03  0.39689873959E+03  0.00000000000E+00 0.  1.
          2   -1    0    0  501    0  0.00000000000E+00 -0.00000000000E+00 -0.10623136599E+04  0.10623136599E+04  0.00000000000E+00 0. -1.
         24    2    1    2    0    0  0.11487831256E+03  0.22732807384E+03  0.72934053729E+02  0.27601151460E+03  0.77381523301E+02 0.  0.
        254    2    1    2    0    0 -0.11487831256E+03 -0.22732807384E+03 -0.73834897407E+03  0.11832008849E+04  0.88878008905E+03 0.  0.
         23    2    4    4    0    0 -0.41848631829E+03  0.80990059501E+02 -0.19589538760E+03  0.47709576511E+03  0.86920526170E+02 0.  0.
          2    1    3    3  502    0  0.39987584142E+01 -0.24400439180E+01  0.13175348398E+02  0.13983336104E+02  0.00000000000E+00 0. -1.
         -1    1    3    3    0  502  0.11087955415E+03  0.22976811775E+03  0.59758705331E+02  0.26202817850E+03  0.00000000000E+00 0.  1.
         11    1    4    4    0    0  0.24489245160E+03 -0.21156219544E+03 -0.47366226864E+03  0.57366089297E+03  0.00000000000E+00 0.  1.
        -11    1    4    4    0    0  0.58715554119E+02 -0.96755937894E+02 -0.68791317832E+02  0.13244422684E+03  0.00000000000E+00 0. -1.
          3    1    5    5  503    0 -0.27197684561E+03  0.33890170647E+02 -0.16567435683E+03  0.32026229988E+03  0.00000000000E+00 0. -1.
         -3    1    5    5    0  503 -0.14650947268E+03  0.47099888854E+02 -0.30221030771E+02  0.15683346523E+03  0.00000000000E+00 0.  1.
<mgrwt>
<rscale>  0 0.12986623E+04</rscale>
<asrwt>0</asrwt>
<pdfrwt beam="1">  1        2 0.16343287E+00 0.12986623E+04</pdfrwt>
<pdfrwt beam="2">  1       -3 0.61061346E-01 0.12986623E+04</pdfrwt>
<totfact> 0.37558758E+01</totfact>
</mgrwt>
</event>
<event>
11    6  0.1663299E-008  0.1234043E+04  0.7818608E-02  0.9083570E-01
         -1   -1    0    0    0  501 -0.00000000000E+00  0.00000000000E+00  0.22514387511E+03  0.22514387511E+03  0.00000000000E+00 0.  1.
          2   -1    0    0  501    0  0.00000000000E+00 -0.00000000000E+00 -0.16909870790E+04  0.16909870790E+04  0.00000000000E+00 0. -1.
         24    2    1    2    0    0  0.99756530402E+00 -0.18010038693E+03 -0.11595701612E+02  0.19661185217E+03  0.78003946134E+02 0.  0.
        254    2    1    2    0    0 -0.99756530402E+00  0.18010038693E+03 -0.14542475023E+04  0.17195191020E+04  0.89970717433E+03 0.  0.
         23    2    4    4    0    0 -0.14655536444E+03  0.67064184795E+02 -0.14708716008E+04  0.14825040377E+04  0.91536200607E+02 0.  0.
          2    1    3    3  502    0  0.38895464071E+02 -0.10812918719E+03 -0.54731778122E+01  0.11504231362E+03  0.00000000000E+00 0. -1.
         -1    1    3    3    0  502 -0.37897898767E+02 -0.71971199734E+02 -0.61225237997E+01  0.81569538554E+02  0.00000000000E+00 0.  1.
         11    1    4    4    0    0  0.11485554987E+03  0.21833313183E+02 -0.42122018541E+02  0.12426888326E+03  0.00000000000E+00 0.  1.
        -11    1    4    4    0    0  0.30702249265E+02  0.91202888948E+02  0.58746117041E+02  0.11274618100E+03  0.00000000000E+00 0. -1.
          3    1    5    5  503    0 -0.14810802255E+03  0.76571240421E+02 -0.14495495108E+04  0.14591068931E+04  0.00000000000E+00 0. -1.
         -3    1    5    5    0  503  0.15526581172E+01 -0.95070556259E+01 -0.21322090034E+02  0.23397144640E+02  0.00000000000E+00 0.  1.
<mgrwt>
<rscale>  0 0.12340428E+04</rscale>
<asrwt>0</asrwt>
<pdfrwt beam="1">  1        2 0.26015186E+00 0.12340428E+04</pdfrwt>
<pdfrwt beam="2">  1       -1 0.34637519E-01 0.12340428E+04</pdfrwt>
<totfact> 0.87966668E+01</totfact>
</mgrwt>
</event>
<event>
11    6  0.1663299E-008  0.1594689E+04  0.7818608E-02  0.8823818E-01
         -1   -1    0    0    0  501 -0.00000000000E+00  0.00000000000E+00  0.33732111128E+03  0.33732111128E+03  0.00000000000E+00 0.  1.
          2   -1    0    0  501    0  0.00000000000E+00 -0.00000000000E+00 -0.18847267255E+04  0.18847267255E+04  0.00000000000E+00 0. -1.
         24    2    1    2    0    0 -0.52274621242E+03 -0.10607461820E+03 -0.59339731836E+03  0.80253080402E+03  0.86138764457E+02 0.  0.
        254    2    1    2    0    0  0.52274621242E+03  0.10607461820E+03 -0.95400829582E+03  0.14195170327E+04  0.90574905490E+03 0.  0.
         23    2    4    4    0    0  0.54530126498E+02  0.18293814066E+03 -0.88415673938E+03  0.90929541561E+03  0.92979110799E+02 0.  0.
          2    1    3    3  502    0 -0.26206785185E+03 -0.37310988130E+02 -0.35369964782E+03  0.44178627149E+03  0.00000000000E+00 0. -1.
         -1    1    3    3    0  502 -0.26067836057E+03 -0.68763630074E+02 -0.23969767053E+03  0.36074453253E+03  0.00000000000E+00 0.  1.
         11    1    4    4    0    0  0.29916597742E+03 -0.92045434727E+02  0.28083569920E+02  0.31426315565E+03  0.00000000000E+00 0. -1.
        -11    1    4    4    0    0  0.16905010850E+03  0.15181912270E+02 -0.97935126365E+02  0.19595846147E+03  0.00000000000E+00 0.  1.
          1    1    5    5  503    0  0.66709568444E+02  0.14013766292E+03 -0.79065592720E+03  0.80574532347E+03  0.00000000000E+00 0. -1.
         -1    1    5    5    0  503 -0.12179441946E+02  0.42800477746E+02 -0.93500812184E+02  0.10355009213E+03  0.00000000000E+00 0.  1.
<mgrwt>
<rscale>  0 0.15946888E+04</rscale>
<asrwt>0</asrwt>
<pdfrwt beam="1">  1        2 0.28995796E+00 0.15946888E+04</pdfrwt>
<pdfrwt beam="2">  1       -1 0.51895556E-01 0.15946888E+04</pdfrwt>
<totfact> 0.31630572E+01</totfact>
</mgrwt>
</event>
<event>
11    6  0.1663299E-008  0.2655247E+04  0.7818608E-02  0.8349673E-01
          2   -1    0    0  501    0  0.00000000000E+00  0.00000000000E+00  0.63892146295E+03  0.63892146295E+03  0.00000000000E+00 0. -1.
         -1   -1    0    0    0  501 -0.00000000000E+00 -0.00000000000E+00 -0.27586873551E+04  0.27586873551E+04  0.00000000000E+00 0.  1.
         24    2    1    2    0    0  0.61041161316E+03  0.76968578561E+03 -0.15340236709E+03  0.99725665926E+03  0.77265853829E+02 0.  0.
        254    2    1    2    0    0 -0.61041161316E+03 -0.76968578561E+03 -0.19663635251E+04  0.24003521588E+04  0.96440988563E+03 0.  0.
         23    2    4    4    0    0 -0.84854299941E+02 -0.64817471106E+02  0.82523161543E+02  0.16228862085E+03  0.90144148378E+02 0.  0.
          4    1    3    3  502    0  0.12105433175E+03  0.17582785525E+03 -0.47391427121E+01  0.21352293880E+03  0.00000000000E+00 0. -1.
         -3    1    3    3    0  502  0.48935728141E+03  0.59385793035E+03 -0.14866322438E+03  0.78373372047E+03  0.00000000000E+00 0.  1.
         11    1    4    4    0    0 -0.53990784119E+03 -0.66020458453E+03 -0.19197271336E+04  0.21006481947E+04  0.00000000000E+00 0. -1.
        -11    1    4    4    0    0  0.14350527965E+02 -0.44663729972E+02 -0.12915955300E+03  0.13741534324E+03  0.00000000000E+00 0.  1.
          4    1    5    5  503    0 -0.94651191904E+02 -0.77058809617E+02  0.81110172845E+02  0.14654613065E+03  0.00000000000E+00 0. -1.
         -4    1    5    5    0  503  0.97968919631E+01  0.12241338512E+02  0.14129886973E+01  0.15742490202E+02  0.00000000000E+00 0.  1.
<mgrwt>
<rscale>  0 0.26552473E+04</rscale>
<asrwt>0</asrwt>
<pdfrwt beam="1">  1        2 0.98295612E-01 0.26552473E+04</pdfrwt>
<pdfrwt beam="2">  1       -1 0.42441343E+00 0.26552473E+04</pdfrwt>
<totfact> 0.22410434E-01</totfact>
</mgrwt>
</event>
<event>
11    6  0.1663299E-008  0.1683632E+04  0.7818608E-02  0.8770755E-01
         -1   -1    0    0    0  501 -0.00000000000E+00  0.00000000000E+00  0.52992090464E+03  0.52992090464E+03  0.00000000000E+00 0.  1.
          2   -1    0    0  501    0  0.00000000000E+00 -0.00000000000E+00 -0.13372822441E+04  0.13372822441E+04  0.00000000000E+00 0. -1.
         24    2    1    2    0    0 -0.49489969722E+03 -0.17544589599E+03  0.23986806185E+02  0.53159843245E+03  0.79464166667E+02 0.  0.
        254    2    1    2    0    0  0.49489969722E+03  0.17544589599E+03 -0.83134814563E+03  0.13356047163E+04  0.90387678706E+03 0.  0.
         23    2    4    4    0    0 -0.21944651266E+02 -0.29731094679E+03 -0.37101344091E+03  0.48414590173E+03  0.88718171938E+02 0.  0.
          2    1    3    3  502    0 -0.25317278463E+03 -0.83689096307E+02  0.51528553287E+02  0.27157966699E+03  0.00000000000E+00 0. -1.
         -1    1    3    3    0  502 -0.24172691258E+03 -0.91756799687E+02 -0.27541747102E+02  0.26001876546E+03  0.00000000000E+00 0.  1.
         11    1    4    4    0    0  0.52039656923E+02  0.19617747178E+02 -0.85133658145E+02  0.10168933890E+03  0.00000000000E+00 0. -1.
        -11    1    4    4    0    0  0.46480469156E+03  0.45313909560E+03 -0.37520104658E+03  0.74976947565E+03  0.00000000000E+00 0.  1.
          3    1    5    5  503    0  0.34002093823E+02 -0.10094852932E+03 -0.13811178455E+03  0.17441792622E+03  0.00000000000E+00 0. -1.
         -3    1    5    5    0  503 -0.55946745088E+02 -0.19636241747E+03 -0.23290165636E+03  0.30972797551E+03  0.00000000000E+00 0.  1.
<mgrwt>
<rscale>  0 0.16836316E+04</rscale>
<asrwt>0</asrwt>
<pdfrwt beam="1">  1        2 0.20573573E+00 0.16836316E+04</pdfrwt>
<pdfrwt beam="2">  1       -1 0.81526293E-01 0.16836316E+04</pdfrwt>
<totfact> 0.25588083E+01</totfact>
</mgrwt>
</event>
<event>
12    6  0.1663299E-008  0.1504089E+04  0.7818608E-02  0.8881739E-01
          2   -1    0    0  501    0  0.00000000000E+00  0.00000000000E+00  0.23335526030E+04  0.23335526030E+04  0.00000000000E+00 0. -1.
         -1   -1    0    0    0  501 -0.00000000000E+00 -0.00000000000E+00 -0.24236460723E+03  0.24236460723E+03  0.00000000000E+00 0.  1.
         24    2    1    2    0    0 -0.11882530128E+03 -0.10704081815E+03  0.14385719713E+04  0.14497515048E+04  0.81932410618E+02 0.  0.
        254    2    1    2    0    0  0.11882530128E+03  0.10704081815E+03  0.65261602447E+03  0.11261657055E+04  0.90375014901E+03 0.  0.
         23    2    4    4    0    0  0.39753659258E+03  0.34690464894E+03  0.40238628134E+03  0.67173114779E+03  0.10454586368E+03 0.  0.
         23    2    4    4    0    0 -0.27871129130E+03 -0.23986383079E+03  0.25022974312E+03  0.45443455768E+03  0.93172966344E+02 0.  0.
          4    1    3    3  502    0 -0.11469015384E+03 -0.83814013555E+02  0.13676766701E+04  0.13750338520E+04  0.00000000000E+00 0. -1.
         -3    1    3    3    0  502 -0.41351474394E+01 -0.23226804596E+02  0.70895301193E+02  0.74717652716E+02  0.00000000000E+00 0.  1.
         11    1    5    5    0    0  0.37363617266E+02  0.83434232391E+02  0.75448003590E+02  0.11853148221E+03  0.00000000000E+00 0.  1.
        -11    1    5    5    0    0  0.36017297531E+03  0.26347041655E+03  0.32693827775E+03  0.55319966558E+03  0.00000000000E+00 0. -1.
          3    1    6    6  503    0 -0.73570719698E+02 -0.17829851287E+02  0.65954332105E+02  0.10040183423E+03  0.00000000000E+00 0. -1.
         -3    1    6    6    0  503 -0.20514057160E+03 -0.22203397950E+03  0.18427541102E+03  0.35403272345E+03  0.00000000000E+00 0.  1.
<mgrwt>
<rscale>  0 0.15040885E+04</rscale>
<asrwt>0</asrwt>
<pdfrwt beam="1">  1        2 0.35900808E+00 0.15040885E+04</pdfrwt>
<pdfrwt beam="2">  1       -1 0.37286864E-01 0.15040885E+04</pdfrwt>
<totfact> 0.33098521E+01</totfact>
</mgrwt>
</event>
<event>
12    6  0.1663299E-008  0.1054081E+04  0.7818608E-02  0.9251140E-01
          2   -1    0    0  501    0  0.00000000000E+00  0.00000000000E+00  0.30470905211E+04  0.30470905211E+04  0.00000000000E+00 0. -1.
         -1   -1    0    0    0  501 -0.00000000000E+00 -0.00000000000E+00 -0.91159706304E+02  0.91159706304E+02  0.00000000000E+00 0.  1.
         24    2    1    2    0    0 -0.84101689901E+02  0.74872643051E+02  0.26052894117E+03  0.29501683644E+03  0.80502159443E+02 0.  0.
        254    2    1    2    0    0  0.84101689901E+02 -0.74872643051E+02  0.26954018736E+04  0.28432333910E+04  0.89783397587E+03 0.  0.
         23    2    4    4    0    0 -0.16998046193E+03 -0.18249774400E+03  0.23269520228E+03  0.36347768885E+03  0.12557941362E+03 0.  0.
         23    2    4    4    0    0  0.25408215183E+03  0.10762510095E+03  0.24627066714E+04  0.24797557021E+04  0.90129300682E+02 0.  0.
          2    1    3    3  502    0 -0.78744499610E+02  0.36700120823E+02  0.22994972552E+03  0.24581389577E+03  0.00000000000E+00 0. -1.
         -1    1    3    3    0  502 -0.53571902907E+01  0.38172522228E+02  0.30579215657E+02  0.49202940677E+02  0.00000000000E+00 0.  1.
         11    1    5    5    0    0 -0.10836839413E+03 -0.18208625864E+03  0.14683346699E+03  0.25779678326E+03  0.00000000000E+00 0. -1.
        -11    1    5    5    0    0 -0.61612067803E+02 -0.41148535895E+00  0.85861735293E+02  0.10568090559E+03  0.00000000000E+00 0.  1.
          1    1    6    6  503    0  0.17431133200E+03  0.10677487992E+03  0.15207413457E+04  0.15344183119E+04  0.00000000000E+00 0. -1.
         -1    1    6    6    0  503  0.79770819834E+02  0.85022103078E+00  0.94196532569E+03  0.94533739024E+03  0.00000000000E+00 0.  1.
<mgrwt>
<rscale>  0 0.10540814E+04</rscale>
<asrwt>0</asrwt>
<pdfrwt beam="1">  1        2 0.46878308E+00 0.10540814E+04</pdfrwt>
<pdfrwt beam="2">  1       -1 0.14024573E-01 0.10540814E+04</pdfrwt>
<totfact> 0.69203067E+01</totfact>
</mgrwt>
</event>
<event>
11    6  0.1663299E-008  0.1744169E+04  0.7818608E-02  0.8736566E-01
         -1   -1    0    0    0  501 -0.00000000000E+00  0.00000000000E+00  0.10011201413E+04  0.10011201413E+04  0.00000000000E+00 0.  1.
          2   -1    0    0  501    0  0.00000000000E+00 -0.00000000000E+00 -0.75968072511E+03  0.75968072511E+03  0.00000000000E+00 0. -1.
         24    2    1    2    0    0  0.46631983551E+03  0.27738196369E+03  0.42682443039E+03  0.69421071080E+03  0.73174270352E+02 0.  0.
        254    2    1    2    0    0 -0.46631983551E+03 -0.27738196369E+03 -0.18538501419E+03  0.10665901556E+04  0.89936200376E+03 0.  0.
         23    2    4    4    0    0 -0.45808662720E+03  0.23011446845E+03 -0.44724848218E+02  0.52237967073E+03  0.89912077814E+02 0.  0.
          4    1    3    3  502    0  0.15149285802E+03  0.53483240853E+02  0.13921130336E+03  0.21258017327E+03  0.00000000000E+00 0. -1.
         -3    1    3    3    0  502  0.31482697749E+03  0.22389872284E+03  0.28761312703E+03  0.48163053753E+03  0.00000000000E+00 0.  1.
         11    1    4    4    0    0  0.13348106506E+02 -0.17207603003E+03 -0.11441638546E+03  0.20707351670E+03  0.00000000000E+00 0. -1.
        -11    1    4    4    0    0 -0.21581314818E+02 -0.33542040211E+03 -0.26243780517E+02  0.33713696819E+03  0.00000000000E+00 0.  1.
          1    1    5    5  503    0 -0.42868832107E+03  0.18580189248E+03 -0.37702399221E+02  0.46874032340E+03  0.00000000000E+00 0. -1.
         -1    1    5    5    0  503 -0.29398306123E+02  0.44312575971E+02 -0.70224489964E+01  0.53639347330E+02  0.00000000000E+00 0.  1.
<mgrwt>
<rscale>  0 0.17441693E+04</rscale>
<asrwt>0</asrwt>
<pdfrwt beam="1">  1        2 0.11687396E+00 0.17441693E+04</pdfrwt>
<pdfrwt beam="2">  1       -1 0.15401848E+00 0.17441693E+04</pdfrwt>
<totfact> 0.12965325E+01</totfact>
</mgrwt>
</event>
<event>
12    6  0.2521986E-008  0.3505916E+04  0.7818608E-02  0.8112389E-01
         -1   -1    0    0    0  501 -0.00000000000E+00  0.00000000000E+00  0.89944425847E+03  0.89944425847E+03  0.00000000000E+00 0.  1.
          2   -1    0    0  501    0  0.00000000000E+00 -0.00000000000E+00 -0.34163996326E+04  0.34163996326E+04  0.00000000000E+00 0. -1.
         24    2    1    2    0    0  0.49171288282E+03 -0.14079227005E+03 -0.30925100762E+04  0.31355637480E+04  0.80854338362E+02 0.  0.
        254    2    1    2    0    0 -0.49171288282E+03  0.14079227005E+03  0.57555470204E+03  0.11802801431E+04  0.89453562180E+03 0.  0.
         23    2    4    4    0    0 -0.64449810833E+02  0.99130779362E+02 -0.22075822992E+03  0.27107692689E+03  0.10376808123E+03 0.  0.
         23    2    4    4    0    0 -0.42726307199E+03  0.41661490687E+02  0.79631293196E+03  0.90920321619E+03  0.90811839642E+02 0.  0.
          4    1    3    3  502    0  0.38871857556E+03 -0.14200589228E+03 -0.25496971553E+04  0.25830647278E+04  0.00000000000E+00 0. -1.
         -3    1    3    3    0  502  0.10299430726E+03  0.12136222323E+01 -0.54281292092E+03  0.55249902020E+03  0.00000000000E+00 0.  1.
         11    1    5    5    0    0  0.21878214413E+02  0.18360454413E+02 -0.11615401644E+02  0.30833100841E+02  0.00000000000E+00 0.  1.
        -11    1    5    5    0    0 -0.86328025246E+02  0.80770324950E+02 -0.20914282828E+03  0.24024382605E+03  0.00000000000E+00 0. -1.
          1    1    6    6  503    0 -0.23674816079E+03  0.38823021188E+02  0.52977490499E+03  0.58156544651E+03  0.00000000000E+00 0. -1.
         -1    1    6    6    0  503 -0.19051491120E+03  0.28384694995E+01  0.26653802697E+03  0.32763776968E+03  0.00000000000E+00 0.  1.
<mgrwt>
<rscale>  0 0.35059156E+04</rscale>
<asrwt>0</asrwt>
<pdfrwt beam="1">  1        2 0.52559994E+00 0.35059156E+04</pdfrwt>
<pdfrwt beam="2">  1       -1 0.13837604E+00 0.35059156E+04</pdfrwt>
<totfact> 0.37378707E-01</totfact>
</mgrwt>
</event>
<event>
11    6  0.1663299E-008  0.1172294E+04  0.7818608E-02  0.9137459E-01
         -1   -1    0    0    0  501 -0.00000000000E+00  0.00000000000E+00  0.36262206465E+03  0.36262206465E+03  0.00000000000E+00 0.  1.
          2   -1    0    0  501    0  0.00000000000E+00 -0.00000000000E+00 -0.94745630451E+03  0.94745630451E+03  0.00000000000E+00 0. -1.
         24    2    1    2    0    0  0.51852126768E+01  0.67337409141E+02 -0.36808802830E+03  0.38263651906E+03  0.79753971939E+02 0.  0.
        254    2    1    2    0    0 -0.51852126768E+01 -0.67337409141E+02 -0.21674621156E+03  0.92744185011E+03  0.89922647426E+03 0.  0.
         23    2    4    4    0    0 -0.35026955266E+03  0.21173618708E+03 -0.19920294473E+03  0.46428068425E+03  0.91398950440E+02 0.  0.
          4    1    3    3  502    0 -0.12846072385E+02  0.61928594887E+02 -0.35269013367E+03  0.35831620509E+03  0.00000000000E+00 0. -1.
         -3    1    3    3    0  502  0.18031285062E+02  0.54088142544E+01 -0.15397894628E+02  0.24320313970E+02  0.00000000000E+00 0.  1.
         11    1    4    4    0    0  0.30540105331E+03 -0.25597972933E+03 -0.57094634466E+02  0.40256083078E+03  0.00000000000E+00 0. -1.
        -11    1    4    4    0    0  0.39683286675E+02 -0.23093866892E+02  0.39551367638E+02  0.60600335076E+02  0.00000000000E+00 0.  1.
          4    1    5    5  503    0 -0.11897020595E+03  0.12308728431E+03 -0.70492302534E+02  0.18513118100E+03  0.00000000000E+00 0.  1.
         -4    1    5    5    0  503 -0.23129934671E+03  0.88648902774E+02 -0.12871064219E+03  0.27914950325E+03  0.00000000000E+00 0. -1.
<mgrwt>
<rscale>  0 0.11722944E+04</rscale>
<asrwt>0</asrwt>
<pdfrwt beam="1">  1        2 0.14576250E+00 0.11722944E+04</pdfrwt>
<pdfrwt beam="2">  1       -1 0.55788011E-01 0.11722944E+04</pdfrwt>
<totfact> 0.99879009E+01</totfact>
</mgrwt>
</event>
<event>
11    6  0.1663299E-008  0.1229939E+04  0.7818608E-02  0.9087047E-01
          2   -1    0    0  501    0  0.00000000000E+00  0.00000000000E+00  0.12509212301E+04  0.12509212301E+04  0.00000000000E+00 0. -1.
         -1   -1    0    0    0  501 -0.00000000000E+00 -0.00000000000E+00 -0.30232730569E+03  0.30232730569E+03  0.00000000000E+00 0.  1.
         24    2    1    2    0    0 -0.10304985368E+03  0.28288397391E+03  0.11483359348E+03  0.33354800732E+03  0.86167882411E+02 0.  0.
        254    2    1    2    0    0  0.10304985368E+03 -0.28288397391E+03  0.83376033095E+03  0.12197005285E+04  0.83777710323E+03 0.  0.
         23    2    4    4    0    0  0.18980057756E+03 -0.28463045436E+03  0.90914748639E+03  0.97567298793E+03  0.91377637225E+02 0.  0.
          2    1    3    3  502    0 -0.95325039483E+02  0.16522389614E+03  0.97958011173E+02  0.21443313867E+03  0.00000000000E+00 0. -1.
         -1    1    3    3    0  502 -0.77248141937E+01  0.11766007777E+03  0.16875582310E+02  0.11911486865E+03  0.00000000000E+00 0.  1.
         11    1    4    4    0    0 -0.47341329676E+02 -0.95020763090E+02 -0.89165546622E+02  0.13863852862E+03  0.00000000000E+00 0. -1.
        -11    1    4    4    0    0 -0.39409394211E+02  0.96767243537E+02  0.13778391183E+02  0.10538901194E+03  0.00000000000E+00 0.  1.
          1    1    5    5  503    0  0.15244727070E+03 -0.14808580260E+03  0.54918340880E+03  0.58887349386E+03  0.00000000000E+00 0. -1.
         -1    1    5    5    0  503  0.37353306862E+02 -0.13654465176E+03  0.35996407759E+03  0.38679949407E+03  0.00000000000E+00 0.  1.
<mgrwt>
<rscale>  0 0.12299393E+04</rscale>
<asrwt>0</asrwt>
<pdfrwt beam="1">  1        2 0.19244942E+00 0.12299393E+04</pdfrwt>
<pdfrwt beam="2">  1       -1 0.46511894E-01 0.12299393E+04</pdfrwt>
<totfact> 0.91249305E+01</totfact>
</mgrwt>
</event>
<event>
11    6  0.1663299E-008  0.2017766E+04  0.7818608E-02  0.8598359E-01
          2   -1    0    0  501    0  0.00000000000E+00  0.00000000000E+00  0.25184346355E+04  0.25184346355E+04  0.00000000000E+00 0. -1.
         -1   -1    0    0    0  501 -0.00000000000E+00 -0.00000000000E+00 -0.40415774167E+03  0.40415774167E+03  0.00000000000E+00 0.  1.
         24    2    1    2    0    0  0.71367576371E+03 -0.37220490354E+03  0.92173865411E+03  0.12263986829E+04  0.81129507785E+02 0.  0.
        254    2    1    2    0    0 -0.71367576371E+03  0.37220490354E+03  0.11925382397E+04  0.16961936942E+04  0.89836296077E+03 0.  0.
         23    2    4    4    0    0 -0.86733092000E+03  0.19266277951E+03  0.82986906333E+03  0.12191976538E+04  0.91533521128E+02 0.  0.
          2    1    3    3  502    0  0.40516243403E+02 -0.26608572451E+02  0.30545854505E+02  0.57294252197E+02  0.00000000000E+00 0. -1.
         -1    1    3    3    0  502  0.67315952031E+03 -0.34559633109E+03  0.89119279961E+03  0.11691044307E+04  0.00000000000E+00 0.  1.
         11    1    4    4    0    0  0.33828247614E+02  0.12290431064E+03  0.30852964497E+03  0.33382684394E+03  0.00000000000E+00 0.  1.
        -11    1    4    4    0    0  0.11982690867E+03  0.56637813387E+02  0.54139531391E+02  0.14316919643E+03  0.00000000000E+00 0. -1.
          2    1    5    5  503    0 -0.74215306321E+03  0.16448220057E+03  0.75107505496E+03  0.10686249584E+04  0.00000000000E+00 0. -1.
         -2    1    5    5    0  503 -0.12517785679E+03  0.28180578947E+02  0.78794008364E+02  0.15057269545E+03  0.00000000000E+00 0.  1.
<mgrwt>
<rscale>  0 0.20177659E+04</rscale>
<asrwt>0</asrwt>
<pdfrwt beam="1">  1        2 0.38745147E+00 0.20177659E+04</pdfrwt>
<pdfrwt beam="2">  1       -1 0.62178116E-01 0.20177659E+04</pdfrwt>
<totfact> 0.94147786E+00</totfact>
</mgrwt>
</event>
<event>
12    6  0.1663299E-008  0.2820341E+04  0.7818608E-02  0.8296981E-01
         -1   -1    0    0    0  501 -0.00000000000E+00  0.00000000000E+00  0.72527112321E+03  0.72527112321E+03  0.00000000000E+00 0.  1.
          2   -1    0    0  501    0  0.00000000000E+00 -0.00000000000E+00 -0.27418447182E+04  0.27418447182E+04  0.00000000000E+00 0. -1.
         24    2    1    2    0    0 -0.12141729047E+04  0.23355697573E+03 -0.12187441604E+04  0.17376290458E+04  0.72475297289E+02 0.  0.
        254    2    1    2    0    0  0.12141729047E+04 -0.23355697573E+03 -0.79782943462E+03  0.17294867957E+04  0.90875082728E+03 0.  0.
         23    2    4    4    0    0  0.71085898796E+03  0.32278060123E+02  0.34690491237E+02  0.71666275442E+03  0.77715503334E+02 0.  0.
         23    2    4    4    0    0  0.50331391678E+03 -0.26583503586E+03 -0.83251992585E+03  0.10128240412E+04  0.93434182415E+02 0.  0.
          4    1    3    3  502    0 -0.40432896952E+03  0.95499438385E+02 -0.36847987615E+03  0.55531925723E+03  0.00000000000E+00 0. -1.
         -3    1    3    3    0  502 -0.80984393522E+03  0.13805753735E+03 -0.85026428424E+03  0.11823097885E+04  0.00000000000E+00 0.  1.
         11    1    5    5    0    0  0.10214601591E+03  0.11336046501E+02  0.31808017564E+02  0.10758282623E+03  0.00000000000E+00 0.  1.
        -11    1    5    5    0    0  0.60871297205E+03  0.20942013622E+02  0.28824736723E+01  0.60907992819E+03  0.00000000000E+00 0. -1.
          4    1    6    6  503    0  0.38395352170E+03 -0.24538161245E+03 -0.66333980211E+03  0.80476837389E+03  0.00000000000E+00 0. -1.
         -4    1    6    6    0  503  0.11936039508E+03 -0.20453423406E+02 -0.16918012374E+03  0.20805566734E+03  0.00000000000E+00 0.  1.
<mgrwt>
<rscale>  0 0.28203410E+04</rscale>
<asrwt>0</asrwt>
<pdfrwt beam="1">  1        2 0.42182226E+00 0.28203410E+04</pdfrwt>
<pdfrwt beam="2">  1       -1 0.11158017E+00 0.28203410E+04</pdfrwt>
<totfact> 0.18254970E+00</totfact>
</mgrwt>
</event>
<event>
11    6  0.1663299E-008  0.1464265E+04  0.7818608E-02  0.8908570E-01
          2   -1    0    0  501    0  0.00000000000E+00  0.00000000000E+00  0.12518307151E+04  0.12518307151E+04  0.00000000000E+00 0. -1.
         -1   -1    0    0    0  501 -0.00000000000E+00 -0.00000000000E+00 -0.42818740299E+03  0.42818740299E+03  0.00000000000E+00 0.  1.
         24    2    1    2    0    0 -0.34966233854E+03  0.25957791784E+03  0.38552783453E+03  0.58715534733E+03  0.80468902582E+02 0.  0.
        254    2    1    2    0    0  0.34966233854E+03 -0.25957791784E+03  0.43811547753E+03  0.10928627707E+04  0.90153170634E+03 0.  0.
         23    2    4    4    0    0 -0.28064386523E+03 -0.18310673751E+03  0.16774713996E+03  0.38535153787E+03  0.89820088849E+02 0.  0.
          2    1    3    3  502    0 -0.23395775448E+03  0.16585169189E+03  0.20180629500E+03  0.35066906805E+03  0.00000000000E+00 0. -1.
         -1    1    3    3    0  502 -0.11570458406E+03  0.93726225945E+02  0.18372153953E+03  0.23648627929E+03  0.00000000000E+00 0.  1.
         11    1    4    4    0    0  0.13099944553E+03 -0.80853540867E+02  0.51555722487E+02  0.16234574931E+03  0.00000000000E+00 0. -1.
        -11    1    4    4    0    0  0.49930675824E+03  0.43823605397E+01  0.21881261508E+03  0.54516548353E+03  0.00000000000E+00 0.  1.
          2    1    5    5  503    0 -0.14115467349E+02 -0.40576450761E+02  0.34221699118E+02  0.54925581156E+02  0.00000000000E+00 0. -1.
         -2    1    5    5    0  503 -0.26652839788E+03 -0.14253028675E+03  0.13352544084E+03  0.33042595671E+03  0.00000000000E+00 0.  1.
<mgrwt>
<rscale>  0 0.14642652E+04</rscale>
<asrwt>0</asrwt>
<pdfrwt beam="1">  1        2 0.19258934E+00 0.14642652E+04</pdfrwt>
<pdfrwt beam="2">  1       -1 0.65874986E-01 0.14642652E+04</pdfrwt>
<totfact> 0.45515578E+01</totfact>
</mgrwt>
</event>
<event>
12    6  0.1663299E-008  0.2623261E+04  0.7818608E-02  0.8360343E-01
          2   -1    0    0  501    0  0.00000000000E+00  0.00000000000E+00  0.22597667942E+04  0.22597667942E+04  0.00000000000E+00 0. -1.
         -1   -1    0    0    0  501 -0.00000000000E+00 -0.00000000000E+00 -0.76130639626E+03  0.76130639626E+03  0.00000000000E+00 0.  1.
         24    2    1    2    0    0  0.51727111433E+01 -0.49891533830E+03  0.18593563594E+04  0.19267761542E+04  0.79479590383E+02 0.  0.
        254    2    1    2    0    0 -0.51727111433E+01  0.49891533830E+03 -0.36089596147E+03  0.10942970363E+04  0.90459761047E+03 0.  0.
         23    2    4    4    0    0  0.17015521762E+03  0.36314496828E+03  0.21346571702E+03  0.47194148277E+03  0.12780486980E+03 0.  0.
         23    2    4    4    0    0 -0.17532792876E+03  0.13577037002E+03 -0.57436167848E+03  0.62235555351E+03  0.90893461243E+02 0.  0.
          2    1    3    3  502    0  0.12351447740E+02 -0.29268463067E+03  0.94212189680E+03  0.98661568998E+03  0.00000000000E+00 0. -1.
         -1    1    3    3    0  502 -0.71787365970E+01 -0.20623070763E+03  0.91723446261E+03  0.94016046420E+03  0.00000000000E+00 0.  1.
         11    1    5    5    0    0  0.18973465794E+03  0.31082116546E+03  0.17434462709E+03  0.40373888383E+03  0.00000000000E+00 0.  1.
        -11    1    5    5    0    0 -0.19579440319E+02  0.52323802820E+02  0.39121089930E+02  0.68202598940E+02  0.00000000000E+00 0. -1.
          1    1    6    6  503    0 -0.65340248106E+02  0.10876435468E+01 -0.14093350732E+03  0.15534730277E+03  0.00000000000E+00 0. -1.
         -1    1    6    6    0  503 -0.10998768065E+03  0.13468272647E+03 -0.43342817116E+03  0.46700825074E+03  0.00000000000E+00 0.  1.
<mgrwt>
<rscale>  0 0.26232613E+04</rscale>
<asrwt>0</asrwt>
<pdfrwt beam="1">  1        2 0.34765643E+00 0.26232613E+04</pdfrwt>
<pdfrwt beam="2">  1       -1 0.11712406E+00 0.26232613E+04</pdfrwt>
<totfact> 0.31505936E+00</totfact>
</mgrwt>
</event>
<event>
11    6  0.1663299E-008  0.1644029E+04  0.7818608E-02  0.8793947E-01
         -1   -1    0    0    0  501 -0.00000000000E+00  0.00000000000E+00  0.29325196676E+03  0.29325196676E+03  0.00000000000E+00 0.  1.
          2   -1    0    0  501    0  0.00000000000E+00 -0.00000000000E+00 -0.23041875867E+04  0.23041875867E+04  0.00000000000E+00 0. -1.
         24    2    1    2    0    0  0.31835818005E+03 -0.13937747491E+03  0.10888655982E+02  0.35661546327E+03  0.79233922659E+02 0.  0.
        254    2    1    2    0    0 -0.31835818005E+03  0.13937747491E+03 -0.20218242759E+04  0.22408240902E+04  0.90152159659E+03 0.  0.
         23    2    4    4    0    0 -0.50601325407E+03  0.32750489084E+03 -0.16858951216E+04  0.17927885355E+04  0.92409441802E+02 0.  0.
          2    1    3    3  502    0  0.38818216508E+02 -0.43264605832E+02 -0.14554697490E+02  0.59920941829E+02  0.00000000000E+00 0. -1.
         -1    1    3    3    0  502  0.27953996354E+03 -0.96112869079E+02  0.25443353472E+02  0.29669452145E+03  0.00000000000E+00 0.  1.
         11    1    4    4    0    0  0.18848381238E+03 -0.14075118799E+03 -0.32175665975E+03  0.39857796295E+03  0.00000000000E+00 0. -1.
        -11    1    4    4    0    0 -0.82873836215E+00 -0.47376227943E+02 -0.14172494515E+02  0.49457591755E+02  0.00000000000E+00 0.  1.
          4    1    5    5  503    0 -0.45341392311E+03  0.26234573861E+03 -0.13963057848E+04  0.14913347434E+04  0.00000000000E+00 0. -1.
         -4    1    5    5    0  503 -0.52599330956E+02  0.65159152231E+02 -0.28958933686E+03  0.30145379208E+03  0.00000000000E+00 0.  1.
<mgrwt>
<rscale>  0 0.16440286E+04</rscale>
<asrwt>0</asrwt>
<pdfrwt beam="1">  1        2 0.35449039E+00 0.16440286E+04</pdfrwt>
<pdfrwt beam="2">  1       -1 0.45115688E-01 0.16440286E+04</pdfrwt>
<totfact> 0.23942551E+01</totfact>
</mgrwt>
</event>
<event>
12    6  0.1663299E-008  0.1267822E+04  0.7818608E-02  0.9055479E-01
          2   -1    0    0  501    0  0.00000000000E+00  0.00000000000E+00  0.20934842969E+04  0.20934842969E+04  0.00000000000E+00 0. -1.
         -1   -1    0    0    0  501 -0.00000000000E+00 -0.00000000000E+00 -0.19194937928E+03  0.19194937928E+03  0.00000000000E+00 0.  1.
         24    2    1    2    0    0 -0.11152049172E+03  0.73016834507E+02  0.94723152862E+03  0.96000741248E+03  0.81230443858E+02 0.  0.
        254    2    1    2    0    0  0.11152049172E+03 -0.73016834507E+02  0.95430338894E+03  0.13254262637E+04  0.91010523789E+03 0.  0.
         23    2    4    4    0    0  0.33157380180E+03  0.24694296354E+03  0.20300006645E+03  0.47474428539E+03  0.11511340606E+03 0.  0.
         23    2    4    4    0    0 -0.22005331008E+03 -0.31995979804E+03  0.75130332250E+03  0.85068197826E+03  0.91681045482E+02 0.  0.
          2    1    3    3  502    0 -0.19342895999E+02  0.35045168509E+02  0.50936454514E+03  0.51093497757E+03  0.00000000000E+00 0. -1.
         -1    1    3    3    0  502 -0.92177595722E+02  0.37971665997E+02  0.43786698348E+03  0.44907243491E+03  0.00000000000E+00 0.  1.
         11    1    5    5    0    0  0.17826684235E+03  0.16195086115E+03  0.59196041304E+02  0.24801475725E+03  0.00000000000E+00 0. -1.
        -11    1    5    5    0    0  0.15330695945E+03  0.84992102388E+02  0.14380402514E+03  0.22672952814E+03  0.00000000000E+00 0.  1.
          1    1    6    6  503    0 -0.14732633624E+03 -0.24597494482E+03  0.62200477968E+03  0.68490778121E+03  0.00000000000E+00 0. -1.
         -1    1    6    6    0  503 -0.72726973838E+02 -0.73984853228E+02  0.12929854282E+03  0.16577419705E+03  0.00000000000E+00 0.  1.
<mgrwt>
<rscale>  0 0.12678218E+04</rscale>
<asrwt>0</asrwt>
<pdfrwt beam="1">  1        2 0.32207449E+00 0.12678218E+04</pdfrwt>
<pdfrwt beam="2">  1       -1 0.29530675E-01 0.12678218E+04</pdfrwt>
<totfact> 0.69662508E+01</totfact>
</mgrwt>
</event>
<event>
12    6  0.1663299E-008  0.3274690E+04  0.7818608E-02  0.8169366E-01
         -1   -1    0    0    0  501 -0.00000000000E+00  0.00000000000E+00  0.11329362029E+04  0.11329362029E+04  0.00000000000E+00 0.  1.
          2   -1    0    0  501    0  0.00000000000E+00 -0.00000000000E+00 -0.23663277431E+04  0.23663277431E+04  0.00000000000E+00 0. -1.
         24    2    1    2    0    0 -0.12417264405E+04 -0.74788699286E+03 -0.10692113885E+04  0.18031024527E+04  0.82133759019E+02 0.  0.
        254    2    1    2    0    0  0.12417264405E+04  0.74788699286E+03 -0.16418015164E+03  0.16961614933E+04  0.86532605529E+03 0.  0.
         23    2    4    4    0    0  0.83928165709E+03  0.26934067875E+03  0.27652872519E+03  0.92538061513E+03  0.54065199906E+02 0.  0.
         23    2    4    4    0    0  0.40244478344E+03  0.47854631411E+03 -0.44070887683E+03  0.77078087817E+03  0.94395283603E+02 0.  0.
          2    1    3    3  502    0 -0.59489157090E+03 -0.36774580719E+03 -0.56586643638E+03  0.89963202681E+03  0.00000000000E+00 0. -1.
         -3    1    3    3    0  502 -0.64683486962E+03 -0.38014118567E+03 -0.50334495216E+03  0.90347042589E+03  0.00000000000E+00 0.  1.
         11    1    5    5    0    0  0.56057453789E+02  0.30841348175E+02  0.27229892873E+02  0.69534839817E+02  0.00000000000E+00 0.  1.
        -11    1    5    5    0    0  0.78322420330E+03  0.23849933058E+03  0.24929883232E+03  0.85584577531E+03  0.00000000000E+00 0. -1.
          2    1    6    6  503    0  0.35247308035E+03  0.45847563509E+03 -0.39759845123E+03  0.70179890907E+03  0.00000000000E+00 0. -1.
         -2    1    6    6    0  503  0.49971703086E+02  0.20070679017E+02 -0.43110425601E+02  0.68981969101E+02  0.00000000000E+00 0.  1.
<mgrwt>
<rscale>  0 0.32746898E+04</rscale>
<asrwt>0</asrwt>
<pdfrwt beam="1">  1        2 0.36405042E+00 0.32746898E+04</pdfrwt>
<pdfrwt beam="2">  1       -1 0.17429788E+00 0.32746898E+04</pdfrwt>
<totfact> 0.90476197E-01</totfact>
</mgrwt>
</event>
<event>
11    6  0.1663299E-008  0.1904698E+04  0.7818608E-02  0.8652521E-01
          2   -1    0    0  501    0  0.00000000000E+00  0.00000000000E+00  0.12165084502E+04  0.12165084502E+04  0.00000000000E+00 0. -1.
         -1   -1    0    0    0  501 -0.00000000000E+00 -0.00000000000E+00 -0.74555065341E+03  0.74555065341E+03  0.00000000000E+00 0.  1.
         24    2    1    2    0    0 -0.29145777736E+03  0.21232343150E+03  0.85081225109E+03  0.92764389035E+03  0.81319278981E+02 0.  0.
        254    2    1    2    0    0  0.29145777736E+03 -0.21232343150E+03 -0.37985445428E+03  0.10344152133E+04  0.89201824617E+03 0.  0.
         23    2    4    4    0    0  0.43337325236E+03  0.14994328012E+03 -0.38447494187E+03  0.60552289540E+03  0.92420954406E+02 0.  0.
          4    1    3    3  502    0 -0.25215377000E+03  0.21317596338E+03  0.76810549806E+03  0.83606911870E+03  0.00000000000E+00 0. -1.
         -3    1    3    3    0  502 -0.39304007363E+02 -0.85253187258E+00  0.82706753029E+02  0.91574771646E+02  0.00000000000E+00 0.  1.
         11    1    4    4    0    0 -0.25474172016E+02  0.13841285205E+02  0.19418230455E+02  0.34893871812E+02  0.00000000000E+00 0. -1.
        -11    1    4    4    0    0 -0.11644130298E+03 -0.37610799682E+03 -0.14797742856E+02  0.39399844607E+03  0.00000000000E+00 0.  1.
          4    1    5    5  503    0  0.10674652869E+02 -0.95571631196E+01 -0.22200384851E+02  0.26422427373E+02  0.00000000000E+00 0. -1.
         -4    1    5    5    0  503  0.42269859949E+03  0.15950044324E+03 -0.36227455702E+03  0.57910046803E+03  0.00000000000E+00 0.  1.
<mgrwt>
<rscale>  0 0.19046981E+04</rscale>
<asrwt>0</asrwt>
<pdfrwt beam="1">  1        2 0.18715515E+00 0.19046981E+04</pdfrwt>
<pdfrwt beam="2">  1       -1 0.11470010E+00 0.19046981E+04</pdfrwt>
<totfact> 0.13652963E+01</totfact>
</mgrwt>
</event>
<event>
12    6  0.1663299E-008  0.1657298E+04  0.7818608E-02  0.8786101E-01
          2   -1    0    0  501    0  0.00000000000E+00  0.00000000000E+00  0.80153630209E+03  0.80153630209E+03  0.00000000000E+00 0. -1.
         -1   -1    0    0    0  501 -0.00000000000E+00 -0.00000000000E+00 -0.85667898591E+03  0.85667898591E+03  0.00000000000E+00 0.  1.
         24    2    1    2    0    0  0.19816965896E+03  0.24603936144E+03 -0.50641441863E+03  0.60223478703E+03  0.80153566371E+02 0.  0.
        254    2    1    2    0    0 -0.19816965896E+03 -0.24603936144E+03  0.45127173481E+03  0.10559805010E+04  0.90091179294E+03 0.  0.
         23    2    4    4    0    0  0.12297518086E+03 -0.17220901273E+03  0.63114171253E+03  0.66982379286E+03  0.74466186977E+02 0.  0.
         23    2    4    4    0    0 -0.32114483982E+03 -0.73830348713E+02 -0.17986997772E+03  0.38615670810E+03  0.90437081975E+02 0.  0.
          4    1    3    3  502    0  0.87075393390E+02  0.61721557533E+02 -0.21426162529E+03  0.23937359686E+03  0.00000000000E+00 0. -1.
         -3    1    3    3    0  502  0.11109426557E+03  0.18431780391E+03 -0.29215279334E+03  0.36286119018E+03  0.00000000000E+00 0.  1.
         11    1    5    5    0    0  0.10300333282E+03 -0.11612158217E+03  0.35689365243E+03  0.38918759944E+03  0.00000000000E+00 0.  1.
        -11    1    5    5    0    0  0.19971848038E+02 -0.56087430564E+02  0.27424806011E+03  0.28063619341E+03  0.00000000000E+00 0. -1.
          3    1    6    6  503    0 -0.71487499588E+02 -0.19089189483E+02 -0.87021655035E+02  0.11422621502E+03  0.00000000000E+00 0. -1.
         -3    1    6    6    0  503 -0.24965734023E+03 -0.54741159230E+02 -0.92848322687E+02  0.27193049309E+03  0.00000000000E+00 0.  1.
<mgrwt>
<rscale>  0 0.16572982E+04</rscale>
<asrwt>0</asrwt>
<pdfrwt beam="1">  1        2 0.12331328E+00 0.16572982E+04</pdfrwt>
<pdfrwt beam="2">  1       -1 0.13179677E+00 0.16572982E+04</pdfrwt>
<totfact> 0.18344835E+01</totfact>
</mgrwt>
</event>
<event>
12    6  0.1663299E-008  0.2745282E+04  0.7818608E-02  0.8320460E-01
         -1   -1    0    0    0  501 -0.00000000000E+00  0.00000000000E+00  0.46009189073E+03  0.46009189073E+03  0.00000000000E+00 0.  1.
          2   -1    0    0  501    0  0.00000000000E+00 -0.00000000000E+00 -0.40951450324E+04  0.40951450324E+04  0.00000000000E+00 0. -1.
         24    2    1    2    0    0  0.41241031391E+03  0.10717947938E+04 -0.23197545214E+04  0.25896509352E+04  0.78769152994E+02 0.  0.
        254    2    1    2    0    0 -0.41241031391E+03 -0.10717947938E+04 -0.13152986203E+04  0.19655859879E+04  0.90260260824E+03 0.  0.
         23    2    4    4    0    0 -0.47982021396E+03 -0.82686941093E+03 -0.45247589536E+03  0.10605456843E+04  0.77988795421E+02 0.  0.
         23    2    4    4    0    0  0.67409900052E+02 -0.24492538291E+03 -0.86282272491E+03  0.90504030361E+03  0.10051049065E+03 0.  0.
          4    1    3    3  502    0  0.16760452230E+02  0.99867026946E+02 -0.22576621777E+03  0.24743629669E+03  0.00000000000E+00 0. -1.
         -3    1    3    3    0  502  0.39564986168E+03  0.97192776690E+03 -0.20939883036E+04  0.23422146385E+04  0.00000000000E+00 0.  1.
         11    1    5    5    0    0 -0.10178206706E+03 -0.24178697468E+03 -0.11296238089E+03  0.28562393071E+03  0.00000000000E+00 0. -1.
        -11    1    5    5    0    0 -0.37803814689E+03 -0.58508243625E+03 -0.33951351447E+03  0.77492175362E+03  0.00000000000E+00 0.  1.
          2    1    6    6  503    0  0.93594423369E+02 -0.20139366300E+03 -0.68466774106E+03  0.71978416156E+03  0.00000000000E+00 0.  1.
         -2    1    6    6    0  503 -0.26184523317E+02 -0.43531719907E+02 -0.17815498385E+03  0.18525614206E+03  0.00000000000E+00 0. -1.
<mgrwt>
<rscale>  0 0.27452818E+04</rscale>
<asrwt>0</asrwt>
<pdfrwt beam="1">  1        2 0.63002233E+00 0.27452818E+04</pdfrwt>
<pdfrwt beam="2">  1       -1 0.70783366E-01 0.27452818E+04</pdfrwt>
<totfact> 0.57307390E-01</totfact>
</mgrwt>
</event>
<event>
12    6  0.1663299E-008  0.1337769E+04  0.7818608E-02  0.9000139E-01
          2   -1    0    0  501    0  0.00000000000E+00  0.00000000000E+00  0.11371816878E+04  0.11371816878E+04  0.00000000000E+00 0. -1.
         -1   -1    0    0    0  501 -0.00000000000E+00 -0.00000000000E+00 -0.39343448092E+03  0.39343448092E+03  0.00000000000E+00 0.  1.
         24    2    1    2    0    0 -0.13984021111E+03 -0.33097348969E+03  0.13187669208E+03  0.39072228956E+03  0.78572960548E+02 0.  0.
        254    2    1    2    0    0  0.13984021111E+03  0.33097348969E+03  0.61187051486E+03  0.11398938792E+04  0.89211758943E+03 0.  0.
         23    2    4    4    0    0  0.17545510491E+03  0.45659575721E+03  0.77022559658E+03  0.91475657229E+03  0.65329454136E+02 0.  0.
         23    2    4    4    0    0 -0.35614893805E+02 -0.12562226752E+03 -0.15835508172E+03  0.22513730691E+03  0.92526214108E+02 0.  0.
          4    1    3    3  502    0 -0.22391734372E+02 -0.83429401683E+02  0.66561444552E+02  0.10905173421E+03  0.00000000000E+00 0. -1.
         -3    1    3    3    0  502 -0.11744847673E+03 -0.24754408801E+03  0.65315247526E+02  0.28167055535E+03  0.00000000000E+00 0.  1.
         11    1    5    5    0    0  0.11236746229E+03  0.30214492659E+03  0.56252521168E+03  0.64834606270E+03  0.00000000000E+00 0. -1.
        -11    1    5    5    0    0  0.63087642621E+02  0.15445083062E+03  0.20770038490E+03  0.26641050959E+03  0.00000000000E+00 0.  1.
          1    1    6    6  503    0 -0.11955864795E+02 -0.77242296487E+02 -0.15198642085E+03  0.17090695478E+03  0.00000000000E+00 0. -1.
         -1    1    6    6    0  503 -0.23659029011E+02 -0.48379971036E+02 -0.63686608769E+01  0.54230352133E+02  0.00000000000E+00 0.  1.
<mgrwt>
<rscale>  0 0.13377690E+04</rscale>
<asrwt>0</asrwt>
<pdfrwt beam="1">  1        2 0.17495103E+00 0.13377690E+04</pdfrwt>
<pdfrwt beam="2">  1       -1 0.60528382E-01 0.13377690E+04</pdfrwt>
<totfact> 0.63784016E+01</totfact>
</mgrwt>
</event>
<event>
12    6  0.1663299E-008  0.1886260E+04  0.7818608E-02  0.8661726E-01
          2   -1    0    0  501    0  0.00000000000E+00  0.00000000000E+00  0.25515340029E+04  0.25515340029E+04  0.00000000000E+00 0. -1.
         -1   -1    0    0    0  501 -0.00000000000E+00 -0.00000000000E+00 -0.34861146800E+03  0.34861146800E+03  0.00000000000E+00 0.  1.
         24    2    1    2    0    0 -0.18083036304E+03  0.17874075683E+03  0.18938747626E+04  0.19125646314E+04  0.80585199304E+02 0.  0.
        254    2    1    2    0    0  0.18083036304E+03 -0.17874075683E+03  0.30904777227E+03  0.98758083951E+03  0.90286073715E+03 0.  0.
         23    2    4    4    0    0  0.14439145956E+02  0.25024405328E+03  0.42953079359E+03  0.50300912683E+03  0.75438079858E+02 0.  0.
         23    2    4    4    0    0  0.16639121708E+03 -0.42898481011E+03 -0.12048302132E+03  0.48457171268E+03  0.92626032371E+02 0.  0.
          2    1    3    3  502    0 -0.18840160403E+03  0.17171339794E+03  0.18505942055E+04  0.18680684058E+04  0.00000000000E+00 0. -1.
         -1    1    3    3    0  502  0.75712409917E+01  0.70273588859E+01  0.43280557175E+02  0.44496225598E+02  0.00000000000E+00 0.  1.
         11    1    5    5    0    0  0.24239991477E+02  0.14281883792E+03  0.30891047506E+03  0.34118979946E+03  0.00000000000E+00 0.  1.
        -11    1    5    5    0    0 -0.98008455215E+01  0.10742521537E+03  0.12062031853E+03  0.16181932737E+03  0.00000000000E+00 0. -1.
          3    1    6    6  503    0  0.75899665795E+02 -0.15695356085E+03 -0.19681363936E+01  0.17435324228E+03  0.00000000000E+00 0. -1.
         -3    1    6    6    0  503  0.90491551286E+02 -0.27203124926E+03 -0.11851488493E+03  0.31021847040E+03  0.00000000000E+00 0.  1.
<mgrwt>
<rscale>  0 0.18862598E+04</rscale>
<asrwt>0</asrwt>
<pdfrwt beam="1">  1        2 0.39254368E+00 0.18862598E+04</pdfrwt>
<pdfrwt beam="2">  1       -1 0.53632535E-01 0.18862598E+04</pdfrwt>
<totfact> 0.12178649E+01</totfact>
</mgrwt>
</event>
<event>
11    6  0.1663299E-008  0.1996654E+04  0.7818608E-02  0.8608186E-01
         -1   -1    0    0    0  501 -0.00000000000E+00  0.00000000000E+00  0.36449559221E+03  0.36449559221E+03  0.00000000000E+00 0.  1.
          2   -1    0    0  501    0  0.00000000000E+00 -0.00000000000E+00 -0.27343465208E+04  0.27343465208E+04  0.00000000000E+00 0. -1.
         24    2    1    2    0    0 -0.75340979784E+03 -0.35141195007E+02 -0.12162763867E+04  0.14333446105E+04  0.79292473665E+02 0.  0.
        254    2    1    2    0    0  0.75340979784E+03  0.35141195007E+02 -0.11535745419E+04  0.16654975025E+04  0.93503287658E+03 0.  0.
         23    2    4    4    0    0  0.36132594684E+03  0.42189186308E+03 -0.85720458016E+03  0.10255953678E+04  0.92179076645E+02 0.  0.
          2    1    3    3  502    0 -0.72727807040E+03 -0.35593565420E+02 -0.11961883828E+04  0.14003809984E+04  0.00000000000E+00 0. -1.
         -1    1    3    3    0  502 -0.26131727440E+02  0.45237041339E+00 -0.20088003950E+02  0.32963612069E+02  0.00000000000E+00 0.  1.
         11    1    4    4    0    0  0.24833453392E+03 -0.32887984969E+03 -0.21968528942E+03  0.46700494929E+03  0.00000000000E+00 0. -1.
        -11    1    4    4    0    0  0.14374931708E+03 -0.57870818385E+02 -0.76684672275E+02  0.17289718547E+03  0.00000000000E+00 0.  1.
          3    1    5    5  503    0  0.21554498313E+03  0.31671908547E+03 -0.57050266822E+03  0.68720005334E+03  0.00000000000E+00 0. -1.
         -3    1    5    5    0  503  0.14578096370E+03  0.10517277761E+03 -0.28670191194E+03  0.33839531444E+03  0.00000000000E+00 0.  1.
<mgrwt>
<rscale>  0 0.19966545E+04</rscale>
<asrwt>0</asrwt>
<pdfrwt beam="1">  1        2 0.42066869E+00 0.19966545E+04</pdfrwt>
<pdfrwt beam="2">  1       -1 0.56076246E-01 0.19966545E+04</pdfrwt>
<totfact> 0.86312190E+00</totfact>
</mgrwt>
</event>
<event>
12    6  0.1663299E-008  0.1170608E+04  0.7818608E-02  0.9138980E-01
          2   -1    0    0  501    0  0.00000000000E+00  0.00000000000E+00  0.97678853102E+03  0.97678853102E+03  0.00000000000E+00 0. -1.
         -1   -1    0    0    0  501 -0.00000000000E+00 -0.00000000000E+00 -0.35072147915E+03  0.35072147915E+03  0.00000000000E+00 0.  1.
         24    2    1    2    0    0 -0.13303154939E+03 -0.34653683790E+02  0.33053601999E+03  0.36662234602E+03  0.79117717115E+02 0.  0.
        254    2    1    2    0    0  0.13303154939E+03  0.34653683790E+02  0.29553103189E+03  0.96088766415E+03  0.90391827140E+03 0.  0.
         23    2    4    4    0    0 -0.21736172465E+03  0.19102186488E+03 -0.16903100223E+03  0.35107838925E+03  0.10463786828E+03 0.  0.
         23    2    4    4    0    0  0.35039327404E+03 -0.15636818109E+03  0.46456203412E+03  0.60980927489E+03  0.93930898259E+02 0.  0.
          2    1    3    3  502    0 -0.46918139269E+02 -0.19794781054E+02  0.21946911572E+03  0.22529944053E+03  0.00000000000E+00 0. -1.
         -1    1    3    3    0  502 -0.86113410117E+02 -0.14858902737E+02  0.11106690427E+03  0.14132290549E+03  0.00000000000E+00 0.  1.
         11    1    5    5    0    0 -0.11253194187E+01  0.36846465376E+02 -0.44423143233E+02  0.57726458485E+02  0.00000000000E+00 0.  1.
        -11    1    5    5    0    0 -0.21623640523E+03  0.15417539951E+03 -0.12460785900E+03  0.29335193077E+03  0.00000000000E+00 0. -1.
          1    1    6    6  503    0  0.33485900618E+03 -0.13492353511E+03  0.39372951859E+03  0.53418896297E+03  0.00000000000E+00 0. -1.
         -1    1    6    6    0  503  0.15534267858E+02 -0.21444645980E+02  0.70832515530E+02  0.75620311924E+02  0.00000000000E+00 0.  1.
<mgrwt>
<rscale>  0 0.11706079E+04</rscale>
<asrwt>0</asrwt>
<pdfrwt beam="1">  1        2 0.15027516E+00 0.11706079E+04</pdfrwt>
<pdfrwt beam="2">  1       -1 0.53957151E-01 0.11706079E+04</pdfrwt>
<totfact> 0.10194546E+02</totfact>
</mgrwt>
</event>
<event>
12    6  0.1663299E-008  0.1446767E+04  0.7818608E-02  0.8920645E-01
         -1   -1    0    0    0  501 -0.00000000000E+00  0.00000000000E+00  0.10628911554E+04  0.10628911554E+04  0.00000000000E+00 0.  1.
          2   -1    0    0  501    0  0.00000000000E+00 -0.00000000000E+00 -0.49232093685E+03  0.49232093685E+03  0.00000000000E+00 0. -1.
         24    2    1    2    0    0 -0.32491233937E+03 -0.17882015304E+03  0.42718774477E+03  0.57027974387E+03  0.72006538402E+02 0.  0.
        254    2    1    2    0    0  0.32491233937E+03  0.17882015304E+03  0.14338247379E+03  0.98493234840E+03  0.90110405710E+03 0.  0.
         23    2    4    4    0    0  0.22369683174E+03 -0.34806568165E+03  0.13139725780E+03  0.44074006312E+03  0.76135225824E+02 0.  0.
         23    2    4    4    0    0  0.10121550763E+03  0.52688583469E+03  0.11985215984E+02  0.54419228527E+03  0.90268134835E+02 0.  0.
          2    1    3    3  502    0 -0.17844464409E+03 -0.13678304045E+03  0.23903529580E+03  0.32816149042E+03  0.00000000000E+00 0. -1.
         -1    1    3    3    0  502 -0.14646769528E+03 -0.42037112590E+02  0.18815244897E+03  0.24211825344E+03  0.00000000000E+00 0.  1.
         11    1    5    5    0    0  0.19394943460E+03 -0.30468278524E+03  0.14015036380E+03  0.38741464515E+03  0.00000000000E+00 0.  1.
        -11    1    5    5    0    0  0.29747397143E+02 -0.43382896407E+02 -0.87531059969E+01  0.53325417973E+02  0.00000000000E+00 0. -1.
          4    1    6    6  503    0 -0.36704093779E+01  0.11725801893E+03  0.29567624152E+02  0.12098412833E+03  0.00000000000E+00 0. -1.
         -4    1    6    6    0  503  0.10488591701E+03  0.40962781576E+03 -0.17582408169E+02  0.42320815695E+03  0.00000000000E+00 0.  1.
<mgrwt>
<rscale>  0 0.14467668E+04</rscale>
<asrwt>0</asrwt>
<pdfrwt beam="1">  1        2 0.75741683E-01 0.14467668E+04</pdfrwt>
<pdfrwt beam="2">  1       -1 0.16352172E+00 0.14467668E+04</pdfrwt>
<totfact> 0.19116064E+01</totfact>
</mgrwt>
</event>
<event>
12    6  0.1663299E-008  0.1494872E+04  0.7818608E-02  0.8887870E-01
         -1   -1    0    0    0  501 -0.00000000000E+00  0.00000000000E+00  0.12564010344E+04  0.12564010344E+04  0.00000000000E+00 0.  1.
          2   -1    0    0  501    0  0.00000000000E+00 -0.00000000000E+00 -0.44465163069E+03  0.44465163069E+03  0.00000000000E+00 0. -1.
         24    2    1    2    0    0 -0.38165869960E+03 -0.96179341140E+02  0.56412998096E+03  0.69255021603E+03  0.80432192906E+02 0.  0.
        254    2    1    2    0    0  0.38165869960E+03  0.96179341140E+02  0.24761942275E+03  0.10085024491E+04  0.89490110213E+03 0.  0.
         23    2    4    4    0    0  0.38892696845E+03  0.73924220652E+02  0.55287058760E+03  0.69140222732E+03  0.12506868565E+03 0.  0.
         23    2    4    4    0    0 -0.72682688453E+01  0.22255120488E+02 -0.30525116485E+03  0.31710022173E+03  0.82620571653E+02 0.  0.
          4    1    3    3  502    0 -0.70446397902E+02  0.13155778747E+02  0.92467227278E+02  0.11698699762E+03  0.00000000000E+00 0. -1.
         -3    1    3    3    0  502 -0.31121230170E+03 -0.10933511989E+03  0.47166275369E+03  0.57556321841E+03  0.00000000000E+00 0.  1.
         11    1    5    5    0    0  0.31514679690E+03  0.91964504097E+02  0.37744450528E+03  0.50023927093E+03  0.00000000000E+00 0. -1.
        -11    1    5    5    0    0  0.73780171544E+02 -0.18040283444E+02  0.17542608232E+03  0.19116295640E+03  0.00000000000E+00 0.  1.
          3    1    6    6  503    0 -0.29218403466E+02  0.40448555575E+02 -0.24995755066E+03  0.25488934438E+03  0.00000000000E+00 0. -1.
         -3    1    6    6    0  503  0.21950134620E+02 -0.18193435087E+02 -0.55293614194E+02  0.62210877351E+02  0.00000000000E+00 0.  1.
<mgrwt>
<rscale>  0 0.14948723E+04</rscale>
<asrwt>0</asrwt>
<pdfrwt beam="1">  1        2 0.68407944E-01 0.14948723E+04</pdfrwt>
<pdfrwt beam="2">  1       -1 0.19329247E+00 0.14948723E+04</pdfrwt>
<totfact> 0.13057348E+01</totfact>
</mgrwt>
</event>
<event>
11    6  0.1663299E-008  0.1460229E+04  0.7818608E-02  0.8911340E-01
         -1   -1    0    0    0  501 -0.00000000000E+00  0.00000000000E+00  0.67591967572E+03  0.67591967572E+03  0.00000000000E+00 0.  1.
          2   -1    0    0  501    0  0.00000000000E+00 -0.00000000000E+00 -0.78865431263E+03  0.78865431263E+03  0.00000000000E+00 0. -1.
         24    2    1    2    0    0 -0.38685602574E+03  0.36531273287E+02 -0.25517527253E+03  0.47199562629E+03  0.81690470327E+02 0.  0.
        254    2    1    2    0    0  0.38685602574E+03 -0.36531273287E+02  0.14244063563E+03  0.99257836206E+03  0.90218088628E+03 0.  0.
         23    2    4    4    0    0  0.26661083444E+03 -0.38039706572E+03  0.21335547814E+03  0.51893700381E+03  0.89396807695E+02 0.  0.
          4    1    3    3  502    0 -0.58390826416E+02  0.11505072820E+02 -0.77509358745E+02  0.97721829717E+02  0.00000000000E+00 0. -1.
         -3    1    3    3    0  502 -0.32846519932E+03  0.25026200467E+02 -0.17766591379E+03  0.37427379657E+03  0.00000000000E+00 0.  1.
         11    1    4    4    0    0  0.20088802605E+03  0.24490801259E+03  0.19268112241E+02  0.31734396763E+03  0.00000000000E+00 0.  1.
        -11    1    4    4    0    0 -0.80642834749E+02  0.98957779842E+02 -0.90182954753E+02  0.15629739062E+03  0.00000000000E+00 0. -1.
          4    1    5    5  503    0  0.46337230695E+02 -0.78688152171E+02  0.82656081653E+02  0.12317058121E+03  0.00000000000E+00 0. -1.
         -4    1    5    5    0  503  0.22027360374E+03 -0.30170891355E+03  0.13069939649E+03  0.39576642260E+03  0.00000000000E+00 0.  1.
<mgrwt>
<rscale>  0 0.14602287E+04</rscale>
<asrwt>0</asrwt>
<pdfrwt beam="1">  1        2 0.12133143E+00 0.14602287E+04</pdfrwt>
<pdfrwt beam="2">  1       -1 0.10398764E+00 0.14602287E+04</pdfrwt>
<totfact> 0.33836813E+01</totfact>
</mgrwt>
</event>
<event>
12    6  0.1663299E-008  0.1454511E+04  0.7818608E-02  0.8915279E-01
          2   -1    0    0  501    0  0.00000000000E+00  0.00000000000E+00  0.90266194846E+03  0.90266194846E+03  0.00000000000E+00 0. -1.
         -1   -1    0    0    0  501 -0.00000000000E+00 -0.00000000000E+00 -0.58593403535E+03  0.58593403535E+03  0.00000000000E+00 0.  1.
         24    2    1    2    0    0  0.20512999345E+03  0.35683449091E+03  0.27257414722E+03  0.49982134963E+03  0.78201967356E+02 0.  0.
        254    2    1    2    0    0 -0.20512999345E+03 -0.35683449091E+03  0.44153765880E+02  0.98877463418E+03  0.89795130939E+03 0.  0.
         23    2    4    4    0    0 -0.23124326888E+02  0.28880509250E+00  0.41802158109E+03  0.43319793131E+03  0.11128156868E+03 0.  0.
         23    2    4    4    0    0 -0.18200566657E+03 -0.35712329600E+03 -0.37386781521E+03  0.55557670287E+03  0.90692989340E+02 0.  0.
          4    1    3    3  502    0  0.17194430257E+03  0.23143870919E+03  0.20311807874E+03  0.35268353123E+03  0.00000000000E+00 0. -1.
         -3    1    3    3    0  502  0.33185690888E+02  0.12539578172E+03  0.69456068486E+02  0.14713781840E+03  0.00000000000E+00 0.  1.
         11    1    5    5    0    0  0.24239691391E+02  0.42364789409E+02  0.14787827173E+03  0.15572514655E+03  0.00000000000E+00 0. -1.
        -11    1    5    5    0    0 -0.47364018279E+02 -0.42075984317E+02  0.27014330937E+03  0.27747278475E+03  0.00000000000E+00 0.  1.
          2    1    6    6  503    0 -0.17552201184E+03 -0.36184748478E+03 -0.37068845331E+03  0.54694744565E+03  0.00000000000E+00 0. -1.
         -2    1    6    6    0  503 -0.64836547223E+01  0.47241887778E+01 -0.31793619005E+01  0.86292572253E+01  0.00000000000E+00 0.  1.
<mgrwt>
<rscale>  0 0.14545107E+04</rscale>
<asrwt>0</asrwt>
<pdfrwt beam="1">  1        2 0.13887107E+00 0.14545107E+04</pdfrwt>
<pdfrwt beam="2">  1       -1 0.90143698E-01 0.14545107E+04</pdfrwt>
<totfact> 0.38901235E+01</totfact>
</mgrwt>
</event>
<event>
12    6  0.1663299E-008  0.1814485E+04  0.7818608E-02  0.8698634E-01
          2   -1    0    0  501    0  0.00000000000E+00  0.00000000000E+00  0.91546632846E+03  0.91546632846E+03  0.00000000000E+00 0. -1.
         -1   -1    0    0    0  501 -0.00000000000E+00 -0.00000000000E+00 -0.89909273896E+03  0.89909273896E+03  0.00000000000E+00 0.  1.
         24    2    1    2    0    0 -0.10243435776E+03  0.97559096635E+01 -0.66774157730E+03  0.68033553628E+03  0.79935301591E+02 0.  0.
        254    2    1    2    0    0  0.10243435776E+03 -0.97559096635E+01  0.68411516681E+03  0.11342235311E+04  0.89881114909E+03 0.  0.
         23    2    4    4    0    0  0.21706958413E+03  0.18437773453E+02  0.86539410106E+03  0.89954009314E+03  0.11316480534E+03 0.  0.
         23    2    4    4    0    0 -0.11463522638E+03 -0.28193683117E+02 -0.18127893425E+03  0.23468343801E+03  0.90984312827E+02 0.  0.
          4    1    3    3  502    0 -0.80733215255E+00 -0.22982903093E+02 -0.96592580311E+02  0.99292457876E+02  0.00000000000E+00 0. -1.
         -3    1    3    3    0  502 -0.10162702561E+03  0.32738812757E+02 -0.57114899699E+03  0.58104307840E+03  0.00000000000E+00 0.  1.
         11    1    5    5    0    0  0.16379889461E+03 -0.26853162819E+02  0.70992496816E+03  0.72907107380E+03  0.00000000000E+00 0.  1.
        -11    1    5    5    0    0  0.53270689520E+02  0.45290936273E+02  0.15546913289E+03  0.17046901933E+03  0.00000000000E+00 0. -1.
          3    1    6    6  503    0 -0.27575892500E+02  0.25770179148E+02 -0.17711903494E+02  0.41692247551E+02  0.00000000000E+00 0. -1.
         -3    1    6    6    0  503 -0.87059333876E+02 -0.53963862264E+02 -0.16356703075E+03  0.19299119046E+03  0.00000000000E+00 0.  1.
<mgrwt>
<rscale>  0 0.18144852E+04</rscale>
<asrwt>0</asrwt>
<pdfrwt beam="1">  1        2 0.14084097E+00 0.18144852E+04</pdfrwt>
<pdfrwt beam="2">  1       -1 0.13832196E+00 0.18144852E+04</pdfrwt>
<totfact> 0.13325587E+01</totfact>
</mgrwt>
</event>
<event>
12    6  0.1663299E-008  0.2403428E+04  0.7818608E-02  0.8438221E-01
          2   -1    0    0  501    0  0.00000000000E+00  0.00000000000E+00  0.95850660936E+03  0.95850660936E+03  0.00000000000E+00 0. -1.
         -1   -1    0    0    0  501 -0.00000000000E+00 -0.00000000000E+00 -0.15066313447E+04  0.15066313447E+04  0.00000000000E+00 0.  1.
         24    2    1    2    0    0 -0.34644507113E+03 -0.28651255716E+03 -0.11932640773E+04  0.12775750104E+04  0.78772560010E+02 0.  0.
        254    2    1    2    0    0  0.34644507113E+03  0.28651255716E+03  0.64513934199E+03  0.11875629437E+04  0.88993670665E+03 0.  0.
         23    2    4    4    0    0  0.59806355986E+03  0.38083180477E+03  0.45128537024E+03  0.84374714141E+03  0.74416853519E+02 0.  0.
         23    2    4    4    0    0 -0.25161848873E+03 -0.94319247617E+02  0.19385397176E+03  0.34381580225E+03  0.91771232804E+02 0.  0.
          4    1    3    3  502    0 -0.26325963840E+01 -0.22778851974E+02 -0.68083783877E+02  0.71841549872E+02  0.00000000000E+00 0. -1.
         -3    1    3    3    0  502 -0.34381247475E+03 -0.26373370518E+03 -0.11251802934E+04  0.12057334605E+04  0.00000000000E+00 0.  1.
         11    1    5    5    0    0  0.45383624470E+03  0.29266752696E+03  0.30500042647E+03  0.62019906360E+03  0.00000000000E+00 0. -1.
        -11    1    5    5    0    0  0.14422731516E+03  0.88164277812E+02  0.14628494377E+03  0.22354807782E+03  0.00000000000E+00 0.  1.
          4    1    6    6  503    0  0.79429368024E+00 -0.48723069719E+01  0.28850738705E+02  0.29270042732E+02  0.00000000000E+00 0.  1.
         -4    1    6    6    0  503 -0.25241278241E+03 -0.89446940645E+02  0.16500323305E+03  0.31454575952E+03  0.00000000000E+00 0. -1.
<mgrwt>
<rscale>  0 0.24034276E+04</rscale>
<asrwt>0</asrwt>
<pdfrwt beam="1">  1        2 0.14746256E+00 0.24034276E+04</pdfrwt>
<pdfrwt beam="2">  1       -1 0.23178944E+00 0.24034276E+04</pdfrwt>
<totfact> 0.25234242E+00</totfact>
</mgrwt>
</event>
<event>
11    6  0.1663299E-008  0.1574698E+04  0.7818608E-02  0.8836244E-01
         -3   -1    0    0    0  501 -0.00000000000E+00  0.00000000000E+00  0.33674527007E+03  0.33674527007E+03  0.00000000000E+00 0.  1.
          2   -1    0    0  501    0  0.00000000000E+00 -0.00000000000E+00 -0.18409129558E+04  0.18409129558E+04  0.00000000000E+00 0. -1.
         24    2    1    2    0    0 -0.28759693857E+02  0.34457604741E+03 -0.10598854516E+04  0.11178921129E+04  0.82254684912E+02 0.  0.
        254    2    1    2    0    0  0.28759693857E+02 -0.34457604741E+03 -0.44428223413E+03  0.10597661129E+04  0.89786287268E+03 0.  0.
         23    2    4    4    0    0 -0.23406219642E+03  0.21499598926E+03 -0.16812633289E+03  0.36944777752E+03  0.84951805860E+02 0.  0.
          4    1    3    3  502    0 -0.21001035401E+02  0.34673188202E+03 -0.10351532541E+04  0.10918819995E+04  0.00000000000E+00 0. -1.
         -3    1    3    3    0  502 -0.77586584561E+01 -0.21558346128E+01 -0.24732197522E+02  0.26010113383E+02  0.00000000000E+00 0.  1.
         11    1    4    4    0    0  0.24849388026E+03 -0.56405659132E+03 -0.26219659414E+03  0.66981796088E+03  0.00000000000E+00 0.  1.
        -11    1    4    4    0    0  0.14328010009E+02  0.44845546569E+01 -0.13959307107E+02  0.20500374538E+02  0.00000000000E+00 0. -1.
          1    1    5    5  503    0 -0.53285076594E+02  0.67879368362E+02 -0.87310318849E+02  0.12275992756E+03  0.00000000000E+00 0. -1.
         -1    1    5    5    0  503 -0.18077711982E+03  0.14711662089E+03 -0.80816014037E+02  0.24668784996E+03  0.00000000000E+00 0.  1.
<mgrwt>
<rscale>  0 0.15746984E+04</rscale>
<asrwt>0</asrwt>
<pdfrwt beam="1">  1        2 0.28321738E+00 0.15746984E+04</pdfrwt>
<pdfrwt beam="2">  1       -3 0.51806965E-01 0.15746984E+04</pdfrwt>
<totfact> 0.18623105E+01</totfact>
</mgrwt>
</event>
<event>
11    6  0.1663299E-008  0.2423931E+04  0.7818608E-02  0.8430598E-01
         -1   -1    0    0    0  501 -0.00000000000E+00  0.00000000000E+00  0.74371446241E+03  0.74371446241E+03  0.00000000000E+00 0.  1.
          2   -1    0    0  501    0  0.00000000000E+00 -0.00000000000E+00 -0.19750323680E+04  0.19750323680E+04  0.00000000000E+00 0. -1.
         24    2    1    2    0    0 -0.88390261590E+03  0.46592352808E+02 -0.11420126652E+04  0.14468562665E+04  0.75798724682E+02 0.  0.
        254    2    1    2    0    0  0.88390261590E+03 -0.46592352808E+02 -0.89305240393E+02  0.12718905639E+04  0.90899697410E+03 0.  0.
         23    2    4    4    0    0  0.88736879957E+03  0.14749106415E+03 -0.30430294789E+03  0.95399905720E+03  0.91306717131E+02 0.  0.
          2    1    3    3  502    0 -0.84383054588E+03  0.58291892072E+02 -0.11002976647E+04  0.13878410881E+04  0.00000000000E+00 0. -1.
         -1    1    3    3    0  502 -0.40072070014E+02 -0.11699539264E+02 -0.41715000480E+02  0.59015178381E+02  0.00000000000E+00 0.  1.
         11    1    4    4    0    0  0.23603306297E+02  0.12625886277E+01  0.67799895711E+02  0.71802061646E+02  0.00000000000E+00 0.  1.
        -11    1    4    4    0    0 -0.27069489971E+02 -0.19534600559E+03  0.14719781178E+03  0.24608944508E+03  0.00000000000E+00 0. -1.
          3    1    5    5  503    0  0.76113322499E+03  0.15831282326E+03 -0.25841783048E+03  0.81924752749E+03  0.00000000000E+00 0. -1.
         -3    1    5    5    0  503  0.12623557458E+03 -0.10821759104E+02 -0.45885117409E+02  0.13475152971E+03  0.00000000000E+00 0.  1.
<mgrwt>
<rscale>  0 0.24239308E+04</rscale>
<asrwt>0</asrwt>
<pdfrwt beam="1">  1        2 0.30385114E+00 0.24239308E+04</pdfrwt>
<pdfrwt beam="2">  1       -1 0.11441761E+00 0.24239308E+04</pdfrwt>
<totfact> 0.48950920E+00</totfact>
</mgrwt>
</event>
<event>
11    6  0.1663299E-008  0.1219437E+04  0.7818608E-02  0.9096012E-01
         -1   -1    0    0    0  501 -0.00000000000E+00  0.00000000000E+00  0.93023182191E+02  0.93023182191E+02  0.00000000000E+00 0.  1.
          2   -1    0    0  501    0  0.00000000000E+00 -0.00000000000E+00 -0.39963838784E+04  0.39963838784E+04  0.00000000000E+00 0. -1.
         24    2    1    2    0    0  0.33658291373E+02 -0.85520635651E+02 -0.54909109768E+02  0.13348716415E+03  0.79731756268E+02 0.  0.
        254    2    1    2    0    0 -0.33658291373E+02  0.85520635651E+02 -0.38484515864E+04  0.39559198964E+04  0.91119479485E+03 0.  0.
         23    2    4    4    0    0  0.39648010440E+03  0.18280090419E+03 -0.20908455337E+04  0.21378158982E+04  0.89493716653E+02 0.  0.
          4    1    3    3  502    0  0.59408018497E+02 -0.69062153511E+02 -0.40287246927E+02  0.99609015527E+02  0.00000000000E+00 0. -1.
         -3    1    3    3    0  502 -0.25749727124E+02 -0.16458482140E+02 -0.14621862841E+02  0.33878148625E+02  0.00000000000E+00 0.  1.
         11    1    4    4    0    0 -0.62604695419E+02 -0.26318782553E+02 -0.11649607538E+03  0.13484569619E+03  0.00000000000E+00 0. -1.
        -11    1    4    4    0    0 -0.36753370035E+03 -0.70961485988E+02 -0.16411099774E+04  0.16832583020E+04  0.00000000000E+00 0.  1.
          3    1    5    5  503    0  0.67219675204E+02  0.12603161840E+02 -0.21195726780E+03  0.22271777611E+03  0.00000000000E+00 0. -1.
         -3    1    5    5    0  503  0.32926042919E+03  0.17019774235E+03 -0.18788882659E+04  0.19150981221E+04  0.00000000000E+00 0.  1.
<mgrwt>
<rscale>  0 0.12194365E+04</rscale>
<asrwt>0</asrwt>
<pdfrwt beam="1">  1        2 0.61482843E+00 0.12194365E+04</pdfrwt>
<pdfrwt beam="2">  1       -1 0.14311256E-01 0.12194365E+04</pdfrwt>
<totfact> 0.14272813E+01</totfact>
</mgrwt>
</event>
<event>
12    6  0.1663299E-008  0.1297161E+04  0.7818608E-02  0.9031819E-01
          2   -1    0    0  501    0  0.00000000000E+00  0.00000000000E+00  0.77746185696E+03  0.77746185696E+03  0.00000000000E+00 0. -1.
         -1   -1    0    0    0  501 -0.00000000000E+00 -0.00000000000E+00 -0.54106427189E+03  0.54106427189E+03  0.00000000000E+00 0.  1.
         24    2    1    2    0    0 -0.10493409454E+03 -0.30307897052E+03  0.20013322445E+02  0.33131692572E+03  0.80637123090E+02 0.  0.
        254    2    1    2    0    0  0.10493409454E+03  0.30307897052E+03  0.21638426263E+03  0.98720920313E+03  0.90823556144E+03 0.  0.
         23    2    4    4    0    0  0.39701576033E+03  0.38720158714E+03 -0.57393395840E+02  0.56789043750E+03  0.10797668306E+03 0.  0.
         23    2    4    4    0    0 -0.29208166578E+03 -0.84122616617E+02  0.27377765847E+03  0.41931876563E+03  0.92117896318E+02 0.  0.
          2    1    3    3  502    0 -0.10954376718E+03 -0.22594178872E+03  0.31965964895E+02  0.25312319477E+03  0.00000000000E+00 0. -1.
         -1    1    3    3    0  502  0.46096726336E+01 -0.77137181804E+02 -0.11952642450E+02  0.78193730951E+02  0.00000000000E+00 0.  1.
         11    1    5    5    0    0  0.57254222557E+02  0.56341960728E+02 -0.47957190604E+02  0.93554020063E+02  0.00000000000E+00 0.  1.
        -11    1    5    5    0    0  0.33976153777E+03  0.33085962641E+03 -0.94362052361E+01  0.47433641744E+03  0.00000000000E+00 0. -1.
          3    1    6    6  503    0 -0.24136910556E+03 -0.91461599414E+02  0.25975802777E+03  0.36619462349E+03  0.00000000000E+00 0. -1.
         -3    1    6    6    0  503 -0.50712560226E+02  0.73389827971E+01  0.14019630701E+02  0.53124142141E+02  0.00000000000E+00 0.  1.
<mgrwt>
<rscale>  0 0.12971613E+04</rscale>
<asrwt>0</asrwt>
<pdfrwt beam="1">  1        2 0.11960952E+00 0.12971613E+04</pdfrwt>
<pdfrwt beam="2">  1       -1 0.83240657E-01 0.12971613E+04</pdfrwt>
<totfact> 0.57393534E+01</totfact>
</mgrwt>
</event>
<event>
11    6  0.1663299E-008  0.1187789E+04  0.7818608E-02  0.9123613E-01
         -1   -1    0    0    0  501 -0.00000000000E+00  0.00000000000E+00  0.13944976034E+03  0.13944976034E+03  0.00000000000E+00 0.  1.
          2   -1    0    0  501    0  0.00000000000E+00 -0.00000000000E+00 -0.25293023333E+04  0.25293023333E+04  0.00000000000E+00 0. -1.
         24    2    1    2    0    0 -0.16592309080E+03 -0.35672202394E+02 -0.12183914241E+03  0.22331917103E+03  0.78890414123E+02 0.  0.
        254    2    1    2    0    0  0.16592309080E+03  0.35672202394E+02 -0.22680134306E+04  0.24454329226E+04  0.89858459799E+03 0.  0.
         23    2    4    4    0    0 -0.19426225648E+03  0.89151148449E+02 -0.14421602277E+04  0.14607391209E+04  0.90812475049E+02 0.  0.
          4    1    3    3  502    0 -0.75883210347E+02 -0.32001520170E+02 -0.15273272749E+02  0.83759368230E+02  0.00000000000E+00 0. -1.
         -3    1    3    3    0  502 -0.90039880452E+02 -0.36706822232E+01 -0.10656586966E+03  0.13955980280E+03  0.00000000000E+00 0.  1.
         11    1    4    4    0    0  0.20538852781E+03  0.16748384657E+03 -0.37291797387E+03  0.45749655896E+03  0.00000000000E+00 0.  1.
        -11    1    4    4    0    0  0.15479681947E+03 -0.22096279263E+03 -0.45293522903E+03  0.52719724273E+03  0.00000000000E+00 0. -1.
          3    1    5    5  503    0  0.36301494708E+01 -0.91363632817E+01 -0.35721925849E+02  0.37050062154E+02  0.00000000000E+00 0. -1.
         -3    1    5    5    0  503 -0.19789240596E+03  0.98287511730E+02 -0.14064383018E+04  0.14236890588E+04  0.00000000000E+00 0.  1.
<mgrwt>
<rscale>  0 0.11877889E+04</rscale>
<asrwt>0</asrwt>
<pdfrwt beam="1">  1        2 0.38912342E+00 0.11877889E+04</pdfrwt>
<pdfrwt beam="2">  1       -1 0.21453810E-01 0.11877889E+04</pdfrwt>
<totfact> 0.68919886E+01</totfact>
</mgrwt>
</event>
<event>
11    6  0.1663299E-008  0.1408882E+04  0.7818608E-02  0.8947414E-01
         -1   -1    0    0    0  501 -0.00000000000E+00  0.00000000000E+00  0.38907596505E+03  0.38907596505E+03  0.00000000000E+00 0.  1.
          2   -1    0    0  501    0  0.00000000000E+00 -0.00000000000E+00 -0.12754245479E+04  0.12754245479E+04  0.00000000000E+00 0. -1.
         24    2    1    2    0    0  0.10447502153E+02  0.36968901977E+02 -0.76353736693E+03  0.76854620938E+03  0.78728109615E+02 0.  0.
        254    2    1    2    0    0 -0.10447502153E+02 -0.36968901977E+02 -0.12281121588E+03  0.89595430354E+03  0.88666547765E+03 0.  0.
         23    2    4    4    0    0  0.39052674113E+03 -0.17188832711E+03 -0.83988308915E+02  0.44378572887E+03  0.88515561201E+02 0.  0.
          2    1    3    3  502    0 -0.14151011969E+02  0.53301822413E+02 -0.58387401506E+03  0.58647267700E+03  0.00000000000E+00 0. -1.
         -3    1    3    3    0  502  0.24598514122E+02 -0.16332920436E+02 -0.17966335187E+03  0.18207353238E+03  0.00000000000E+00 0.  1.
         11    1    4    4    0    0  0.13614473813E+02  0.53163035759E+01  0.53280807144E+01  0.15556523552E+02  0.00000000000E+00 0.  1.
        -11    1    4    4    0    0 -0.41458871710E+03  0.12960312156E+03 -0.44150987684E+02  0.43661205111E+03  0.00000000000E+00 0. -1.
          4    1    5    5  503    0  0.29000464074E+03 -0.95735014595E+02 -0.87301827702E+02  0.31763106553E+03  0.00000000000E+00 0. -1.
         -4    1    5    5    0  503  0.10052210039E+03 -0.76153312517E+02  0.33135187873E+01  0.12615466333E+03  0.00000000000E+00 0.  1.
<mgrwt>
<rscale>  0 0.14088819E+04</rscale>
<asrwt>0</asrwt>
<pdfrwt beam="1">  1        2 0.19621916E+00 0.14088819E+04</pdfrwt>
<pdfrwt beam="2">  1       -1 0.59857840E-01 0.14088819E+04</pdfrwt>
<totfact> 0.53618083E+01</totfact>
</mgrwt>
</event>
<event>
12    6  0.1663299E-008  0.1875801E+04  0.7818608E-02  0.8666997E-01
          2   -1    0    0  501    0  0.00000000000E+00  0.00000000000E+00  0.14704583915E+04  0.14704583915E+04  0.00000000000E+00 0. -1.
         -1   -1    0    0    0  501 -0.00000000000E+00 -0.00000000000E+00 -0.59821956096E+03  0.59821956096E+03  0.00000000000E+00 0.  1.
         24    2    1    2    0    0 -0.13040726105E+03  0.55009002151E+03  0.82769157595E+03  0.10054417239E+04  0.78959671691E+02 0.  0.
        254    2    1    2    0    0  0.13040726105E+03 -0.55009002151E+03  0.44547254593E+02  0.10632362286E+04  0.89937852672E+03 0.  0.
         23    2    4    4    0    0 -0.15717909124E+03 -0.19790042721E+02 -0.31223661700E+03  0.35644166143E+03  0.66798506668E+02 0.  0.
         23    2    4    4    0    0  0.28758635229E+03 -0.53029997879E+03  0.35678387159E+03  0.70679456714E+03  0.91322787824E+02 0.  0.
          4    1    3    3  502    0 -0.41934033794E+02  0.67340180540E+02  0.98603574442E+02  0.12655365660E+03  0.00000000000E+00 0. -1.
         -3    1    3    3    0  502 -0.88473227256E+02  0.48274984097E+03  0.72908800150E+03  0.87888806730E+03  0.00000000000E+00 0.  1.
         11    1    5    5    0    0 -0.76812593588E+02 -0.42674303237E+02 -0.14650663941E+03  0.17083754295E+03  0.00000000000E+00 0.  1.
        -11    1    5    5    0    0 -0.80366497654E+02  0.22884260515E+02 -0.16572997758E+03  0.18560411847E+03  0.00000000000E+00 0. -1.
          2    1    6    6  503    0  0.26831513423E+03 -0.51329334901E+03  0.31938432759E+03  0.66141471264E+03  0.00000000000E+00 0. -1.
         -2    1    6    6    0  503  0.19271218064E+02 -0.17006629782E+02  0.37399544001E+02  0.45379854492E+02  0.00000000000E+00 0.  1.
<mgrwt>
<rscale>  0 0.18758006E+04</rscale>
<asrwt>0</asrwt>
<pdfrwt beam="1">  1        2 0.22622437E+00 0.18758006E+04</pdfrwt>
<pdfrwt beam="2">  1       -1 0.92033779E-01 0.18758006E+04</pdfrwt>
<totfact> 0.16215839E+01</totfact>
</mgrwt>
</event>
<event>
11    6  0.1663299E-008  0.2610574E+04  0.7818608E-02  0.8364618E-01
         -1   -1    0    0    0  501 -0.00000000000E+00  0.00000000000E+00  0.10902940546E+04  0.10902940546E+04  0.00000000000E+00 0.  1.
          2   -1    0    0  501    0  0.00000000000E+00 -0.00000000000E+00 -0.15626739839E+04  0.15626739839E+04  0.00000000000E+00 0. -1.
         24    2    1    2    0    0  0.45814278488E+03  0.10490405070E+04 -0.12229004825E+03  0.11546869080E+04  0.89253588806E+02 0.  0.
        254    2    1    2    0    0 -0.45814278488E+03 -0.10490405070E+04 -0.35008988104E+03  0.14982811305E+04  0.90105639364E+03 0.  0.
         23    2    4    4    0    0 -0.14773628884E+03  0.11461474433E+03  0.51460224371E+02  0.21932621998E+03  0.10243673862E+03 0.  0.
          2    1    3    3  502    0  0.88806674057E+02  0.27149877082E+03 -0.58036503924E+02  0.29149004048E+03  0.00000000000E+00 0. -1.
         -1    1    3    3    0  502  0.36933611083E+03  0.77754173614E+03 -0.64253544324E+02  0.86319686756E+03  0.00000000000E+00 0.  1.
         11    1    4    4    0    0 -0.48204233664E+02 -0.55668457510E+02 -0.71197916068E+01  0.73981867625E+02  0.00000000000E+00 0.  1.
        -11    1    4    4    0    0 -0.26220226238E+03 -0.11079867938E+04 -0.39443031380E+03  0.12049730429E+04  0.00000000000E+00 0. -1.
          2    1    5    5  503    0 -0.81286592233E+02  0.95091287424E+02 -0.11631531836E+02  0.12563898899E+03  0.00000000000E+00 0.  1.
         -2    1    5    5    0  503 -0.66449696609E+02  0.19523456903E+02  0.63091756207E+02  0.93687230988E+02  0.00000000000E+00 0. -1.
<mgrwt>
<rscale>  0 0.26105740E+04</rscale>
<asrwt>0</asrwt>
<pdfrwt beam="1">  1        2 0.24041138E+00 0.26105740E+04</pdfrwt>
<pdfrwt beam="2">  1       -1 0.16773755E+00 0.26105740E+04</pdfrwt>
<totfact> 0.30118483E+00</totfact>
</mgrwt>
</event>
<event>
11    6  0.1663299E-008  0.2250427E+04  0.7818608E-02  0.8497728E-01
         -1   -1    0    0    0  501 -0.00000000000E+00  0.00000000000E+00  0.57685610495E+03  0.57685610495E+03  0.00000000000E+00 0.  1.
          2   -1    0    0  501    0  0.00000000000E+00 -0.00000000000E+00 -0.21948375916E+04  0.21948375916E+04  0.00000000000E+00 0. -1.
         24    2    1    2    0    0 -0.13758887952E+03  0.17980778507E+03  0.44481865045E+03  0.50562860409E+03  0.80840052832E+02 0.  0.
        254    2    1    2    0    0  0.13758887952E+03 -0.17980778507E+03 -0.20628001371E+04  0.22660650925E+04  0.91029943335E+03 0.  0.
         23    2    4    4    0    0  0.34562752644E+03  0.22023898050E+03 -0.11637738075E+04  0.12372468985E+04  0.91906568140E+02 0.  0.
          2    1    3    3  502    0 -0.92115240167E+01  0.43122757545E+02  0.40201849206E+02  0.59670872899E+02  0.00000000000E+00 0. -1.
         -1    1    3    3    0  502 -0.12837735550E+03  0.13668502752E+03  0.40461680125E+03  0.44595773119E+03  0.00000000000E+00 0.  1.
         11    1    4    4    0    0 -0.18166932782E+03 -0.40816699920E+03 -0.71765029281E+03  0.84535553862E+03  0.00000000000E+00 0. -1.
        -11    1    4    4    0    0 -0.26369319104E+02  0.81202336339E+01 -0.18137603682E+03  0.18346265538E+03  0.00000000000E+00 0.  1.
          4    1    5    5  503    0  0.53450392480E+02  0.58376531056E+02 -0.32296518450E+03  0.33252259206E+03  0.00000000000E+00 0. -1.
         -4    1    5    5    0  503  0.29217713396E+03  0.16186244944E+03 -0.84080862301E+03  0.90472430645E+03  0.00000000000E+00 0.  1.
<mgrwt>
<rscale>  0 0.22504270E+04</rscale>
<asrwt>0</asrwt>
<pdfrwt beam="1">  1        2 0.33766732E+00 0.22504270E+04</pdfrwt>
<pdfrwt beam="2">  1       -1 0.88747094E-01 0.22504270E+04</pdfrwt>
<totfact> 0.67084337E+00</totfact>
</mgrwt>
</event>
<event>
12    6  0.1663299E-008  0.2790626E+04  0.7818608E-02  0.8306185E-01
         -1   -1    0    0    0  501 -0.00000000000E+00  0.00000000000E+00  0.83385960068E+03  0.83385960068E+03  0.00000000000E+00 0.  1.
          2   -1    0    0  501    0  0.00000000000E+00 -0.00000000000E+00 -0.23348027984E+04  0.23348027984E+04  0.00000000000E+00 0. -1.
         24    2    1    2    0    0  0.12295240927E+04 -0.23519820512E+03 -0.60702144680E+03  0.13934278617E+04  0.78220704662E+02 0.  0.
        254    2    1    2    0    0 -0.12295240927E+04  0.23519820512E+03 -0.89392175094E+03  0.17752345374E+04  0.88617937007E+03 0.  0.
         23    2    4    4    0    0  0.74961322894E+02 -0.79673469298E+02 -0.20028555586E+03  0.26177031654E+03  0.12822766119E+03 0.  0.
         23    2    4    4    0    0 -0.13044854156E+04  0.31487167442E+03 -0.69363619508E+03  0.15134642209E+04  0.92824598233E+02 0.  0.
          4    1    3    3  502    0  0.10371511889E+04 -0.21437718840E+03 -0.53883297606E+03  0.11882681278E+04  0.00000000000E+00 0. -1.
         -3    1    3    3    0  502  0.19237290377E+03 -0.20821016720E+02 -0.68188470743E+02  0.20515973383E+03  0.00000000000E+00 0.  1.
         11    1    5    5    0    0  0.62394023547E+02 -0.48855925127E+02 -0.21212623489E+03  0.22644525856E+03  0.00000000000E+00 0. -1.
        -11    1    5    5    0    0  0.12567299347E+02 -0.30817544170E+02  0.11840679027E+02  0.35325057981E+02  0.00000000000E+00 0.  1.
          1    1    6    6  503    0 -0.11218516614E+04  0.26681304423E+03 -0.63100144761E+03  0.13144973099E+04  0.00000000000E+00 0. -1.
         -1    1    6    6    0  503 -0.18263375413E+03  0.48058630189E+02 -0.62634747473E+02  0.19896691100E+03  0.00000000000E+00 0.  1.
<mgrwt>
<rscale>  0 0.27906255E+04</rscale>
<asrwt>0</asrwt>
<pdfrwt beam="1">  1        2 0.35920043E+00 0.27906255E+04</pdfrwt>
<pdfrwt beam="2">  1       -1 0.12828609E+00 0.27906255E+04</pdfrwt>
<totfact> 0.22488905E+00</totfact>
</mgrwt>
</event>
<event>
12    6  0.1663299E-008  0.1254303E+04  0.7818608E-02  0.9066609E-01
         -1   -1    0    0    0  501 -0.00000000000E+00  0.00000000000E+00  0.28251453343E+03  0.28251453343E+03  0.00000000000E+00 0.  1.
          2   -1    0    0  501    0  0.00000000000E+00 -0.00000000000E+00 -0.13922080162E+04  0.13922080162E+04  0.00000000000E+00 0. -1.
         24    2    1    2    0    0  0.77512520251E+02  0.20501624715E+03 -0.73365035102E+01  0.23315558996E+03  0.79169769842E+02 0.  0.
        254    2    1    2    0    0 -0.77512520251E+02 -0.20501624715E+03 -0.11023569793E+04  0.14415669597E+04  0.90270955303E+03 0.  0.
         23    2    4    4    0    0 -0.46754818206E+03 -0.13027742029E+02 -0.52232639990E+03  0.71104891685E+03  0.11829906809E+03 0.  0.
         23    2    4    4    0    0  0.39003566181E+03 -0.19198850512E+03 -0.58003057940E+03  0.73051804286E+03  0.90739926872E+02 0.  0.
          2    1    3    3  502    0  0.27514532817E+02  0.64470943419E+01 -0.73508709764E-01  0.28259864563E+02  0.00000000000E+00 0. -1.
         -1    1    3    3    0  502  0.49997987434E+02  0.19856915281E+03 -0.72629948004E+01  0.20489572540E+03  0.00000000000E+00 0.  1.
         11    1    5    5    0    0 -0.65212120342E+02  0.16904523854E+02 -0.13932492110E+03  0.15475728482E+03  0.00000000000E+00 0.  1.
        -11    1    5    5    0    0 -0.40233606172E+03 -0.29932265883E+02 -0.38300147880E+03  0.55629163203E+03  0.00000000000E+00 0. -1.
          3    1    6    6  503    0  0.17403234316E+03 -0.76139887058E+02 -0.32743878566E+03  0.37855078552E+03  0.00000000000E+00 0. -1.
         -3    1    6    6    0  503  0.21600331865E+03 -0.11584861806E+03 -0.25259179374E+03  0.35196725734E+03  0.00000000000E+00 0.  1.
<mgrwt>
<rscale>  0 0.12543030E+04</rscale>
<asrwt>0</asrwt>
<pdfrwt beam="1">  1        2 0.21418585E+00 0.12543030E+04</pdfrwt>
<pdfrwt beam="2">  1       -1 0.43463775E-01 0.12543030E+04</pdfrwt>
<totfact> 0.85563290E+01</totfact>
</mgrwt>
</event>
<event>
12    6  0.2301391E-008  0.1312599E+04  0.7818608E-02  0.9019633E-01
          2   -1    0    0  501    0  0.00000000000E+00  0.00000000000E+00  0.10582460855E+04  0.10582460855E+04  0.00000000000E+00 0. -1.
         -1   -1    0    0    0  501 -0.00000000000E+00 -0.00000000000E+00 -0.40702184979E+03  0.40702184979E+03  0.00000000000E+00 0.  1.
         24    2    1    2    0    0  0.15317392798E+03 -0.34681001140E+02  0.51694331939E+03  0.54621871271E+03  0.80370781995E+02 0.  0.
        254    2    1    2    0    0 -0.15317392798E+03  0.34681001140E+02  0.13428091635E+03  0.91904922261E+03  0.89551944983E+03 0.  0.
         23    2    4    4    0    0  0.11148160785E+02  0.19099709616E+03  0.46444907762E+03  0.50837227072E+03  0.78263961747E+02 0.  0.
         23    2    4    4    0    0 -0.16432208876E+03 -0.15631609502E+03 -0.33016816127E+03  0.41067695189E+03  0.90598419835E+02 0.  0.
          4    1    3    3  502    0  0.14129008066E+03 -0.85621407105E+01  0.47308397989E+03  0.49380628710E+03  0.00000000000E+00 0. -1.
         -3    1    3    3    0  502  0.11883847312E+02 -0.26118860429E+02  0.43859339498E+02  0.52412425610E+02  0.00000000000E+00 0.  1.
         11    1    5    5    0    0 -0.50353382577E+01 -0.60489929284E+01  0.96143702784E+01  0.12425017612E+02  0.00000000000E+00 0.  1.
        -11    1    5    5    0    0  0.16183499043E+02  0.19704608908E+03  0.45483470734E+03  0.49594725311E+03  0.00000000000E+00 0. -1.
          2    1    6    6  503    0 -0.80773574016E+02 -0.11166457654E+03 -0.25455823874E+03  0.28947062860E+03  0.00000000000E+00 0. -1.
         -2    1    6    6    0  503 -0.83548514746E+02 -0.44651518479E+02 -0.75609922530E+02  0.12120632328E+03  0.00000000000E+00 0.  1.
<mgrwt>
<rscale>  0 0.13125994E+04</rscale>
<asrwt>0</asrwt>
<pdfrwt beam="1">  1        2 0.16280709E+00 0.13125994E+04</pdfrwt>
<pdfrwt beam="2">  1       -1 0.62618747E-01 0.13125994E+04</pdfrwt>
<totfact> 0.66837292E+01</totfact>
</mgrwt>
</event>
<event>
12    6  0.1663299E-008  0.2676673E+04  0.7818608E-02  0.8342614E-01
         -1   -1    0    0    0  501 -0.00000000000E+00  0.00000000000E+00  0.11938569257E+04  0.11938569257E+04  0.00000000000E+00 0.  1.
          2   -1    0    0  501    0  0.00000000000E+00 -0.00000000000E+00 -0.15003006499E+04  0.15003006499E+04  0.00000000000E+00 0. -1.
         24    2    1    2    0    0 -0.29076194687E+03  0.63743287444E+03  0.82839862404E+03  0.10878890132E+04  0.79969029186E+02 0.  0.
        254    2    1    2    0    0  0.29076194687E+03 -0.63743287444E+03 -0.11348423482E+04  0.16062685624E+04  0.89519180073E+03 0.  0.
         23    2    4    4    0    0 -0.21949944106E+03 -0.33527538736E+03 -0.12768683647E+03  0.43383482073E+03  0.10639141635E+03 0.  0.
         23    2    4    4    0    0  0.51026138793E+03 -0.30215748708E+03 -0.10071555118E+04  0.11724337417E+04  0.92589539105E+02 0.  0.
          4    1    3    3  502    0 -0.14766648942E+03  0.23747373867E+03  0.35337457369E+03  0.45063594839E+03  0.00000000000E+00 0. -1.
         -3    1    3    3    0  502 -0.14309545745E+03  0.39995913577E+03  0.47502405035E+03  0.63725306484E+03  0.00000000000E+00 0.  1.
         11    1    5    5    0    0 -0.16426004535E+03 -0.22559026995E+03 -0.37712475766E+02  0.28159290337E+03  0.00000000000E+00 0. -1.
        -11    1    5    5    0    0 -0.55239395710E+02 -0.10968511740E+03 -0.89974360700E+02  0.15224191736E+03  0.00000000000E+00 0.  1.
          1    1    6    6  503    0  0.45501631708E+03 -0.28545515584E+03 -0.94918770444E+03  0.10906336658E+04  0.00000000000E+00 0. -1.
         -1    1    6    6    0  503  0.55245070851E+02 -0.16702331241E+02 -0.57967807327E+02  0.81800075847E+02  0.00000000000E+00 0.  1.
<mgrwt>
<rscale>  0 0.26766728E+04</rscale>
<asrwt>0</asrwt>
<pdfrwt beam="1">  1        2 0.23081548E+00 0.26766728E+04</pdfrwt>
<pdfrwt beam="2">  1       -1 0.18367030E+00 0.26766728E+04</pdfrwt>
<totfact> 0.24883215E+00</totfact>
</mgrwt>
</event>
<event>
12    6  0.1663299E-008  0.1993840E+04  0.7818608E-02  0.8609506E-01
         -1   -1    0    0    0  501 -0.00000000000E+00  0.00000000000E+00  0.11488531465E+04  0.11488531465E+04  0.00000000000E+00 0.  1.
          2   -1    0    0  501    0  0.00000000000E+00 -0.00000000000E+00 -0.86507963028E+03  0.86507963028E+03  0.00000000000E+00 0. -1.
         24    2    1    2    0    0  0.32532093327E+03 -0.12071137196E+03  0.83136232429E+03  0.90444185983E+03  0.80292083243E+02 0.  0.
        254    2    1    2    0    0 -0.32532093327E+03  0.12071137196E+03 -0.54758880806E+03  0.11094909170E+04  0.90039527274E+03 0.  0.
         23    2    4    4    0    0 -0.10746558740E+03 -0.13016001757E+03 -0.70201817990E+03  0.73053542410E+03  0.11118452366E+03 0.  0.
         23    2    4    4    0    0 -0.21785534586E+03  0.25087138953E+03  0.15442937184E+03  0.37895549287E+03  0.96754477312E+02 0.  0.
          2    1    3    3  502    0  0.12841826680E+03 -0.77846071106E+02  0.42724314535E+03  0.45286639010E+03  0.00000000000E+00 0. -1.
         -1    1    3    3    0  502  0.19690266646E+03 -0.42865300854E+02  0.40411917893E+03  0.45157546973E+03  0.00000000000E+00 0.  1.
         11    1    5    5    0    0 -0.14462822039E+02 -0.10398335731E+03 -0.33936165354E+03  0.35522956481E+03  0.00000000000E+00 0. -1.
        -11    1    5    5    0    0 -0.93002765366E+02 -0.26176660263E+02 -0.36265652635E+03  0.37530585929E+03  0.00000000000E+00 0.  1.
          4    1    6    6  503    0 -0.16215841005E+03  0.13873108040E+03  0.58664668466E+02  0.22132149906E+03  0.00000000000E+00 0. -1.
         -4    1    6    6    0  503 -0.55696935807E+02  0.11214030914E+03  0.95764703372E+02  0.15763399381E+03  0.00000000000E+00 0.  1.
<mgrwt>
<rscale>  0 0.19938400E+04</rscale>
<asrwt>0</asrwt>
<pdfrwt beam="1">  1        2 0.13308917E+00 0.19938400E+04</pdfrwt>
<pdfrwt beam="2">  1       -1 0.17674664E+00 0.19938400E+04</pdfrwt>
<totfact> 0.72184405E+00</totfact>
</mgrwt>
</event>
<event>
11    6  0.1663299E-008  0.2238118E+04  0.7818608E-02  0.8502728E-01
         -1   -1    0    0    0  501 -0.00000000000E+00  0.00000000000E+00  0.10550763561E+04  0.10550763561E+04  0.00000000000E+00 0.  1.
          2   -1    0    0  501    0  0.00000000000E+00 -0.00000000000E+00 -0.11869213266E+04  0.11869213266E+04  0.00000000000E+00 0. -1.
         24    2    1    2    0    0  0.64475644319E+03  0.61083124551E+03  0.24384507766E+03  0.92424605002E+03  0.77101605370E+02 0.  0.
        254    2    1    2    0    0 -0.64475644319E+03 -0.61083124551E+03 -0.37569004809E+03  0.13177516327E+04  0.89805382444E+03 0.  0.
         23    2    4    4    0    0 -0.77226692337E+02 -0.52694271223E+03  0.10340458874E+03  0.55046193445E+03  0.93183948848E+02 0.  0.
          4    1    3    3  502    0  0.29643107283E+03  0.27690237549E+03  0.15115387580E+03  0.43289005609E+03  0.00000000000E+00 0. -1.
         -3    1    3    3    0  502  0.34832537036E+03  0.33392887002E+03  0.92691201861E+02  0.49135599393E+03  0.00000000000E+00 0.  1.
         11    1    4    4    0    0 -0.55951783620E+02 -0.55339334471E+02 -0.24777836567E+02  0.82504455728E+02  0.00000000000E+00 0.  1.
        -11    1    4    4    0    0 -0.51157796723E+03 -0.28549198809E+02 -0.45431680026E+03  0.68478524247E+03  0.00000000000E+00 0. -1.
          1    1    5    5  503    0 -0.92014714088E+02 -0.50504199167E+03  0.91365331601E+02  0.52142280807E+03  0.00000000000E+00 0. -1.
         -1    1    5    5    0  503  0.14788021751E+02 -0.21900720563E+02  0.12039257136E+02  0.29039126380E+02  0.00000000000E+00 0.  1.
<mgrwt>
<rscale>  0 0.22381176E+04</rscale>
<asrwt>0</asrwt>
<pdfrwt beam="1">  1        2 0.18260328E+00 0.22381176E+04</pdfrwt>
<pdfrwt beam="2">  1       -1 0.16231944E+00 0.22381176E+04</pdfrwt>
<totfact> 0.56232030E+00</totfact>
</mgrwt>
</event>
<event>
12    6  0.1663299E-008  0.1966339E+04  0.7818608E-02  0.8622522E-01
         -1   -1    0    0    0  501 -0.00000000000E+00  0.00000000000E+00  0.45686431460E+03  0.45686431460E+03  0.00000000000E+00 0.  1.
          2   -1    0    0  501    0  0.00000000000E+00 -0.00000000000E+00 -0.21157764383E+04  0.21157764383E+04  0.00000000000E+00 0. -1.
         24    2    1    2    0    0 -0.49395004565E+02  0.27781432188E+03 -0.15892729573E+04  0.16163038222E+04  0.83838230831E+02 0.  0.
        254    2    1    2    0    0  0.49395004565E+02 -0.27781432188E+03 -0.69639166445E+02  0.95633693073E+03  0.91110375242E+03 0.  0.
         23    2    4    4    0    0  0.32084984499E+03 -0.63760433611E+02  0.29497197817E+03  0.44569384659E+03  0.68003831211E+02 0.  0.
         23    2    4    4    0    0 -0.27145484043E+03 -0.21405388827E+03 -0.36461114461E+03  0.51064308414E+03  0.91149740181E+02 0.  0.
          2    1    3    3  502    0 -0.51672069548E+02  0.11197966147E+03 -0.53242023443E+03  0.54651692873E+03  0.00000000000E+00 0. -1.
         -1    1    3    3    0  502  0.22770649833E+01  0.16583466040E+03 -0.10568527228E+04  0.10697868934E+04  0.00000000000E+00 0.  1.
         11    1    5    5    0    0  0.24074346863E+03 -0.17289032525E+02  0.21897846101E+03  0.32589552731E+03  0.00000000000E+00 0.  1.
        -11    1    5    5    0    0  0.80106376356E+02 -0.46471401086E+02  0.75993517157E+02  0.11979831928E+03  0.00000000000E+00 0. -1.
          3    1    6    6  503    0 -0.11930305926E+03 -0.46473554568E+02 -0.16502026392E+03  0.20886526454E+03  0.00000000000E+00 0. -1.
         -3    1    6    6    0  503 -0.15215178116E+03 -0.16758033370E+03 -0.19959088069E+03  0.30177781961E+03  0.00000000000E+00 0.  1.
<mgrwt>
<rscale>  0 0.19663395E+04</rscale>
<asrwt>0</asrwt>
<pdfrwt beam="1">  1        2 0.32550407E+00 0.19663395E+04</pdfrwt>
<pdfrwt beam="2">  1       -1 0.70286817E-01 0.19663395E+04</pdfrwt>
<totfact> 0.12494279E+01</totfact>
</mgrwt>
</event>
<event>
11    6  0.1663299E-008  0.1384313E+04  0.7818608E-02  0.8965252E-01
          2   -1    0    0  501    0  0.00000000000E+00  0.00000000000E+00  0.12054851302E+04  0.12054851302E+04  0.00000000000E+00 0. -1.
         -3   -1    0    0    0  501 -0.00000000000E+00 -0.00000000000E+00 -0.39741740798E+03  0.39741740798E+03  0.00000000000E+00 0.  1.
         24    2    1    2    0    0  0.14998433369E+03 -0.14702624999E+03 -0.14722992333E+03  0.26865750782E+03  0.79926138702E+02 0.  0.
        254    2    1    2    0    0 -0.14998433369E+03  0.14702624999E+03  0.95529764554E+03  0.13342450304E+04  0.90747131685E+03 0.  0.
         23    2    4    4    0    0 -0.45210261791E+03  0.18011695505E+03  0.89326764991E+03  0.10213033343E+04  0.91074209697E+02 0.  0.
          4    1    3    3  502    0  0.50836588816E+02 -0.10145265333E+03 -0.93456248957E+02  0.14700704099E+03  0.00000000000E+00 0. -1.
         -3    1    3    3    0  502  0.99147744873E+02 -0.45573596656E+02 -0.53773674370E+02  0.12165046683E+03  0.00000000000E+00 0.  1.
         11    1    4    4    0    0  0.23472569507E+03 -0.20654005052E+02  0.30822357914E+02  0.23763997474E+03  0.00000000000E+00 0.  1.
        -11    1    4    4    0    0  0.67392589152E+02 -0.12436700003E+02  0.31207637720E+02  0.75301721306E+02  0.00000000000E+00 0. -1.
          4    1    5    5  503    0 -0.36025023659E+02  0.42005562898E+02  0.77974246487E+02  0.95615128297E+02  0.00000000000E+00 0. -1.
         -4    1    5    5    0  503 -0.41607759425E+03  0.13811139215E+03  0.81529340342E+03  0.92568820601E+03  0.00000000000E+00 0.  1.
<mgrwt>
<rscale>  0 0.13843132E+04</rscale>
<asrwt>0</asrwt>
<pdfrwt beam="1">  1        2 0.18545925E+00 0.13843132E+04</pdfrwt>
<pdfrwt beam="2">  1       -3 0.61141140E-01 0.13843132E+04</pdfrwt>
<totfact> 0.30475305E+01</totfact>
</mgrwt>
</event>
<event>
12    6  0.1663299E-008  0.2227406E+04  0.7818608E-02  0.8507107E-01
          2   -1    0    0  501    0  0.00000000000E+00  0.00000000000E+00  0.24686627010E+04  0.24686627010E+04  0.00000000000E+00 0. -1.
         -1   -1    0    0    0  501 -0.00000000000E+00 -0.00000000000E+00 -0.50243179057E+03  0.50243179057E+03  0.00000000000E+00 0.  1.
         24    2    1    2    0    0  0.27679930000E+03 -0.56326548241E+03 -0.75709679177E+02  0.63712824715E+03  0.79464404862E+02 0.  0.
        254    2    1    2    0    0 -0.27679930000E+03  0.56326548241E+03  0.20419405896E+04  0.23339662444E+04  0.94020806336E+03 0.  0.
         23    2    4    4    0    0 -0.48782452298E+03  0.43780231682E+03  0.19421942034E+04  0.20527754321E+04  0.11011365593E+03 0.  0.
         23    2    4    4    0    0  0.21102522298E+03  0.12546316560E+03  0.99746386196E+02  0.28119081226E+03  0.94054668599E+02 0.  0.
          4    1    3    3  502    0  0.65310944807E+02 -0.21851484489E+03 -0.32658743660E+02  0.23039281779E+03  0.00000000000E+00 0. -1.
         -3    1    3    3    0  502  0.21148835519E+03 -0.34475063752E+03 -0.43050935518E+02  0.40673542936E+03  0.00000000000E+00 0.  1.
         11    1    5    5    0    0 -0.40880754479E+03  0.41135369437E+03  0.16511295863E+04  0.17500183946E+04  0.00000000000E+00 0. -1.
        -11    1    5    5    0    0 -0.79016978194E+02  0.26448622445E+02  0.29106461712E+03  0.30275703759E+03  0.00000000000E+00 0.  1.
          3    1    6    6  503    0  0.15007713415E+03  0.45473062942E+02  0.88330270355E+02  0.17998106097E+03  0.00000000000E+00 0. -1.
         -3    1    6    6    0  503  0.60948088833E+02  0.79990102656E+02  0.11416115840E+02  0.10120975129E+03  0.00000000000E+00 0.  1.
<mgrwt>
<rscale>  0 0.22274062E+04</rscale>
<asrwt>0</asrwt>
<pdfrwt beam="1">  1        2 0.37979425E+00 0.22274062E+04</pdfrwt>
<pdfrwt beam="2">  1       -1 0.77297200E-01 0.22274062E+04</pdfrwt>
<totfact> 0.63205685E+00</totfact>
</mgrwt>
</event>
<event>
11    6  0.1663299E-008  0.2216103E+04  0.7818608E-02  0.8511755E-01
          2   -1    0    0  501    0  0.00000000000E+00  0.00000000000E+00  0.15005611489E+04  0.15005611489E+04  0.00000000000E+00 0. -1.
         -1   -1    0    0    0  501 -0.00000000000E+00 -0.00000000000E+00 -0.81821289391E+03  0.81821289391E+03  0.00000000000E+00 0.  1.
         24    2    1    2    0    0  0.59379823339E+03  0.30073155881E+03 -0.38172935795E+03  0.77136870899E+03  0.79098483267E+02 0.  0.
        254    2    1    2    0    0 -0.59379823339E+03 -0.30073155881E+03  0.10640776130E+04  0.15474053339E+04  0.90507805651E+03 0.  0.
         23    2    4    4    0    0 -0.72654109029E+03 -0.41945842118E+03  0.61468587871E+03  0.10440587022E+04  0.91719797522E+02 0.  0.
          4    1    3    3  502    0  0.17737562857E+03  0.51989539728E+02 -0.93549466644E+02  0.20716304825E+03  0.00000000000E+00 0. -1.
         -3    1    3    3    0  502  0.41642260482E+03  0.24874201908E+03 -0.28817989131E+03  0.56420566074E+03  0.00000000000E+00 0.  1.
         11    1    4    4    0    0  0.14988053279E+03  0.89327556647E+02  0.27511658341E+03  0.32578017274E+03  0.00000000000E+00 0. -1.
        -11    1    4    4    0    0 -0.17137675887E+02  0.29399305722E+02  0.17427515087E+03  0.17756645889E+03  0.00000000000E+00 0.  1.
          1    1    5    5  503    0 -0.52116315926E+03 -0.29890083461E+03  0.48981594402E+03  0.77515960067E+03  0.00000000000E+00 0. -1.
         -1    1    5    5    0  503 -0.20537793103E+03 -0.12055758657E+03  0.12486993470E+03  0.26889910157E+03  0.00000000000E+00 0.  1.
<mgrwt>
<rscale>  0 0.22161033E+04</rscale>
<asrwt>0</asrwt>
<pdfrwt beam="1">  1        2 0.23085556E+00 0.22161033E+04</pdfrwt>
<pdfrwt beam="2">  1       -1 0.12587891E+00 0.22161033E+04</pdfrwt>
<totfact> 0.72542082E+00</totfact>
</mgrwt>
</event>
<event>
12    6  0.1663299E-008  0.2264019E+04  0.7818608E-02  0.8492245E-01
         -1   -1    0    0    0  501 -0.00000000000E+00  0.00000000000E+00  0.14676910358E+04  0.14676910358E+04  0.00000000000E+00 0.  1.
          2   -1    0    0  501    0  0.00000000000E+00 -0.00000000000E+00 -0.87310295040E+03  0.87310295040E+03  0.00000000000E+00 0. -1.
         24    2    1    2    0    0 -0.78762934829E+03  0.28886481275E+03 -0.21702529116E+03  0.87009701263E+03  0.78523652892E+02 0.  0.
        254    2    1    2    0    0  0.78762934829E+03 -0.28886481275E+03  0.81161337657E+03  0.14706969736E+04  0.89466778458E+03 0.  0.
         23    2    4    4    0    0 -0.16616374829E+02 -0.39616393246E+03  0.28252567441E+03  0.49782028638E+03  0.10383792917E+03 0.  0.
         23    2    4    4    0    0  0.80424572312E+03  0.10729911971E+03  0.52908770217E+03  0.97287668721E+03  0.90724680724E+02 0.  0.
          4    1    3    3  502    0 -0.68461633146E+03  0.27638918045E+03 -0.20031404227E+03  0.76499425873E+03  0.00000000000E+00 0. -1.
         -3    1    3    3    0  502 -0.10301301683E+03  0.12475632301E+02 -0.16711248892E+02  0.10510275390E+03  0.00000000000E+00 0.  1.
         11    1    5    5    0    0  0.30335975890E+02 -0.37963087798E+02  0.35228310847E+02  0.60020840993E+02  0.00000000000E+00 0. -1.
        -11    1    5    5    0    0 -0.46952350718E+02 -0.35820084467E+03  0.24729736356E+03  0.43779944539E+03  0.00000000000E+00 0.  1.
          1    1    6    6  503    0  0.25547556613E+03  0.14253450670E+02  0.12312225453E+03  0.28395424861E+03  0.00000000000E+00 0. -1.
         -1    1    6    6    0  503  0.54877015698E+03  0.93045669044E+02  0.40596544764E+03  0.68892243860E+03  0.00000000000E+00 0.  1.
<mgrwt>
<rscale>  0 0.22640189E+04</rscale>
<asrwt>0</asrwt>
<pdfrwt beam="1">  1        2 0.13432353E+00 0.22640189E+04</pdfrwt>
<pdfrwt beam="2">  1       -1 0.22579862E+00 0.22640189E+04</pdfrwt>
<totfact> 0.31933459E+00</totfact>
</mgrwt>
</event>
<event>
11    6  0.1663299E-008  0.1844505E+04  0.7818608E-02  0.8682984E-01
         -1   -1    0    0    0  501 -0.00000000000E+00  0.00000000000E+00  0.22538194910E+04  0.22538194910E+04  0.00000000000E+00 0.  1.
          2   -1    0    0  501    0  0.00000000000E+00 -0.00000000000E+00 -0.37738145401E+03  0.37738145401E+03  0.00000000000E+00 0. -1.
         24    2    1    2    0    0 -0.36171865326E+03  0.38665319734E+03  0.62665877066E+02  0.53903041763E+03  0.79282405720E+02 0.  0.
        254    2    1    2    0    0  0.36171865326E+03 -0.38665319734E+03  0.18137721599E+04  0.20921705273E+04  0.89836907136E+03 0.  0.
         23    2    4    4    0    0 -0.20883561973E+03  0.59817492889E+02  0.18447574534E+03  0.29873552649E+03  0.89560960490E+02 0.  0.
          4    1    3    3  502    0 -0.27229544468E+03  0.33642065789E+03  0.50499646485E+02  0.43574520370E+03  0.00000000000E+00 0. -1.
         -3    1    3    3    0  502 -0.89423208571E+02  0.50232539453E+02  0.12166230581E+02  0.10328521393E+03  0.00000000000E+00 0.  1.
         11    1    4    4    0    0  0.10676405569E+03 -0.72530461858E+02  0.14547394163E+03  0.19447853141E+03  0.00000000000E+00 0.  1.
        -11    1    4    4    0    0  0.46379021729E+03 -0.37394022837E+03  0.14838224729E+04  0.15989564694E+04  0.00000000000E+00 0. -1.
          3    1    5    5  503    0 -0.21353011093E+03  0.65433806798E+02  0.18669441917E+03  0.29108675252E+03  0.00000000000E+00 0. -1.
         -3    1    5    5    0  503  0.46944911999E+01 -0.56163139086E+01 -0.22186738333E+01  0.76487739621E+01  0.00000000000E+00 0.  1.
<mgrwt>
<rscale>  0 0.18445050E+04</rscale>
<asrwt>0</asrwt>
<pdfrwt beam="1">  1        2 0.58058687E-01 0.18445050E+04</pdfrwt>
<pdfrwt beam="2">  1       -1 0.34674145E+00 0.18445050E+04</pdfrwt>
<totfact> 0.14947203E+00</totfact>
</mgrwt>
</event>
<event>
12    6  0.1663299E-008  0.5105034E+04  0.7818608E-02  0.7812506E-01
          2   -1    0    0  501    0  0.00000000000E+00  0.00000000000E+00  0.52890008104E+04  0.52890008104E+04  0.00000000000E+00 0. -1.
         -1   -1    0    0    0  501 -0.00000000000E+00 -0.00000000000E+00 -0.12318666018E+04  0.12318666018E+04  0.00000000000E+00 0.  1.
         24    2    1    2    0    0  0.17992019896E+04  0.11749963231E+04  0.35347885065E+04  0.41374785801E+04  0.79088913146E+02 0.  0.
        254    2    1    2    0    0 -0.17992019896E+04 -0.11749963231E+04  0.52234570211E+03  0.23833888322E+04  0.88879307726E+03 0.  0.
         23    2    4    4    0    0 -0.89273280992E+02 -0.29700204361E+03  0.30231120637E+03  0.44654241205E+03  0.10875719589E+03 0.  0.
         23    2    4    4    0    0 -0.17099287086E+04 -0.87799427949E+03  0.22003449574E+03  0.19368464202E+04  0.90712361396E+02 0.  0.
          4    1    3    3  502    0  0.16464574757E+04  0.10909231339E+04  0.32137911364E+04  0.37721862324E+04  0.00000000000E+00 0. -1.
         -1    1    3    3    0  502  0.15274451390E+03  0.84073189161E+02  0.32099737003E+03  0.36529234762E+03  0.00000000000E+00 0.  1.
         11    1    5    5    0    0 -0.10306733118E+03 -0.16086015969E+03  0.19099870544E+03  0.27014694374E+03  0.00000000000E+00 0. -1.
        -11    1    5    5    0    0  0.13794050189E+02 -0.13614188392E+03  0.11131250093E+03  0.17639546831E+03  0.00000000000E+00 0.  1.
          3    1    6    6  503    0 -0.10406986589E+04 -0.49088036198E+03  0.10951158100E+03  0.11558589944E+04  0.00000000000E+00 0. -1.
         -3    1    6    6    0  503 -0.66923004970E+03 -0.38711391751E+03  0.11052291474E+03  0.78098742578E+03  0.00000000000E+00 0.  1.
<mgrwt>
<rscale>  0 0.51050342E+04</rscale>
<asrwt>0</asrwt>
<pdfrwt beam="1">  1        2 0.81369242E+00 0.51050342E+04</pdfrwt>
<pdfrwt beam="2">  1       -1 0.18951794E+00 0.51050342E+04</pdfrwt>
<totfact> 0.19297609E-03</totfact>
</mgrwt>
</event>
<event>
12    6  0.1663299E-008  0.1981205E+04  0.7818608E-02  0.8615459E-01
          2   -1    0    0  501    0  0.00000000000E+00  0.00000000000E+00  0.18542149706E+04  0.18542149706E+04  0.00000000000E+00 0. -1.
         -1   -1    0    0    0  501 -0.00000000000E+00 -0.00000000000E+00 -0.52922293912E+03  0.52922293912E+03  0.00000000000E+00 0.  1.
         24    2    1    2    0    0 -0.31054814139E+03  0.19698330912E+02 -0.34016050459E+03  0.46828091472E+03  0.82156398718E+02 0.  0.
        254    2    1    2    0    0  0.31054814139E+03 -0.19698330912E+02  0.16651525361E+04  0.19151569950E+04  0.89345686787E+03 0.  0.
         23    2    4    4    0    0  0.53925984272E+03 -0.10990076138E+03  0.61279263323E+03  0.83065760950E+03  0.10769353534E+03 0.  0.
         23    2    4    4    0    0 -0.22871170133E+03  0.90202430467E+02  0.10523599028E+04  0.10844993855E+04  0.90730542058E+02 0.  0.
          2    1    3    3  502    0 -0.19796513606E+03  0.46936744617E+01 -0.15675764120E+03  0.25255728805E+03  0.00000000000E+00 0. -1.
         -1    1    3    3    0  502 -0.11258300533E+03  0.15004656450E+02 -0.18340286338E+03  0.21572362667E+03  0.00000000000E+00 0.  1.
         11    1    5    5    0    0  0.49343125054E+03 -0.95178917207E+02  0.59621624573E+03  0.77974818818E+03  0.00000000000E+00 0. -1.
        -11    1    5    5    0    0  0.45828592175E+02 -0.14721844172E+02  0.16576387501E+02  0.50909421320E+02  0.00000000000E+00 0.  1.
          3    1    6    6  503    0 -0.20233308041E+03  0.10883639430E+03  0.92698960179E+03  0.95503599827E+03  0.00000000000E+00 0. -1.
         -3    1    6    6    0  503 -0.26378620916E+02 -0.18633963836E+02  0.12537030104E+03  0.12946338723E+03  0.00000000000E+00 0.  1.
<mgrwt>
<rscale>  0 0.19812048E+04</rscale>
<asrwt>0</asrwt>
<pdfrwt beam="1">  1        2 0.28526384E+00 0.19812048E+04</pdfrwt>
<pdfrwt beam="2">  1       -1 0.81418915E-01 0.19812048E+04</pdfrwt>
<totfact> 0.12815195E+01</totfact>
</mgrwt>
</event>
<event>
11    6  0.1663299E-008  0.1885997E+04  0.7818608E-02  0.8661858E-01
          2   -1    0    0  501    0  0.00000000000E+00  0.00000000000E+00  0.76844657103E+03  0.76844657103E+03  0.00000000000E+00 0. -1.
         -1   -1    0    0    0  501 -0.00000000000E+00 -0.00000000000E+00 -0.11571995575E+04  0.11571995575E+04  0.00000000000E+00 0.  1.
         24    2    1    2    0    0  0.50262334937E+03 -0.10020059889E+03  0.36095674274E+03  0.63134271183E+03  0.75056367538E+02 0.  0.
        254    2    1    2    0    0 -0.50262334937E+03  0.10020059889E+03 -0.74970972917E+03  0.12943034167E+04  0.92221812226E+03 0.  0.
         23    2    4    4    0    0  0.21178951637E+03  0.71599424464E+02  0.10604233116E+02  0.24263509065E+03  0.93691304979E+02 0.  0.
          4    1    3    3  502    0  0.46298131232E+03 -0.11211319465E+03  0.32691615761E+03  0.57775015195E+03  0.00000000000E+00 0. -1.
         -3    1    3    3    0  502  0.39642037046E+02  0.11912595755E+02  0.34040585127E+02  0.53592559881E+02  0.00000000000E+00 0.  1.
         11    1    4    4    0    0 -0.71219168129E+03  0.15389314827E+02 -0.73856974872E+03  0.10261282062E+04  0.00000000000E+00 0. -1.
        -11    1    4    4    0    0 -0.22211844462E+01  0.13211859604E+02 -0.21744213568E+02  0.25540119777E+02  0.00000000000E+00 0.  1.
          2    1    5    5  503    0  0.21540374444E+03  0.54371160659E+02  0.19308557852E+02  0.22299734670E+03  0.00000000000E+00 0. -1.
         -2    1    5    5    0  503 -0.36142280728E+01  0.17228263805E+02 -0.87043247357E+01  0.19637743948E+02  0.00000000000E+00 0.  1.
<mgrwt>
<rscale>  0 0.18859969E+04</rscale>
<asrwt>0</asrwt>
<pdfrwt beam="1">  1        2 0.11822255E+00 0.18859969E+04</pdfrwt>
<pdfrwt beam="2">  1       -1 0.17803070E+00 0.18859969E+04</pdfrwt>
<totfact> 0.83601300E+00</totfact>
</mgrwt>
</event>
<event>
12    6  0.1663299E-008  0.1639847E+04  0.7818608E-02  0.8796435E-01
         -3   -1    0    0    0  501 -0.00000000000E+00  0.00000000000E+00  0.48195980568E+03  0.48195980568E+03  0.00000000000E+00 0.  1.
          2   -1    0    0  501    0  0.00000000000E+00 -0.00000000000E+00 -0.13948772998E+04  0.13948772998E+04  0.00000000000E+00 0. -1.
         24    2    1    2    0    0  0.34910077276E+03 -0.22142783053E+03 -0.85291752500E+03  0.95101431029E+03  0.77834955147E+02 0.  0.
        254    2    1    2    0    0 -0.34910077276E+03  0.22142783053E+03 -0.59999969114E+02  0.92582279519E+03  0.82622407259E+03 0.  0.
         23    2    4    4    0    0 -0.71226575977E+02  0.48732068988E+03 -0.15174366630E+03  0.52027446216E+03  0.71447153953E+02 0.  0.
         23    2    4    4    0    0 -0.27787419678E+03 -0.26589285935E+03  0.91743697185E+02  0.40554833303E+03  0.90218970066E+02 0.  0.
          2    1    3    3  502    0  0.19297830744E+03 -0.87631352558E+02 -0.37510230113E+03  0.43083827291E+03  0.00000000000E+00 0. -1.
         -1    1    3    3    0  502  0.15612246532E+03 -0.13379647797E+03 -0.47781522387E+03  0.52017603737E+03  0.00000000000E+00 0.  1.
         11    1    5    5    0    0 -0.18412312840E+02  0.96454397022E+02 -0.14946037597E+01  0.98207422375E+02  0.00000000000E+00 0. -1.
        -11    1    5    5    0    0 -0.52814263138E+02  0.39086629286E+03 -0.15024906254E+03  0.42206703979E+03  0.00000000000E+00 0.  1.
          4    1    6    6  503    0 -0.27370790100E+02 -0.75738694985E+02  0.18223686775E+02  0.82568836908E+02  0.00000000000E+00 0. -1.
         -4    1    6    6    0  503 -0.25050340668E+03 -0.19015416436E+03  0.73520010410E+02  0.32297949612E+03  0.00000000000E+00 0.  1.
<mgrwt>
<rscale>  0 0.16398473E+04</rscale>
<asrwt>0</asrwt>
<pdfrwt beam="1">  1        2 0.21459650E+00 0.16398473E+04</pdfrwt>
<pdfrwt beam="2">  1       -3 0.74147664E-01 0.16398473E+04</pdfrwt>
<totfact> 0.15278255E+01</totfact>
</mgrwt>
</event>
<event>
12    6  0.1663299E-008  0.2346028E+04  0.7818608E-02  0.8459991E-01
          2   -1    0    0  501    0  0.00000000000E+00  0.00000000000E+00  0.20820473728E+04  0.20820473728E+04  0.00000000000E+00 0. -1.
         -1   -1    0    0    0  501 -0.00000000000E+00 -0.00000000000E+00 -0.66086938584E+03  0.66086938584E+03  0.00000000000E+00 0.  1.
         24    2    1    2    0    0  0.78369673355E+03 -0.30913970198E+03  0.12192832886E+04  0.14840097090E+04  0.76714751135E+02 0.  0.
        254    2    1    2    0    0 -0.78369673355E+03  0.30913970198E+03  0.20189469829E+03  0.12589070496E+04  0.91342080376E+03 0.  0.
         23    2    4    4    0    0  0.17353645450E+03  0.14122581791E+03 -0.36627461110E+02  0.25386625293E+03  0.11422289956E+03 0.  0.
         23    2    4    4    0    0 -0.95723318805E+03  0.16791388407E+03  0.23852215940E+03  0.10050407966E+04  0.93400929438E+02 0.  0.
          2    1    3    3  502    0  0.14378668378E+03 -0.43957335204E+02  0.26738739795E+03  0.30676192451E+03  0.00000000000E+00 0. -1.
         -1    1    3    3    0  502  0.63991004977E+03 -0.26518236678E+03  0.95189589070E+03  0.11772477845E+04  0.00000000000E+00 0.  1.
         11    1    5    5    0    0 -0.27814611203E+01 -0.33178103636E+01 -0.25218930207E+02  0.25587864944E+02  0.00000000000E+00 0. -1.
        -11    1    5    5    0    0  0.17631791562E+03  0.14454362827E+03 -0.11408530903E+02  0.22827838798E+03  0.00000000000E+00 0.  1.
          2    1    6    6  503    0 -0.44998815000E+03  0.12619971979E+03  0.11097657016E+03  0.48034519206E+03  0.00000000000E+00 0. -1.
         -2    1    6    6    0  503 -0.50724503805E+03  0.41714164288E+02  0.12754558924E+03  0.52469560458E+03  0.00000000000E+00 0.  1.
<mgrwt>
<rscale>  0 0.23460276E+04</rscale>
<asrwt>0</asrwt>
<pdfrwt beam="1">  1        2 0.32031498E+00 0.23460276E+04</pdfrwt>
<pdfrwt beam="2">  1       -1 0.10167221E+00 0.23460276E+04</pdfrwt>
<totfact> 0.56695873E+00</totfact>
</mgrwt>
</event>
<event>
11    6  0.1663299E-008  0.2448490E+04  0.7818608E-02  0.8421569E-01
         -1   -1    0    0    0  501 -0.00000000000E+00  0.00000000000E+00  0.10087987479E+04  0.10087987479E+04  0.00000000000E+00 0.  1.
          2   -1    0    0  501    0  0.00000000000E+00 -0.00000000000E+00 -0.14857039830E+04  0.14857039830E+04  0.00000000000E+00 0. -1.
         24    2    1    2    0    0  0.48126356154E+03 -0.94246212452E+02 -0.11681089280E+04  0.12693245404E+04  0.78799472734E+02 0.  0.
        254    2    1    2    0    0 -0.48126356154E+03  0.94246212452E+02  0.69120369291E+03  0.12251781905E+04  0.88476103507E+03 0.  0.
         23    2    4    4    0    0 -0.65373349221E+02 -0.15596195543E+03  0.69468046615E+03  0.72037988768E+03  0.88138675891E+02 0.  0.
          4    1    3    3  502    0  0.46032826550E+03 -0.92201363499E+02 -0.10618453589E+04  0.11609990395E+04  0.00000000000E+00 0. -1.
         -3    1    3    3    0  502  0.20935296041E+02 -0.20448489531E+01 -0.10626356910E+03  0.10832550090E+03  0.00000000000E+00 0.  1.
         11    1    4    4    0    0 -0.37308640107E+03  0.16286222747E+03 -0.11046399880E+02  0.40723407366E+03  0.00000000000E+00 0. -1.
        -11    1    4    4    0    0 -0.42803811244E+02  0.87345940421E+02  0.75696266334E+01  0.97564229164E+02  0.00000000000E+00 0.  1.
          3    1    5    5  503    0 -0.37232489032E+02 -0.10421468673E+03  0.58977967180E+03  0.60007251265E+03  0.00000000000E+00 0. -1.
         -3    1    5    5    0  503 -0.28140860189E+02 -0.51747268704E+02  0.10490079435E+03  0.12030737503E+03  0.00000000000E+00 0.  1.
<mgrwt>
<rscale>  0 0.24484904E+04</rscale>
<asrwt>0</asrwt>
<pdfrwt beam="1">  1        2 0.22856984E+00 0.24484904E+04</pdfrwt>
<pdfrwt beam="2">  1       -1 0.15519981E+00 0.24484904E+04</pdfrwt>
<totfact> 0.41958483E+00</totfact>
</mgrwt>
</event>
<event>
12    6  0.1663299E-008  0.2119194E+04  0.7818608E-02  0.8552835E-01
          2   -1    0    0  501    0  0.00000000000E+00  0.00000000000E+00  0.13398843341E+04  0.13398843341E+04  0.00000000000E+00 0. -1.
         -1   -1    0    0    0  501 -0.00000000000E+00 -0.00000000000E+00 -0.83794206274E+03  0.83794206274E+03  0.00000000000E+00 0.  1.
         24    2    1    2    0    0 -0.31879934506E+03 -0.62681372053E+03 -0.35665472281E+03  0.79221054867E+03  0.76593077105E+02 0.  0.
        254    2    1    2    0    0  0.31879934506E+03  0.62681372053E+03  0.85859699418E+03  0.13856158482E+04  0.82958665469E+03 0.  0.
         23    2    4    4    0    0  0.27756689015E+03  0.57085964534E+02 -0.51800488270E+02  0.30697211549E+03  0.10604906057E+03 0.  0.
         23    2    4    4    0    0  0.41232454910E+02  0.56972775600E+03  0.91039748245E+03  0.10786437327E+04  0.91426991173E+02 0.  0.
          2    1    3    3  502    0 -0.59528208037E+01  0.86657596352E+00 -0.38903013832E+01  0.71639007722E+01  0.00000000000E+00 0. -1.
         -1    1    3    3    0  502 -0.31284652426E+03 -0.62768029649E+03 -0.35276442143E+03  0.78504664790E+03  0.00000000000E+00 0.  1.
         11    1    5    5    0    0  0.21269627812E+03  0.13041442249E+02 -0.73835456899E+02  0.22552485592E+03  0.00000000000E+00 0. -1.
        -11    1    5    5    0    0  0.64870612030E+02  0.44044522285E+02  0.22034968628E+02  0.81447259567E+02  0.00000000000E+00 0.  1.
          2    1    6    6  503    0  0.68346828450E+02  0.36051540677E+03  0.60124443991E+03  0.70437030318E+03  0.00000000000E+00 0. -1.
         -2    1    6    6    0  503 -0.27114373539E+02  0.20921234922E+03  0.30915304254E+03  0.37427342950E+03  0.00000000000E+00 0.  1.
<mgrwt>
<rscale>  0 0.21191937E+04</rscale>
<asrwt>0</asrwt>
<pdfrwt beam="1">  1        2 0.20613605E+00 0.21191937E+04</pdfrwt>
<pdfrwt beam="2">  1       -1 0.12891416E+00 0.21191937E+04</pdfrwt>
<totfact> 0.85133939E+00</totfact>
</mgrwt>
</event>
<event>
12    6  0.2054914E-008  0.2364507E+04  0.7818608E-02  0.8452912E-01
         -1   -1    0    0    0  501 -0.00000000000E+00  0.00000000000E+00  0.13035897002E+04  0.13035897002E+04  0.00000000000E+00 0.  1.
          2   -1    0    0  501    0  0.00000000000E+00 -0.00000000000E+00 -0.10722111595E+04  0.10722111595E+04  0.00000000000E+00 0. -1.
         24    2    1    2    0    0  0.67049789379E+03  0.57640909149E+03 -0.40162944415E+03  0.97425678740E+03  0.77815236599E+02 0.  0.
        254    2    1    2    0    0 -0.67049789379E+03 -0.57640909149E+03  0.63300798493E+03  0.14015440723E+04  0.88420122781E+03 0.  0.
         23    2    4    4    0    0 -0.61506614581E+03  0.15517137815E+02  0.46048714788E+03  0.77546895116E+03  0.10371371928E+03 0.  0.
         23    2    4    4    0    0 -0.55431747978E+02 -0.59192622931E+03  0.17252083705E+03  0.62607512113E+03  0.93580331561E+02 0.  0.
          2    1    3    3  502    0  0.56214567605E+03  0.46741824098E+03 -0.30141010492E+03  0.79078165409E+03  0.00000000000E+00 0. -1.
         -1    1    3    3    0  502  0.10835221774E+03  0.10899085052E+03 -0.10021933923E+03  0.18347513330E+03  0.00000000000E+00 0.  1.
         11    1    5    5    0    0 -0.79635403372E+02 -0.16482722565E+02  0.26595425543E+02  0.85561640197E+02  0.00000000000E+00 0.  1.
        -11    1    5    5    0    0 -0.53543074244E+03  0.31999860380E+02  0.43389172233E+03  0.68990731097E+03  0.00000000000E+00 0. -1.
          2    1    6    6  503    0  0.84583854802E+01 -0.33226116571E+03  0.69826887336E+02  0.33962452903E+03  0.00000000000E+00 0. -1.
         -2    1    6    6    0  503 -0.63890133458E+02 -0.25966506360E+03  0.10269394972E+03  0.28645059211E+03  0.00000000000E+00 0.  1.
<mgrwt>
<rscale>  0 0.23645071E+04</rscale>
<asrwt>0</asrwt>
<pdfrwt beam="1">  1        2 0.16495556E+00 0.23645071E+04</pdfrwt>
<pdfrwt beam="2">  1       -1 0.20055226E+00 0.23645071E+04</pdfrwt>
<totfact> 0.34773672E+00</totfact>
</mgrwt>
</event>
<event>
12    6  0.1663299E-008  0.2049165E+04  0.7818608E-02  0.8583973E-01
          2   -1    0    0  501    0  0.00000000000E+00  0.00000000000E+00  0.16627262822E+04  0.16627262822E+04  0.00000000000E+00 0. -1.
         -1   -1    0    0    0  501 -0.00000000000E+00 -0.00000000000E+00 -0.63135437944E+03  0.63135437944E+03  0.00000000000E+00 0.  1.
         24    2    1    2    0    0 -0.24211901865E+03  0.11481107262E+03 -0.45759152355E+03  0.53622405776E+03  0.79643179949E+02 0.  0.
        254    2    1    2    0    0  0.24211901865E+03 -0.11481107262E+03  0.14889634263E+04  0.17578566038E+04  0.89512264709E+03 0.  0.
         23    2    4    4    0    0  0.65486621752E+02  0.37799226857E+03  0.58818475770E+03  0.71176175166E+03  0.11608974635E+03 0.  0.
         23    2    4    4    0    0  0.17663239689E+03 -0.49280334119E+03  0.90077866856E+03  0.10460948522E+04  0.94117444149E+02 0.  0.
          2    1    3    3  502    0 -0.16881863882E+03  0.37656192401E+02 -0.27452376199E+03  0.32447036465E+03  0.00000000000E+00 0. -1.
         -1    1    3    3    0  502 -0.73300379828E+02  0.77154880220E+02 -0.18306776156E+03  0.21175369311E+03  0.00000000000E+00 0.  1.
         11    1    5    5    0    0  0.44040048790E+02  0.36515413865E+03  0.57727808535E+03  0.68449036421E+03  0.00000000000E+00 0.  1.
        -11    1    5    5    0    0  0.21446572962E+02  0.12838129921E+02  0.10906672350E+02  0.27271387450E+02  0.00000000000E+00 0. -1.
          3    1    6    6  503    0  0.85380914324E+02 -0.19953617664E+03  0.46272939183E+03  0.51109986929E+03  0.00000000000E+00 0. -1.
         -3    1    6    6    0  503  0.91251482569E+02 -0.29326716455E+03  0.43804927673E+03  0.53499498289E+03  0.00000000000E+00 0.  1.
<mgrwt>
<rscale>  0 0.20491652E+04</rscale>
<asrwt>0</asrwt>
<pdfrwt beam="1">  1        2 0.25580404E+00 0.20491652E+04</pdfrwt>
<pdfrwt beam="2">  1       -1 0.97131444E-01 0.20491652E+04</pdfrwt>
<totfact> 0.11042294E+01</totfact>
</mgrwt>
</event>
<event>
11    6  0.1663299E-008  0.1716755E+04  0.7818608E-02  0.8751866E-01
          2   -1    0    0  501    0  0.00000000000E+00  0.00000000000E+00  0.21600534986E+04  0.21600534986E+04  0.00000000000E+00 0. -1.
         -1   -1    0    0    0  501 -0.00000000000E+00 -0.00000000000E+00 -0.34110813694E+03  0.34110813694E+03  0.00000000000E+00 0.  1.
         24    2    1    2    0    0  0.77410170190E+02 -0.31586976475E+03 -0.11240183559E+03  0.35336550860E+03  0.80417456426E+02 0.  0.
        254    2    1    2    0    0 -0.77410170190E+02  0.31586976475E+03  0.19313471973E+04  0.21477961270E+04  0.88156687995E+03 0.  0.
         23    2    4    4    0    0 -0.22754497529E+03  0.48064048135E+03  0.73163565024E+03  0.90907266268E+03  0.91270987922E+02 0.  0.
          2    1    3    3  502    0 -0.14468721269E+01 -0.60202964872E+02  0.65250761414E+01  0.60572824244E+02  0.00000000000E+00 0. -1.
         -1    1    3    3    0  502  0.78857042316E+02 -0.25566679987E+03 -0.11892691173E+03  0.29279268436E+03  0.00000000000E+00 0.  1.
         11    1    4    4    0    0  0.39051156928E+02 -0.59061184815E+02  0.73263277894E+02  0.10188583953E+03  0.00000000000E+00 0. -1.
        -11    1    4    4    0    0  0.11108364817E+03 -0.10570953179E+03  0.11264482691E+04  0.11368376247E+04  0.00000000000E+00 0.  1.
          3    1    5    5  503    0 -0.42272053620E+02  0.72909334668E+02  0.67171151129E+02  0.10777133730E+03  0.00000000000E+00 0. -1.
         -3    1    5    5    0  503 -0.18527292167E+03  0.40773114668E+03  0.66446449911E+03  0.80130132538E+03  0.00000000000E+00 0.  1.
<mgrwt>
<rscale>  0 0.17167549E+04</rscale>
<asrwt>0</asrwt>
<pdfrwt beam="1">  1        2 0.33231591E+00 0.17167549E+04</pdfrwt>
<pdfrwt beam="2">  1       -1 0.52478176E-01 0.17167549E+04</pdfrwt>
<totfact> 0.21539247E+01</totfact>
</mgrwt>
</event>
<event>
12    6  0.1663299E-008  0.1782434E+04  0.7818608E-02  0.8715697E-01
         -1   -1    0    0    0  501 -0.00000000000E+00  0.00000000000E+00  0.89445254893E+03  0.89445254893E+03  0.00000000000E+00 0.  1.
          2   -1    0    0  501    0  0.00000000000E+00 -0.00000000000E+00 -0.88799355845E+03  0.88799355845E+03  0.00000000000E+00 0. -1.
         24    2    1    2    0    0 -0.39649967500E+03 -0.13197486531E+02  0.53302716842E+03  0.66930733828E+03  0.80425026441E+02 0.  0.
        254    2    1    2    0    0  0.39649967500E+03  0.13197486531E+02 -0.52656817793E+03  0.11131387691E+04  0.89689336453E+03 0.  0.
         23    2    4    4    0    0  0.41006122604E+03 -0.32843271409E+03 -0.53418330594E+03  0.75915506049E+03  0.12225524418E+03 0.  0.
         23    2    4    4    0    0 -0.13561551045E+02  0.34163020062E+03  0.76151280088E+01  0.35398370861E+03  0.91385809330E+02 0.  0.
          4    1    3    3  502    0 -0.87083897064E+02 -0.34850699107E+02  0.10636743170E+03  0.14181751261E+03  0.00000000000E+00 0. -1.
         -3    1    3    3    0  502 -0.30941577794E+03  0.21653212576E+02  0.42665973672E+03  0.52748982567E+03  0.00000000000E+00 0.  1.
         11    1    5    5    0    0  0.35576396958E+03 -0.26160975500E+03 -0.38012482037E+03  0.58266846922E+03  0.00000000000E+00 0. -1.
        -11    1    5    5    0    0  0.54297256463E+02 -0.66822959088E+02 -0.15405848557E+03  0.17648659126E+03  0.00000000000E+00 0.  1.
          4    1    6    6  503    0  0.39650137862E+01  0.22500253246E+03 -0.36670928956E+02  0.22800574111E+03  0.00000000000E+00 0. -1.
         -4    1    6    6    0  503 -0.17526564831E+02  0.11662766815E+03  0.44286056965E+02  0.12597796750E+03  0.00000000000E+00 0.  1.
<mgrwt>
<rscale>  0 0.17824344E+04</rscale>
<asrwt>0</asrwt>
<pdfrwt beam="1">  1        2 0.13661439E+00 0.17824344E+04</pdfrwt>
<pdfrwt beam="2">  1       -1 0.13760809E+00 0.17824344E+04</pdfrwt>
<totfact> 0.14134901E+01</totfact>
</mgrwt>
</event>
<event>
12    6  0.1663299E-008  0.2209603E+04  0.7818608E-02  0.8514442E-01
          2   -1    0    0  501    0  0.00000000000E+00  0.00000000000E+00  0.20896501056E+04  0.20896501056E+04  0.00000000000E+00 0. -1.
         -1   -1    0    0    0  501 -0.00000000000E+00 -0.00000000000E+00 -0.58411021935E+03  0.58411021935E+03  0.00000000000E+00 0.  1.
         24    2    1    2    0    0  0.22235878222E+03  0.63129704589E+03 -0.12977158440E+03  0.68639745102E+03  0.79507285585E+02 0.  0.
        254    2    1    2    0    0 -0.22235878222E+03 -0.63129704589E+03  0.16353114706E+04  0.19873628739E+04  0.90960881616E+03 0.  0.
         23    2    4    4    0    0 -0.33664763180E+03 -0.62422156736E+03  0.16854583942E+04  0.18317402822E+04  0.10732320252E+03 0.  0.
         23    2    4    4    0    0  0.11428884958E+03 -0.70754785361E+01 -0.50146923561E+02  0.15562259169E+03  0.92691280975E+02 0.  0.
          2    1    3    3  502    0  0.44473950049E+02  0.10735893691E+03  0.70505562428E+01  0.11641986046E+03  0.00000000000E+00 0. -1.
         -1    1    3    3    0  502  0.17788483217E+03  0.52393810899E+03 -0.13682214064E+03  0.56997759056E+03  0.00000000000E+00 0.  1.
         11    1    5    5    0    0 -0.35949855759E+02 -0.13468613187E+03  0.40447883528E+03  0.42782692112E+03  0.00000000000E+00 0.  1.
        -11    1    5    5    0    0 -0.30069777604E+03 -0.48953543549E+03  0.12809795589E+04  0.14039133611E+04  0.00000000000E+00 0. -1.
          2    1    6    6  503    0  0.58354073637E+02 -0.22090691451E+02 -0.70582677102E+02  0.94207806819E+02  0.00000000000E+00 0. -1.
         -2    1    6    6    0  503  0.55934775940E+02  0.15015212915E+02  0.20435753542E+02  0.61414784875E+02  0.00000000000E+00 0.  1.
<mgrwt>
<rscale>  0 0.22096027E+04</rscale>
<asrwt>0</asrwt>
<pdfrwt beam="1">  1        2 0.32148463E+00 0.22096027E+04</pdfrwt>
<pdfrwt beam="2">  1       -1 0.89863112E-01 0.22096027E+04</pdfrwt>
<totfact> 0.75014578E+00</totfact>
</mgrwt>
</event>
<event>
12    6  0.1663299E-008  0.1394849E+04  0.7818608E-02  0.8957555E-01
         -3   -1    0    0    0  501 -0.00000000000E+00  0.00000000000E+00  0.12017867547E+04  0.12017867547E+04  0.00000000000E+00 0.  1.
          4   -1    0    0  501    0  0.00000000000E+00 -0.00000000000E+00 -0.40473170728E+03  0.40473170728E+03  0.00000000000E+00 0. -1.
         24    2    1    2    0    0 -0.22197917269E+02  0.37145817009E+03  0.50525566161E+02  0.38374505827E+03  0.78952626622E+02 0.  0.
        254    2    1    2    0    0  0.22197917269E+02 -0.37145817009E+03  0.74652948130E+03  0.12227734038E+04  0.89408870412E+03 0.  0.
         23    2    4    4    0    0  0.52713424351E+02 -0.26128355821E+03  0.93761095067E+03  0.98245766639E+03  0.12272313770E+03 0.  0.
         23    2    4    4    0    0 -0.30515507082E+02 -0.11017461188E+03 -0.19108146938E+03  0.24031573737E+03  0.90387412916E+02 0.  0.
          4    1    3    3  502    0 -0.60096332795E+01  0.11944223526E+03  0.53920698979E+02  0.13118690878E+03  0.00000000000E+00 0. -1.
         -3    1    3    3    0  502 -0.16188283990E+02  0.25201593483E+03 -0.33951328179E+01  0.25255814949E+03  0.00000000000E+00 0.  1.
         11    1    5    5    0    0  0.24816026833E+02 -0.91337763509E+01  0.29682544638E+02  0.39753169867E+02  0.00000000000E+00 0. -1.
        -11    1    5    5    0    0  0.27897397518E+02 -0.25214978186E+03  0.90792840604E+03  0.94270449653E+03  0.00000000000E+00 0.  1.
          3    1    6    6  503    0  0.29169451870E+02 -0.15472825359E+02 -0.33655044309E+02  0.47147929482E+02  0.00000000000E+00 0. -1.
         -3    1    6    6    0  503 -0.59684958951E+02 -0.94701786518E+02 -0.15742642507E+03  0.19316780789E+03  0.00000000000E+00 0.  1.
<mgrwt>
<rscale>  0 0.13948494E+04</rscale>
<asrwt>0</asrwt>
<pdfrwt beam="1">  1        4 0.62266417E-01 0.13948494E+04</pdfrwt>
<pdfrwt beam="2">  1       -3 0.18489027E+00 0.13948494E+04</pdfrwt>
<totfact> 0.98939661E-01</totfact>
</mgrwt>
</event>
<event>
12    6  0.1663299E-008  0.1317952E+04  0.7818608E-02  0.9015449E-01
          2   -1    0    0  501    0  0.00000000000E+00  0.00000000000E+00  0.73443795089E+03  0.73443795089E+03  0.00000000000E+00 0. -1.
         -1   -1    0    0    0  501 -0.00000000000E+00 -0.00000000000E+00 -0.59126719648E+03  0.59126719648E+03  0.00000000000E+00 0.  1.
         24    2    1    2    0    0  0.28160317085E+03 -0.39675044785E+02 -0.15996022232E+03  0.33576903647E+03  0.79240886638E+02 0.  0.
        254    2    1    2    0    0 -0.28160317085E+03  0.39675044785E+02  0.30313097673E+03  0.98993611090E+03  0.89844903006E+03 0.  0.
         23    2    4    4    0    0  0.21505778794E+03 -0.33824399422E+02 -0.16847127021E+03  0.29462734308E+03  0.10501790444E+03 0.  0.
         23    2    4    4    0    0 -0.49666095879E+03  0.73499444207E+02  0.47160224694E+03  0.69530876782E+03  0.94717089295E+02 0.  0.
          2    1    3    3  502    0  0.15196303475E+03 -0.21379038804E+02 -0.40929925769E+02  0.15882407266E+03  0.00000000000E+00 0. -1.
         -1    1    3    3    0  502  0.12964013610E+03 -0.18296005981E+02 -0.11903029655E+03  0.17694496381E+03  0.00000000000E+00 0.  1.
         11    1    5    5    0    0  0.68941642054E+02 -0.41028691616E+02 -0.11209635636E+03  0.13784736723E+03  0.00000000000E+00 0.  1.
        -11    1    5    5    0    0  0.14611614589E+03  0.72042921933E+01 -0.56374913858E+02  0.15677997585E+03  0.00000000000E+00 0. -1.
          1    1    6    6  503    0 -0.44208612818E+03  0.70512360156E+02  0.37355768042E+03  0.58305872626E+03  0.00000000000E+00 0. -1.
         -1    1    6    6    0  503 -0.54574830612E+02  0.29870840511E+01  0.98044566515E+02  0.11225004156E+03  0.00000000000E+00 0.  1.
<mgrwt>
<rscale>  0 0.13179515E+04</rscale>
<asrwt>0</asrwt>
<pdfrwt beam="1">  1        2 0.11299045E+00 0.13179515E+04</pdfrwt>
<pdfrwt beam="2">  1       -1 0.90964185E-01 0.13179515E+04</pdfrwt>
<totfact> 0.50848146E+01</totfact>
</mgrwt>
</event>
<event>
12    6  0.1663299E-008  0.1462143E+04  0.7818608E-02  0.8910025E-01
         -1   -1    0    0    0  501 -0.00000000000E+00  0.00000000000E+00  0.23666228497E+03  0.23666228497E+03  0.00000000000E+00 0.  1.
          2   -1    0    0  501    0  0.00000000000E+00 -0.00000000000E+00 -0.22583466595E+04  0.22583466595E+04  0.00000000000E+00 0. -1.
         24    2    1    2    0    0  0.35647615633E+02  0.26516441827E+03 -0.11982565702E+02  0.27941028670E+03  0.79646752684E+02 0.  0.
        254    2    1    2    0    0 -0.35647615633E+02 -0.26516441827E+03 -0.20097018088E+04  0.22155986577E+04  0.89352847223E+03 0.  0.
         23    2    4    4    0    0  0.11458556500E+03 -0.56389159646E+03 -0.12130645185E+04  0.13470442638E+04  0.10908317127E+03 0.  0.
         23    2    4    4    0    0 -0.15023318064E+03  0.29872717818E+03 -0.79663729029E+03  0.86855439396E+03  0.89150588563E+02 0.  0.
          4    1    3    3  502    0 -0.13512104261E+02  0.83129889657E+02 -0.31341357907E+02  0.89863431001E+02  0.00000000000E+00 0. -1.
         -1    1    3    3    0  502  0.49159719894E+02  0.18203452861E+03  0.19358792205E+02  0.18954685569E+03  0.00000000000E+00 0.  1.
         11    1    5    5    0    0  0.55698901687E+02 -0.25102024863E+03 -0.41990215689E+03  0.49237318593E+03  0.00000000000E+00 0. -1.
        -11    1    5    5    0    0  0.58886663315E+02 -0.31287134783E+03 -0.79316236161E+03  0.85467107783E+03  0.00000000000E+00 0.  1.
          3    1    6    6  503    0 -0.10014584688E+03  0.15382176031E+03 -0.53123169001E+03  0.56204753631E+03  0.00000000000E+00 0. -1.
         -3    1    6    6    0  503 -0.50087333754E+02  0.14490541788E+03 -0.26540560027E+03  0.30650685765E+03  0.00000000000E+00 0.  1.
<mgrwt>
<rscale>  0 0.14621429E+04</rscale>
<asrwt>0</asrwt>
<pdfrwt beam="1">  1        2 0.34743796E+00 0.14621429E+04</pdfrwt>
<pdfrwt beam="2">  1       -1 0.36409581E-01 0.14621429E+04</pdfrwt>
<totfact> 0.38237654E+01</totfact>
</mgrwt>
</event>
<event>
12    6  0.1663299E-008  0.1822482E+04  0.7818608E-02  0.8694434E-01
         -1   -1    0    0    0  501 -0.00000000000E+00  0.00000000000E+00  0.62012016164E+03  0.62012016164E+03  0.00000000000E+00 0.  1.
          2   -1    0    0  501    0  0.00000000000E+00 -0.00000000000E+00 -0.13390312483E+04  0.13390312483E+04  0.00000000000E+00 0. -1.
         24    2    1    2    0    0 -0.55415826175E+03  0.16064548188E+03  0.12375495433E+03  0.59546854182E+03  0.79806927428E+02 0.  0.
        254    2    1    2    0    0  0.55415826175E+03 -0.16064548188E+03 -0.84266604103E+03  0.13636828682E+04  0.90368498842E+03 0.  0.
         23    2    4    4    0    0  0.62299972666E+03 -0.82795091446E+02 -0.97858705850E+03  0.11680700734E+04  0.10849598453E+03 0.  0.
         23    2    4    4    0    0 -0.68841464913E+02 -0.77850390435E+02  0.13592101747E+03  0.19561279478E+03  0.94815673335E+02 0.  0.
          2    1    3    3  502    0 -0.10691552946E+03  0.61480591787E+02  0.11891897431E+02  0.12390403880E+03  0.00000000000E+00 0. -1.
         -1    1    3    3    0  502 -0.44724273229E+03  0.99164890094E+02  0.11186305690E+03  0.47156450302E+03  0.00000000000E+00 0.  1.
         11    1    5    5    0    0  0.53713806299E+03 -0.52385015227E+02 -0.89101141539E+03  0.10417114912E+04  0.00000000000E+00 0.  1.
        -11    1    5    5    0    0  0.85861663670E+02 -0.30410076219E+02 -0.87575643111E+02  0.12635858218E+03  0.00000000000E+00 0. -1.
          4    1    6    6  503    0 -0.93872569246E+01  0.16447152039E+02 -0.11043742390E+01  0.18969687536E+02  0.00000000000E+00 0. -1.
         -4    1    6    6    0  503 -0.59454207988E+02 -0.94297542474E+02  0.13702539171E+03  0.17664310725E+03  0.00000000000E+00 0.  1.
<mgrwt>
<rscale>  0 0.18224821E+04</rscale>
<asrwt>0</asrwt>
<pdfrwt beam="1">  1        2 0.20600480E+00 0.18224821E+04</pdfrwt>
<pdfrwt beam="2">  1       -1 0.95403103E-01 0.18224821E+04</pdfrwt>
<totfact> 0.17875707E+01</totfact>
</mgrwt>
</event>
<event>
12    6  0.1663299E-008  0.1326277E+04  0.7818608E-02  0.9008983E-01
         -1   -1    0    0    0  501 -0.00000000000E+00  0.00000000000E+00  0.31088082416E+03  0.31088082416E+03  0.00000000000E+00 0.  1.
          2   -1    0    0  501    0  0.00000000000E+00 -0.00000000000E+00 -0.14145370674E+04  0.14145370674E+04  0.00000000000E+00 0. -1.
         24    2    1    2    0    0 -0.29801160009E+03  0.23534621456E+02 -0.61265723476E+02  0.31734807054E+03  0.87129310848E+02 0.  0.
        254    2    1    2    0    0  0.29801160009E+03 -0.23534621456E+02 -0.10423905197E+04  0.14080698210E+04  0.89817472296E+03 0.  0.
         23    2    4    4    0    0  0.58598707123E+03 -0.92663314148E+02 -0.86343843183E+03  0.10503766734E+04  0.76143897195E+02 0.  0.
         23    2    4    4    0    0 -0.28797547114E+03  0.69128692692E+02 -0.17895208789E+03  0.35769314755E+03  0.90619478666E+02 0.  0.
          2    1    3    3  502    0 -0.60220298969E+02  0.84924217814E+01 -0.50142804462E+02  0.78821992330E+02  0.00000000000E+00 0. -1.
         -1    1    3    3    0  502 -0.23779130112E+03  0.15042199675E+02 -0.11122919014E+02  0.23852607821E+03  0.00000000000E+00 0.  1.
         11    1    5    5    0    0  0.52943942649E+03 -0.64536255819E+02 -0.74630656523E+03  0.91730285290E+03  0.00000000000E+00 0.  1.
        -11    1    5    5    0    0  0.56547644742E+02 -0.28127058328E+02 -0.11713186660E+03  0.13307382052E+03  0.00000000000E+00 0. -1.
          3    1    6    6  503    0 -0.14225605805E+03  0.80151850436E+02 -0.10218246559E+03  0.19261973277E+03  0.00000000000E+00 0. -1.
         -3    1    6    6    0  503 -0.14571941309E+03 -0.11023157744E+02 -0.76769622299E+02  0.16507341478E+03  0.00000000000E+00 0.  1.
<mgrwt>
<rscale>  0 0.13262767E+04</rscale>
<asrwt>0</asrwt>
<pdfrwt beam="1">  1        2 0.21762109E+00 0.13262767E+04</pdfrwt>
<pdfrwt beam="2">  1       -1 0.47827819E-01 0.13262767E+04</pdfrwt>
<totfact> 0.69108510E+01</totfact>
</mgrwt>
</event>
<event>
11    6  0.1663299E-008  0.1205142E+04  0.7818608E-02  0.9108368E-01
          2   -1    0    0  501    0  0.00000000000E+00  0.00000000000E+00  0.85169509364E+03  0.85169509364E+03  0.00000000000E+00 0. -1.
         -1   -1    0    0    0  501 -0.00000000000E+00 -0.00000000000E+00 -0.42631635819E+03  0.42631635819E+03  0.00000000000E+00 0.  1.
         24    2    1    2    0    0  0.15741634444E+03  0.91401549371E+00 -0.79317534180E+02  0.19325166702E+03  0.79209814141E+02 0.  0.
        254    2    1    2    0    0 -0.15741634444E+03 -0.91401549371E+00  0.50469626963E+03  0.10847597848E+04  0.94720891320E+03 0.  0.
         23    2    4    4    0    0 -0.40197592888E+03 -0.16257251560E+03  0.52047830442E+03  0.68222017944E+03  0.80698436379E+02 0.  0.
          2    1    3    3  502    0  0.34788893464E+02  0.18885105046E+02  0.95821739838E+01  0.40727538095E+02  0.00000000000E+00 0. -1.
         -1    1    3    3    0  502  0.12262745097E+03 -0.17971089552E+02 -0.88899708164E+02  0.15252412892E+03  0.00000000000E+00 0.  1.
         11    1    4    4    0    0  0.22869292442E+03  0.11109810940E+03 -0.12337613576E+03  0.28260381184E+03  0.00000000000E+00 0.  1.
        -11    1    4    4    0    0  0.15866660023E+02  0.50560390710E+02  0.10759410097E+03  0.11993579354E+03  0.00000000000E+00 0. -1.
          2    1    5    5  503    0 -0.19497302628E+03 -0.82344466790E+02  0.19203624983E+03  0.28578490764E+03  0.00000000000E+00 0. -1.
         -2    1    5    5    0  503 -0.20700290260E+03 -0.80228048812E+02  0.32844205459E+03  0.39643527180E+03  0.00000000000E+00 0.  1.
<mgrwt>
<rscale>  0 0.12051416E+04</rscale>
<asrwt>0</asrwt>
<pdfrwt beam="1">  1        2 0.13103001E+00 0.12051416E+04</pdfrwt>
<pdfrwt beam="2">  1       -1 0.65587132E-01 0.12051416E+04</pdfrwt>
<totfact> 0.83991223E+01</totfact>
</mgrwt>
</event>
<event>
12    6  0.1663299E-008  0.2524611E+04  0.7818608E-02  0.8394270E-01
          2   -1    0    0  501    0  0.00000000000E+00  0.00000000000E+00  0.22618522234E+04  0.22618522234E+04  0.00000000000E+00 0. -1.
         -1   -1    0    0    0  501 -0.00000000000E+00 -0.00000000000E+00 -0.70447337938E+03  0.70447337938E+03  0.00000000000E+00 0.  1.
         24    2    1    2    0    0  0.34609191032E+03  0.18975195611E+03  0.18677667986E+04  0.19104800077E+04  0.74803946871E+02 0.  0.
        254    2    1    2    0    0 -0.34609191032E+03 -0.18975195611E+03 -0.31038795460E+03  0.10558455951E+04  0.92880774282E+03 0.  0.
         23    2    4    4    0    0  0.19850958374E+03 -0.31932171121E+03 -0.28503657831E+03  0.48807362494E+03  0.12489036111E+03 0.  0.
         23    2    4    4    0    0 -0.54460149405E+03  0.12956975509E+03 -0.25351376285E+02  0.56777197018E+03  0.91341168588E+02 0.  0.
          4    1    3    3  502    0  0.22503065531E+03  0.10125753177E+03  0.13019813808E+04  0.13251593865E+04  0.00000000000E+00 0. -1.
         -3    1    3    3    0  502  0.12106125501E+03  0.88494424349E+02  0.56578541779E+03  0.58532062119E+03  0.00000000000E+00 0.  1.
         11    1    5    5    0    0  0.94507311835E+02 -0.12561268959E+03 -0.47079750139E+02  0.16409351800E+03  0.00000000000E+00 0. -1.
        -11    1    5    5    0    0  0.10400227190E+03 -0.19370902162E+03 -0.23795682817E+03  0.32398010694E+03  0.00000000000E+00 0.  1.
          4    1    6    6  503    0 -0.39605464155E+03  0.12926317168E+03  0.25717384070E+01  0.41662316365E+03  0.00000000000E+00 0.  1.
         -4    1    6    6    0  503 -0.14854685250E+03  0.30658340968E+00 -0.27923114692E+02  0.15114880653E+03  0.00000000000E+00 0. -1.
<mgrwt>
<rscale>  0 0.25246106E+04</rscale>
<asrwt>0</asrwt>
<pdfrwt beam="1">  1        2 0.34797726E+00 0.25246106E+04</pdfrwt>
<pdfrwt beam="2">  1       -1 0.10838052E+00 0.25246106E+04</pdfrwt>
<totfact> 0.38125725E+00</totfact>
</mgrwt>
</event>
<event>
12    6  0.1663299E-008  0.2080326E+04  0.7818608E-02  0.8569960E-01
          2   -1    0    0  501    0  0.00000000000E+00  0.00000000000E+00  0.28017447785E+04  0.28017447785E+04  0.00000000000E+00 0. -1.
         -1   -1    0    0    0  501 -0.00000000000E+00 -0.00000000000E+00 -0.38616623436E+03  0.38616623436E+03  0.00000000000E+00 0.  1.
         24    2    1    2    0    0 -0.57454326898E+03 -0.22487738409E+03  0.10254316011E+03  0.63053291203E+03  0.79917755673E+02 0.  0.
        254    2    1    2    0    0  0.57454326898E+03  0.22487738409E+03  0.23130353841E+04  0.25573781009E+04  0.89965563245E+03 0.  0.
         23    2    4    4    0    0  0.39001581769E+03  0.12247279994E+03  0.27908383188E+03  0.51073844866E+03  0.12591287838E+03 0.  0.
         23    2    4    4    0    0  0.18452745128E+03  0.10240458414E+03  0.20339515522E+04  0.20466396522E+04  0.85075673274E+02 0.  0.
          4    1    3    3  502    0 -0.28342624654E+01 -0.10653090107E+02  0.55752023215E+01  0.12353309414E+02  0.00000000000E+00 0. -1.
         -1    1    3    3    0  502 -0.57170900651E+03 -0.21422429398E+03  0.96967957784E+02  0.61817960262E+03  0.00000000000E+00 0.  1.
         11    1    5    5    0    0  0.17302698365E+03  0.87848518475E+02  0.19602977731E+03  0.27583214617E+03  0.00000000000E+00 0. -1.
        -11    1    5    5    0    0  0.21698883404E+03  0.34624281467E+02  0.83054054569E+02  0.23490630249E+03  0.00000000000E+00 0.  1.
          1    1    6    6  503    0  0.27551370144E+02 -0.27893677512E+01  0.55127863616E+03  0.55197372515E+03  0.00000000000E+00 0. -1.
         -1    1    6    6    0  503  0.15697608114E+03  0.10519395190E+03  0.14826729160E+04  0.14946659270E+04  0.00000000000E+00 0.  1.
<mgrwt>
<rscale>  0 0.20803262E+04</rscale>
<asrwt>0</asrwt>
<pdfrwt beam="1">  1        2 0.43103764E+00 0.20803262E+04</pdfrwt>
<pdfrwt beam="2">  1       -1 0.59410192E-01 0.20803262E+04</pdfrwt>
<totfact> 0.69681491E+00</totfact>
</mgrwt>
</event>
<event>
11    6  0.1663299E-008  0.1207674E+04  0.7818608E-02  0.9106166E-01
         -1   -1    0    0    0  501 -0.00000000000E+00  0.00000000000E+00  0.38958980027E+03  0.38958980027E+03  0.00000000000E+00 0.  1.
          2   -1    0    0  501    0  0.00000000000E+00 -0.00000000000E+00 -0.93590580351E+03  0.93590580351E+03  0.00000000000E+00 0. -1.
         24    2    1    2    0    0  0.72084679858E+02  0.55042207225E+02 -0.39906613364E+03  0.41662446149E+03  0.78078916759E+02 0.  0.
        254    2    1    2    0    0 -0.72084679858E+02 -0.55042207225E+02 -0.14724986960E+03  0.90887114229E+03  0.89226587044E+03 0.  0.
         23    2    4    4    0    0 -0.92505525805E+02 -0.43759414826E+03  0.26111915581E+02  0.45752479562E+03  0.92742630823E+02 0.  0.
          2    1    3    3  502    0  0.37292970909E+02  0.38922004633E+02 -0.35110730434E+03  0.35522109634E+03  0.00000000000E+00 0. -1.
         -3    1    3    3    0  502  0.34791708950E+02  0.16120202592E+02 -0.47958829300E+02  0.61403365144E+02  0.00000000000E+00 0.  1.
         11    1    4    4    0    0 -0.62829474737E+02  0.20967262204E+03 -0.54264576597E+02  0.22551007872E+03  0.00000000000E+00 0.  1.
        -11    1    4    4    0    0  0.83250320684E+02  0.17287931899E+03 -0.11909720859E+03  0.22583626795E+03  0.00000000000E+00 0. -1.
          3    1    5    5  503    0 -0.19033433070E+02 -0.26789704438E+03 -0.11501980862E+02  0.26881851410E+03  0.00000000000E+00 0. -1.
         -3    1    5    5    0  503 -0.73472092735E+02 -0.16969710389E+03  0.37613896442E+02  0.18870628152E+03  0.00000000000E+00 0.  1.
<mgrwt>
<rscale>  0 0.12076744E+04</rscale>
<asrwt>0</asrwt>
<pdfrwt beam="1">  1        2 0.14398551E+00 0.12076744E+04</pdfrwt>
<pdfrwt beam="2">  1       -1 0.59936893E-01 0.12076744E+04</pdfrwt>
<totfact> 0.88103579E+01</totfact>
</mgrwt>
</event>
<event>
12    6  0.1663299E-008  0.1370230E+04  0.7818608E-02  0.8975654E-01
         -1   -1    0    0    0  501 -0.00000000000E+00  0.00000000000E+00  0.30910745239E+03  0.30910745239E+03  0.00000000000E+00 0.  1.
          2   -1    0    0  501    0  0.00000000000E+00 -0.00000000000E+00 -0.15185084195E+04  0.15185084195E+04  0.00000000000E+00 0. -1.
         24    2    1    2    0    0  0.22502959264E+03  0.33065126988E+03 -0.44660748092E+03  0.60431625275E+03  0.75969148259E+02 0.  0.
        254    2    1    2    0    0 -0.22502959264E+03 -0.33065126988E+03 -0.76279348620E+03  0.12232996191E+04  0.86869987669E+03 0.  0.
         23    2    4    4    0    0  0.31657612653E+03 -0.22963610969E+03 -0.36059649675E+03  0.53483239794E+03  0.55341428022E+02 0.  0.
         23    2    4    4    0    0 -0.54160571917E+03 -0.10101516019E+03 -0.40219698945E+03  0.68846722121E+03  0.93187331329E+02 0.  0.
          4    1    3    3  502    0  0.19468041748E+02  0.69868822493E+01 -0.42437863837E+02  0.47210099133E+02  0.00000000000E+00 0. -1.
         -3    1    3    3    0  502  0.20556155090E+03  0.32366438763E+03 -0.40416961709E+03  0.55710615362E+03  0.00000000000E+00 0.  1.
         11    1    5    5    0    0  0.20614519061E+03 -0.15226691027E+03 -0.27071721111E+03  0.37278527327E+03  0.00000000000E+00 0. -1.
        -11    1    5    5    0    0  0.11043093592E+03 -0.77369199420E+02 -0.89879285637E+02  0.16204712467E+03  0.00000000000E+00 0.  1.
          3    1    6    6  503    0 -0.28970251159E+03 -0.81650542396E+02 -0.17194904953E+03  0.34664222468E+03  0.00000000000E+00 0. -1.
         -3    1    6    6    0  503 -0.25190320758E+03 -0.19364617795E+02 -0.23024793992E+03  0.34182499653E+03  0.00000000000E+00 0.  1.
<mgrwt>
<rscale>  0 0.13702296E+04</rscale>
<asrwt>0</asrwt>
<pdfrwt beam="1">  1        2 0.23361667E+00 0.13702296E+04</pdfrwt>
<pdfrwt beam="2">  1       -1 0.47554994E-01 0.13702296E+04</pdfrwt>
<totfact> 0.60789512E+01</totfact>
</mgrwt>
</event>
<event>
11    6  0.1663299E-008  0.1163654E+04  0.7818608E-02  0.9145279E-01
          2   -1    0    0  501    0  0.00000000000E+00  0.00000000000E+00  0.82110504945E+03  0.82110504945E+03  0.00000000000E+00 0. -1.
         -1   -1    0    0    0  501 -0.00000000000E+00 -0.00000000000E+00 -0.41227679006E+03  0.41227679006E+03  0.00000000000E+00 0.  1.
         24    2    1    2    0    0  0.98308142779E+02  0.38588332682E+02 -0.12246961623E+03  0.18001446063E+03  0.79074956726E+02 0.  0.
        254    2    1    2    0    0 -0.98308142779E+02 -0.38588332682E+02  0.53129787562E+03  0.10533673789E+04  0.90341123077E+03 0.  0.
         23    2    4    4    0    0  0.73879938053E+02 -0.33002384280E+03 -0.63613306988E+02  0.35607201009E+03  0.91469347196E+02 0.  0.
          2    1    3    3  502    0  0.79511283332E+02  0.61932802123E+02 -0.10392790800E+03  0.14477128934E+03  0.00000000000E+00 0. -1.
         -1    1    3    3    0  502  0.18796859447E+02 -0.23344469441E+02 -0.18541708225E+02  0.35243171288E+02  0.00000000000E+00 0.  1.
         11    1    4    4    0    0 -0.80442328653E+02  0.21338135616E+03  0.47713308212E+03  0.52882752335E+03  0.00000000000E+00 0. -1.
        -11    1    4    4    0    0 -0.91745752179E+02  0.78054153963E+02  0.11777810048E+03  0.16846784544E+03  0.00000000000E+00 0.  1.
          2    1    5    5  503    0  0.61994504396E+02 -0.31968125866E+03 -0.77876318238E+02  0.33481957329E+03  0.00000000000E+00 0. -1.
         -2    1    5    5    0  503  0.11885433657E+02 -0.10342584140E+02  0.14263011250E+02  0.21252436797E+02  0.00000000000E+00 0.  1.
<mgrwt>
<rscale>  0 0.11636538E+04</rscale>
<asrwt>0</asrwt>
<pdfrwt beam="1">  1        2 0.12632385E+00 0.11636538E+04</pdfrwt>
<pdfrwt beam="2">  1       -1 0.63427199E-01 0.11636538E+04</pdfrwt>
<totfact> 0.94690966E+01</totfact>
</mgrwt>
</event>
<event>
11    6  0.1663299E-008  0.2424650E+04  0.7818608E-02  0.8430332E-01
         -1   -1    0    0    0  501 -0.00000000000E+00  0.00000000000E+00  0.36752116300E+03  0.36752116300E+03  0.00000000000E+00 0.  1.
          2   -1    0    0  501    0  0.00000000000E+00 -0.00000000000E+00 -0.39990415346E+04  0.39990415346E+04  0.00000000000E+00 0. -1.
         24    2    1    2    0    0  0.70247386220E+03 -0.63030085153E+03 -0.76580298190E+03  0.12181880749E+04  0.82336433318E+02 0.  0.
        254    2    1    2    0    0 -0.70247386220E+03  0.63030085153E+03 -0.28657173897E+04  0.31483746227E+04  0.89954317110E+03 0.  0.
         23    2    4    4    0    0 -0.83030409236E+03  0.65679507404E+03 -0.24850887803E+04  0.27024939203E+04  0.83800288248E+02 0.  0.
          2    1    3    3  502    0  0.25171053424E+03 -0.24116615475E+03 -0.23450118929E+03  0.42013106886E+03  0.00000000000E+00 0. -1.
         -1    1    3    3    0  502  0.45076332796E+03 -0.38913469678E+03 -0.53130179261E+03  0.79805700605E+03  0.00000000000E+00 0.  1.
         11    1    4    4    0    0  0.32513960093E+02  0.60471545936E+02 -0.35231188812E+02  0.77169956161E+02  0.00000000000E+00 0.  1.
        -11    1    4    4    0    0  0.95316270069E+02 -0.86965768452E+02 -0.34539742059E+03  0.36871074621E+03  0.00000000000E+00 0. -1.
          2    1    5    5  503    0 -0.55691122450E+03  0.48621902167E+03 -0.17662509745E+04  0.19147327631E+04  0.00000000000E+00 0. -1.
         -2    1    5    5    0  503 -0.27339286786E+03  0.17057605237E+03 -0.71883780577E+03  0.78776115723E+03  0.00000000000E+00 0.  1.
<mgrwt>
<rscale>  0 0.24246504E+04</rscale>
<asrwt>0</asrwt>
<pdfrwt beam="1">  1        2 0.61523719E+00 0.24246504E+04</pdfrwt>
<pdfrwt beam="2">  1       -1 0.56541715E-01 0.24246504E+04</pdfrwt>
<totfact> 0.11123200E+00</totfact>
</mgrwt>
</event>
<event>
12    6  0.1663299E-008  0.1403264E+04  0.7818608E-02  0.8951460E-01
         -1   -1    0    0    0  501 -0.00000000000E+00  0.00000000000E+00  0.35756637246E+03  0.35756637246E+03  0.00000000000E+00 0.  1.
          2   -1    0    0  501    0  0.00000000000E+00 -0.00000000000E+00 -0.13767715594E+04  0.13767715594E+04  0.00000000000E+00 0. -1.
         24    2    1    2    0    0 -0.20222312494E+03  0.30254947809E+03 -0.49964328861E+03  0.62356944635E+03  0.82249982476E+02 0.  0.
        254    2    1    2    0    0  0.20222312494E+03 -0.30254947809E+03 -0.51956189837E+03  0.11107684855E+04  0.91182875764E+03 0.  0.
         23    2    4    4    0    0 -0.17311990483E+03 -0.41996558485E+03 -0.10423017865E+02  0.46056144710E+03  0.75276911127E+02 0.  0.
         23    2    4    4    0    0  0.37534302977E+03  0.11741610676E+03 -0.50913888050E+03  0.65020703843E+03  0.94222402150E+02 0.  0.
          4    1    3    3  502    0 -0.87340459086E+02  0.13387635690E+03 -0.28911601138E+03  0.33036238098E+03  0.00000000000E+00 0. -1.
         -3    1    3    3    0  502 -0.11488266586E+03  0.16867312120E+03 -0.21052727723E+03  0.29320706538E+03  0.00000000000E+00 0.  1.
         11    1    5    5    0    0 -0.15266295294E+03 -0.37234397944E+03  0.15266454109E+02  0.40271463947E+03  0.00000000000E+00 0.  1.
        -11    1    5    5    0    0 -0.20456951882E+02 -0.47621605411E+02 -0.25689471974E+02  0.57846807626E+02  0.00000000000E+00 0. -1.
          2    1    6    6  503    0  0.98988122095E+01  0.24583258407E+02 -0.23824455178E+02  0.35636045538E+02  0.00000000000E+00 0. -1.
         -2    1    6    6    0  503  0.36544421756E+03  0.92832848350E+02 -0.48531442533E+03  0.61457099290E+03  0.00000000000E+00 0.  1.
<mgrwt>
<rscale>  0 0.14032636E+04</rscale>
<asrwt>0</asrwt>
<pdfrwt beam="1">  1        2 0.21181101E+00 0.14032636E+04</pdfrwt>
<pdfrwt beam="2">  1       -1 0.55010212E-01 0.14032636E+04</pdfrwt>
<totfact> 0.55266375E+01</totfact>
</mgrwt>
</event>
<event>
11    6  0.1663299E-008  0.1466373E+04  0.7818608E-02  0.8907127E-01
          2   -1    0    0  501    0  0.00000000000E+00  0.00000000000E+00  0.14146037524E+04  0.14146037524E+04  0.00000000000E+00 0. -1.
         -1   -1    0    0    0  501 -0.00000000000E+00 -0.00000000000E+00 -0.38000943003E+03  0.38000943003E+03  0.00000000000E+00 0.  1.
         24    2    1    2    0    0 -0.44983471016E+02  0.32973678367E+03 -0.46613393018E+02  0.34519407504E+03  0.78970132736E+02 0.  0.
        254    2    1    2    0    0  0.44983471016E+02 -0.32973678367E+03  0.10812077154E+04  0.14494191074E+04  0.90612127549E+03 0.  0.
         23    2    4    4    0    0 -0.26319372921E+03 -0.20147651619E+03  0.53935878252E+02  0.34773470006E+03  0.90258611734E+02 0.  0.
          2    1    3    3  502    0 -0.54405633029E+02  0.12474271862E+03 -0.75610237797E+01  0.13630072573E+03  0.00000000000E+00 0. -1.
         -1    1    3    3    0  502  0.94221620128E+01  0.20499406505E+03 -0.39052369238E+02  0.20889334931E+03  0.00000000000E+00 0.  1.
         11    1    4    4    0    0 -0.29791330942E+02 -0.32539744284E+02  0.16020209429E+03  0.16616578882E+03  0.00000000000E+00 0.  1.
        -11    1    4    4    0    0  0.33796853117E+03 -0.95720523190E+02  0.86706974288E+03  0.93551861854E+03  0.00000000000E+00 0. -1.
          4    1    5    5  503    0 -0.65555708701E+01  0.56537115264E+01 -0.84406526453E+01  0.12090681558E+02  0.00000000000E+00 0.  1.
         -4    1    5    5    0  503 -0.25663815834E+03 -0.20713022772E+03  0.62376530897E+02  0.33564401851E+03  0.00000000000E+00 0. -1.
<mgrwt>
<rscale>  0 0.14663734E+04</rscale>
<asrwt>0</asrwt>
<pdfrwt beam="1">  1        2 0.21763134E+00 0.14663734E+04</pdfrwt>
<pdfrwt beam="2">  1       -1 0.58462990E-01 0.14663734E+04</pdfrwt>
<totfact> 0.46454030E+01</totfact>
</mgrwt>
</event>
<event>
12    6  0.1663299E-008  0.1478125E+04  0.7818608E-02  0.8899131E-01
          2   -1    0    0  501    0  0.00000000000E+00  0.00000000000E+00  0.87986025903E+03  0.87986025903E+03  0.00000000000E+00 0. -1.
         -1   -1    0    0    0  501 -0.00000000000E+00 -0.00000000000E+00 -0.62079591356E+03  0.62079591356E+03  0.00000000000E+00 0.  1.
         24    2    1    2    0    0  0.16784444921E+03  0.13002375406E+03 -0.32305988923E+03  0.39476045592E+03  0.79938662573E+02 0.  0.
        254    2    1    2    0    0 -0.16784444921E+03 -0.13002375406E+03  0.58212423470E+03  0.11058957167E+04  0.91600151516E+03 0.  0.
         23    2    4    4    0    0  0.17225260536E+02  0.37436421662E+03  0.26778206860E+03  0.47667254641E+03  0.12273631880E+03 0.  0.
         23    2    4    4    0    0 -0.18506970974E+03 -0.50438797068E+03  0.31434216610E+03  0.62922317026E+03  0.91938991561E+02 0.  0.
          2    1    3    3  502    0  0.24118135495E+02  0.20047214157E+02 -0.95823400324E+01  0.32793238567E+02  0.00000000000E+00 0. -1.
         -1    1    3    3    0  502  0.14372631371E+03  0.10997653990E+03 -0.31347754920E+03  0.36196721735E+03  0.00000000000E+00 0.  1.
         11    1    5    5    0    0 -0.21144435746E+02  0.14787457270E+03  0.17193449281E+03  0.22776181908E+03  0.00000000000E+00 0. -1.
        -11    1    5    5    0    0  0.38369696281E+02  0.22648964392E+03  0.95847575795E+02  0.24891072733E+03  0.00000000000E+00 0.  1.
          2    1    6    6  503    0 -0.10828605953E+03 -0.30858679273E+03  0.13879131588E+03  0.35526709488E+03  0.00000000000E+00 0.  1.
         -2    1    6    6    0  503 -0.76783650211E+02 -0.19580117795E+03  0.17555085022E+03  0.27395607538E+03  0.00000000000E+00 0. -1.
<mgrwt>
<rscale>  0 0.14781254E+04</rscale>
<asrwt>0</asrwt>
<pdfrwt beam="1">  1        2 0.13536312E+00 0.14781254E+04</pdfrwt>
<pdfrwt beam="2">  1       -1 0.95507063E-01 0.14781254E+04</pdfrwt>
<totfact> 0.35379408E+01</totfact>
</mgrwt>
</event>
<event>
11    6  0.1663299E-008  0.1948143E+04  0.7818608E-02  0.8631257E-01
          2   -1    0    0  501    0  0.00000000000E+00  0.00000000000E+00  0.13392130968E+04  0.13392130968E+04  0.00000000000E+00 0. -1.
         -1   -1    0    0    0  501 -0.00000000000E+00 -0.00000000000E+00 -0.70848691016E+03  0.70848691016E+03  0.00000000000E+00 0.  1.
         24    2    1    2    0    0 -0.24070420856E+03  0.66289160679E+03  0.57590853119E+03  0.91400627513E+03  0.79831299053E+02 0.  0.
        254    2    1    2    0    0  0.24070420856E+03 -0.66289160679E+03  0.54817655493E+02  0.11336937319E+04  0.88594170461E+03 0.  0.
         23    2    4    4    0    0  0.18707804058E+03  0.64028878862E+02  0.26040671029E+03  0.33937156285E+03  0.90903863020E+02 0.  0.
          2    1    3    3  502    0 -0.18948307191E+03  0.51534780170E+03  0.40363837222E+03  0.68147716527E+03  0.00000000000E+00 0. -1.
         -1    1    3    3    0  502 -0.51221136648E+02  0.14754380509E+03  0.17227015897E+03  0.23252910986E+03  0.00000000000E+00 0.  1.
         11    1    4    4    0    0 -0.45810121318E+02 -0.38046962589E+03 -0.80498978354E+01  0.38330210578E+03  0.00000000000E+00 0.  1.
        -11    1    4    4    0    0  0.99436289297E+02 -0.34645085976E+03 -0.19753915696E+03  0.41102006324E+03  0.00000000000E+00 0. -1.
          3    1    5    5  503    0  0.16979478661E+03  0.59579803319E+02  0.26557094720E+03  0.32079269088E+03  0.00000000000E+00 0. -1.
         -3    1    5    5    0  503  0.17283253963E+02  0.44490755433E+01 -0.51642369117E+01  0.18578871968E+02  0.00000000000E+00 0.  1.
<mgrwt>
<rscale>  0 0.19481427E+04</rscale>
<asrwt>0</asrwt>
<pdfrwt beam="1">  1        2 0.20603278E+00 0.19481427E+04</pdfrwt>
<pdfrwt beam="2">  1       -1 0.10899799E+00 0.19481427E+04</pdfrwt>
<totfact> 0.13009141E+01</totfact>
</mgrwt>
</event>
<event>
12    6  0.1663299E-008  0.2138940E+04  0.7818608E-02  0.8544282E-01
         -1   -1    0    0    0  501 -0.00000000000E+00  0.00000000000E+00  0.53943659439E+03  0.53943659439E+03  0.00000000000E+00 0.  1.
          2   -1    0    0  501    0  0.00000000000E+00 -0.00000000000E+00 -0.21202967605E+04  0.21202967605E+04  0.00000000000E+00 0. -1.
         24    2    1    2    0    0  0.77550143766E+03  0.30472087933E+03 -0.31071236550E+03  0.89292427135E+03  0.80711127958E+02 0.  0.
        254    2    1    2    0    0 -0.77550143766E+03 -0.30472087933E+03 -0.12701478006E+04  0.17668090835E+04  0.90226471071E+03 0.  0.
         23    2    4    4    0    0 -0.75706738238E+01 -0.40365122220E+03 -0.26428515578E+03  0.49444451734E+03  0.10787545077E+03 0.  0.
         23    2    4    4    0    0 -0.76793076383E+03  0.98930342861E+02 -0.10058626448E+04  0.12723645662E+04  0.87447460174E+02 0.  0.
          4    1    3    3  502    0  0.24469498626E+03  0.66086130226E+02 -0.68524242705E+02  0.26256158277E+03  0.00000000000E+00 0. -1.
         -3    1    3    3    0  502  0.53080645140E+03  0.23863474911E+03 -0.24218812279E+03  0.63036268858E+03  0.00000000000E+00 0.  1.
         11    1    5    5    0    0  0.44441117182E+02 -0.27037312468E+03 -0.18814284620E+03  0.33237684940E+03  0.00000000000E+00 0.  1.
        -11    1    5    5    0    0 -0.52011791006E+02 -0.13327809752E+03 -0.76142309584E+02  0.16206766794E+03  0.00000000000E+00 0. -1.
          1    1    6    6  503    0 -0.26228136761E+03  0.10709559145E+02 -0.28546451121E+03  0.38780948623E+03  0.00000000000E+00 0. -1.
         -1    1    6    6    0  503 -0.50564939622E+03  0.88220783716E+02 -0.72039813362E+03  0.88455507997E+03  0.00000000000E+00 0.  1.
<mgrwt>
<rscale>  0 0.21389396E+04</rscale>
<asrwt>0</asrwt>
<pdfrwt beam="1">  1        2 0.32619950E+00 0.21389396E+04</pdfrwt>
<pdfrwt beam="2">  1       -1 0.82990246E-01 0.21389396E+04</pdfrwt>
<totfact> 0.86293367E+00</totfact>
</mgrwt>
</event>
<event>
12    6  0.1663299E-008  0.1584496E+04  0.7818608E-02  0.8830130E-01
         -1   -1    0    0    0  501 -0.00000000000E+00  0.00000000000E+00  0.61101402959E+03  0.61101402959E+03  0.00000000000E+00 0.  1.
          2   -1    0    0  501    0  0.00000000000E+00 -0.00000000000E+00 -0.10272379473E+04  0.10272379473E+04  0.00000000000E+00 0. -1.
         24    2    1    2    0    0  0.35328229764E+03 -0.34497682430E+03  0.60587743664E+02  0.50404191871E+03  0.81055474848E+02 0.  0.
        254    2    1    2    0    0 -0.35328229764E+03  0.34497682430E+03 -0.47681166136E+03  0.11342100582E+04  0.90292065239E+03 0.  0.
         23    2    4    4    0    0  0.98313706553E+02 -0.21285401836E+03 -0.28301730579E+03  0.38564169016E+03  0.11682593800E+03 0.  0.
         23    2    4    4    0    0 -0.45159600420E+03  0.55783084266E+03 -0.19379435558E+03  0.74856836801E+03  0.87659279654E+02 0.  0.
          2    1    3    3  502    0  0.41604459148E+02 -0.68749663629E+02  0.32328890506E+02  0.86617575765E+02  0.00000000000E+00 0. -1.
         -1    1    3    3    0  502  0.31167783850E+03 -0.27622716067E+03  0.28258853158E+02  0.41742434295E+03  0.00000000000E+00 0.  1.
         11    1    5    5    0    0  0.90784158908E+02 -0.66786153706E+02 -0.94777094204E+02  0.14725777202E+03  0.00000000000E+00 0.  1.
        -11    1    5    5    0    0  0.75295476459E+01 -0.14606786465E+03 -0.18824021158E+03  0.23838391814E+03  0.00000000000E+00 0. -1.
          2    1    6    6  503    0 -0.37426912413E+02  0.18432219718E+02 -0.11093839447E+01  0.41734293204E+02  0.00000000000E+00 0.  1.
         -2    1    6    6    0  503 -0.41416909178E+03  0.53939862294E+03 -0.19268497163E+03  0.70683407481E+03  0.00000000000E+00 0. -1.
<mgrwt>
<rscale>  0 0.15844959E+04</rscale>
<asrwt>0</asrwt>
<pdfrwt beam="1">  1        2 0.15803661E+00 0.15844959E+04</pdfrwt>
<pdfrwt beam="2">  1       -1 0.94002158E-01 0.15844959E+04</pdfrwt>
<totfact> 0.29065782E+01</totfact>
</mgrwt>
</event>
<event>
12    6  0.1663299E-008  0.1594250E+04  0.7818608E-02  0.8824088E-01
          2   -1    0    0  501    0  0.00000000000E+00  0.00000000000E+00  0.38143281713E+04  0.38143281713E+04  0.00000000000E+00 0. -1.
         -1   -1    0    0    0  501 -0.00000000000E+00 -0.00000000000E+00 -0.16658461856E+03  0.16658461856E+03  0.00000000000E+00 0.  1.
         24    2    1    2    0    0 -0.35167237806E+02 -0.53453232134E+03  0.16236762275E+04  0.17116499458E+04  0.80371064784E+02 0.  0.
        254    2    1    2    0    0  0.35167237806E+02  0.53453232134E+03  0.20240673253E+04  0.22692628441E+04  0.87506787230E+03 0.  0.
         23    2    4    4    0    0 -0.40648657872E+03  0.27082462522E+03  0.91888989418E+03  0.10469754013E+04  0.11498494277E+03 0.  0.
         23    2    4    4    0    0  0.44165381653E+03  0.26370769612E+03  0.11051774311E+04  0.12222874428E+04  0.89272592988E+02 0.  0.
          4    1    3    3  502    0  0.11743547191E+02 -0.24340855703E+02  0.12268506546E+03  0.12562648385E+03  0.00000000000E+00 0. -1.
         -3    1    3    3    0  502 -0.46910784996E+02 -0.51019146564E+03  0.15009911620E+04  0.15860234619E+04  0.00000000000E+00 0.  1.
         11    1    5    5    0    0 -0.91325015392E+02  0.10044658760E+03  0.34112984792E+03  0.36715030783E+03  0.00000000000E+00 0.  1.
        -11    1    5    5    0    0 -0.31516156333E+03  0.17037803762E+03  0.57776004626E+03  0.67982509350E+03  0.00000000000E+00 0. -1.
          1    1    6    6  503    0  0.29507236180E+03  0.21641120603E+03  0.72551622639E+03  0.81257326043E+03  0.00000000000E+00 0. -1.
         -1    1    6    6    0  503  0.14658145473E+03  0.47296490089E+02  0.37966120473E+03  0.40971418235E+03  0.00000000000E+00 0.  1.
<mgrwt>
<rscale>  0 0.15942502E+04</rscale>
<asrwt>0</asrwt>
<pdfrwt beam="1">  1        2 0.58681965E+00 0.15942502E+04</pdfrwt>
<pdfrwt beam="2">  1       -1 0.25628406E-01 0.15942502E+04</pdfrwt>
<totfact> 0.71417153E+00</totfact>
</mgrwt>
</event>
<event>
11    6  0.1663299E-008  0.1371933E+04  0.7818608E-02  0.8974389E-01
         -1   -1    0    0    0  501 -0.00000000000E+00  0.00000000000E+00  0.10652158819E+03  0.10652158819E+03  0.00000000000E+00 0.  1.
          2   -1    0    0  501    0  0.00000000000E+00 -0.00000000000E+00 -0.44174123543E+04  0.44174123543E+04  0.00000000000E+00 0. -1.
         24    2    1    2    0    0  0.32262787244E+03 -0.15503362508E+03 -0.10591218774E+04  0.11208401021E+04  0.80119998713E+02 0.  0.
        254    2    1    2    0    0 -0.32262787244E+03  0.15503362508E+03 -0.32517688887E+04  0.34030938404E+04  0.93750872648E+03 0.  0.
         23    2    4    4    0    0 -0.62721011215E+03  0.19305835161E+03 -0.21729565513E+04  0.22717524063E+04  0.91949821224E+02 0.  0.
          4    1    3    3  502    0  0.74391816202E+02 -0.70408145313E+02 -0.35414585575E+03  0.36866073345E+03  0.00000000000E+00 0. -1.
         -3    1    3    3    0  502  0.24823605624E+03 -0.84625479770E+02 -0.70497602166E+03  0.75217936861E+03  0.00000000000E+00 0.  1.
         11    1    4    4    0    0  0.29018415008E+03 -0.20234590742E+02 -0.79394128647E+03  0.84555250930E+03  0.00000000000E+00 0. -1.
        -11    1    4    4    0    0  0.14398089624E+02 -0.17790135784E+02 -0.28487105086E+03  0.28578892479E+03  0.00000000000E+00 0.  1.
          1    1    5    5  503    0 -0.60670105119E+03  0.17085835658E+03 -0.21058366556E+04  0.21981416614E+04  0.00000000000E+00 0. -1.
         -1    1    5    5    0  503 -0.20509060959E+02  0.22199995029E+02 -0.67119895771E+02  0.73610744929E+02  0.00000000000E+00 0.  1.
<mgrwt>
<rscale>  0 0.13719326E+04</rscale>
<asrwt>0</asrwt>
<pdfrwt beam="1">  1        2 0.67960197E+00 0.13719326E+04</pdfrwt>
<pdfrwt beam="2">  1       -1 0.16387935E-01 0.13719326E+04</pdfrwt>
<totfact> 0.48690619E+00</totfact>
</mgrwt>
</event>
<event>
12    6  0.1663299E-008  0.1878305E+04  0.7818608E-02  0.8665731E-01
          2   -1    0    0  501    0  0.00000000000E+00  0.00000000000E+00  0.50884505877E+03  0.50884505877E+03  0.00000000000E+00 0. -1.
         -1   -1    0    0    0  501 -0.00000000000E+00 -0.00000000000E+00 -0.17333515321E+04  0.17333515321E+04  0.00000000000E+00 0.  1.
         24    2    1    2    0    0 -0.52599745741E+03 -0.21816988901E+03  0.40284565526E+02  0.57625417489E+03  0.78578636890E+02 0.  0.
        254    2    1    2    0    0  0.52599745741E+03  0.21816988901E+03 -0.12647910389E+04  0.16659424160E+04  0.92271140438E+03 0.  0.
         23    2    4    4    0    0  0.72970558674E+03  0.20763411658E+03 -0.63024695788E+03  0.99305822247E+03  0.11563405901E+03 0.  0.
         23    2    4    4    0    0 -0.20370812933E+03  0.10535772428E+02 -0.63454408100E+03  0.67288419355E+03  0.92298118853E+02 0.  0.
          2    1    3    3  502    0 -0.48529094985E+03 -0.18896946107E+03  0.17133020121E+02  0.52106650593E+03  0.00000000000E+00 0. -1.
         -1    1    3    3    0  502 -0.40706507563E+02 -0.29200427941E+02  0.23151545406E+02  0.55187668954E+02  0.00000000000E+00 0.  1.
         11    1    5    5    0    0  0.71112378024E+03  0.22081153030E+03 -0.60988164851E+03  0.96250214957E+03  0.00000000000E+00 0.  1.
        -11    1    5    5    0    0  0.18581806502E+02 -0.13177413719E+02 -0.20365309373E+02  0.30556072900E+02  0.00000000000E+00 0. -1.
          2    1    6    6  503    0 -0.57840592270E+01  0.66295203085E+00 -0.13988560824E+03  0.14000670784E+03  0.00000000000E+00 0. -1.
         -2    1    6    6    0  503 -0.19792407010E+03  0.98728203973E+01 -0.49465847275E+03  0.53287748571E+03  0.00000000000E+00 0.  1.
<mgrwt>
<rscale>  0 0.18783049E+04</rscale>
<asrwt>0</asrwt>
<pdfrwt beam="1">  1        2 0.78283855E-01 0.18783049E+04</pdfrwt>
<pdfrwt beam="2">  1       -1 0.26666947E+00 0.18783049E+04</pdfrwt>
<totfact> 0.35131194E+00</totfact>
</mgrwt>
</event>
<event>
11    6  0.1663299E-008  0.1938280E+04  0.7818608E-02  0.8636033E-01
          2   -1    0    0  501    0  0.00000000000E+00  0.00000000000E+00  0.10305210980E+04  0.10305210980E+04  0.00000000000E+00 0. -1.
         -1   -1    0    0    0  501 -0.00000000000E+00 -0.00000000000E+00 -0.91141482292E+03  0.91141482292E+03  0.00000000000E+00 0.  1.
         24    2    1    2    0    0  0.66982017884E+03  0.16879095793E+03 -0.27298339973E+03  0.74694071325E+03  0.79063475277E+02 0.  0.
        254    2    1    2    0    0 -0.66982017884E+03 -0.16879095793E+03  0.39208967485E+03  0.11949952077E+04  0.89282124407E+03 0.  0.
         23    2    4    4    0    0 -0.60447354373E+03  0.15908746913E+03 -0.57451352133E+02  0.63329054142E+03  0.84018831711E+02 0.  0.
          2    1    3    3  502    0  0.74782513643E+02  0.45678887749E+02 -0.34611382315E+02  0.94217476715E+02  0.00000000000E+00 0. -1.
         -3    1    3    3    0  502  0.59503766520E+03  0.12311207019E+03 -0.23837201741E+03  0.65272323654E+03  0.00000000000E+00 0.  1.
         11    1    4    4    0    0 -0.38668667836E+02 -0.24400119238E+03  0.30535701201E+03  0.39277824856E+03  0.00000000000E+00 0.  1.
        -11    1    4    4    0    0 -0.26677967276E+02 -0.83877234686E+02  0.14418401497E+03  0.16892641774E+03  0.00000000000E+00 0. -1.
          1    1    5    5  503    0 -0.13366395140E+03  0.45337462573E+02  0.20754576404E+02  0.14266145190E+03  0.00000000000E+00 0.  1.
         -1    1    5    5    0  503 -0.47080959234E+03  0.11375000656E+03 -0.78205928537E+02  0.49062908952E+03  0.00000000000E+00 0. -1.
<mgrwt>
<rscale>  0 0.19382799E+04</rscale>
<asrwt>0</asrwt>
<pdfrwt beam="1">  1        2 0.15854171E+00 0.19382799E+04</pdfrwt>
<pdfrwt beam="2">  1       -1 0.14021767E+00 0.19382799E+04</pdfrwt>
<totfact> 0.10707893E+01</totfact>
</mgrwt>
</event>
<event>
12    6  0.1663299E-008  0.1969405E+04  0.7818608E-02  0.8621060E-01
          2   -1    0    0  501    0  0.00000000000E+00  0.00000000000E+00  0.20785957566E+04  0.20785957566E+04  0.00000000000E+00 0. -1.
         -1   -1    0    0    0  501 -0.00000000000E+00 -0.00000000000E+00 -0.46648731339E+03  0.46648731339E+03  0.00000000000E+00 0.  1.
         24    2    1    2    0    0  0.20817893635E+03 -0.22615731694E+03 -0.28818009733E+03  0.42888796178E+03  0.80071928428E+02 0.  0.
        254    2    1    2    0    0 -0.20817893635E+03  0.22615731694E+03  0.19002885405E+04  0.21161951082E+04  0.87903333107E+03 0.  0.
         23    2    4    4    0    0 -0.10866572789E+02 -0.21944014037E+03  0.10333099839E+03  0.25208975031E+03  0.67822484269E+02 0.  0.
         23    2    4    4    0    0 -0.19731236356E+03  0.44559745730E+03  0.17969575421E+04  0.18641053579E+04  0.91340649726E+02 0.  0.
          2    1    3    3  502    0  0.57245183733E+02 -0.27935591177E+02 -0.31082899759E+02  0.70877041223E+02  0.00000000000E+00 0. -1.
         -3    1    3    3    0  502  0.15093375262E+03 -0.19822172576E+03 -0.25709719757E+03  0.35801092056E+03  0.00000000000E+00 0.  1.
         11    1    5    5    0    0 -0.29884925553E+02 -0.45366196997E+02  0.17486266208E+02  0.57069870433E+02  0.00000000000E+00 0. -1.
        -11    1    5    5    0    0  0.19018352765E+02 -0.17407394337E+03  0.85844732185E+02  0.19501987987E+03  0.00000000000E+00 0.  1.
          2    1    6    6  503    0  0.70530282072E+01  0.16288321421E+02  0.36764243615E+02  0.40824799206E+02  0.00000000000E+00 0. -1.
         -2    1    6    6    0  503 -0.20436539177E+03  0.42930913588E+03  0.17601932985E+04  0.18232805587E+04  0.00000000000E+00 0.  1.
<mgrwt>
<rscale>  0 0.19694045E+04</rscale>
<asrwt>0</asrwt>
<pdfrwt beam="1">  1        2 0.31978396E+00 0.19694045E+04</pdfrwt>
<pdfrwt beam="2">  1       -1 0.71767280E-01 0.19694045E+04</pdfrwt>
<totfact> 0.12551479E+01</totfact>
</mgrwt>
</event>
<event>
11    6  0.1663299E-008  0.1954800E+04  0.7818608E-02  0.8628050E-01
          2   -1    0    0  501    0  0.00000000000E+00  0.00000000000E+00  0.87821162313E+03  0.87821162313E+03  0.00000000000E+00 0. -1.
         -1   -1    0    0    0  501 -0.00000000000E+00 -0.00000000000E+00 -0.10877910247E+04  0.10877910247E+04  0.00000000000E+00 0.  1.
         24    2    1    2    0    0  0.28500294995E+03  0.69810595120E+03 -0.20481510320E+03  0.78494432733E+03  0.74898397328E+02 0.  0.
        254    2    1    2    0    0 -0.28500294995E+03 -0.69810595120E+03 -0.47642983266E+01  0.11810583205E+04  0.90900905233E+03 0.  0.
         23    2    4    4    0    0  0.19612167768E+03 -0.64206976480E+03  0.15340923661E+02  0.67753409796E+03  0.89998970118E+02 0.  0.
          4    1    3    3  502    0  0.36718615601E+02  0.48628465236E+02 -0.30344779403E+02  0.68071947232E+02  0.00000000000E+00 0. -1.
         -3    1    3    3    0  502  0.24828433435E+03  0.64947748596E+03 -0.17447032380E+03  0.71687238009E+03  0.00000000000E+00 0.  1.
         11    1    4    4    0    0 -0.99163190744E+02 -0.62916054539E+02  0.20980890712E+02  0.11929780422E+03  0.00000000000E+00 0. -1.
        -11    1    4    4    0    0 -0.38196143689E+03  0.68798681439E+01 -0.41086112699E+02  0.38422641829E+03  0.00000000000E+00 0.  1.
          2    1    5    5  503    0  0.20489985787E+03 -0.62539808940E+03  0.11006431693E+02  0.65820047365E+03  0.00000000000E+00 0. -1.
         -2    1    5    5    0  503 -0.87781801827E+01 -0.16671675407E+02  0.43344919675E+01  0.19333624306E+02  0.00000000000E+00 0.  1.
<mgrwt>
<rscale>  0 0.19548000E+04</rscale>
<asrwt>0</asrwt>
<pdfrwt beam="1">  1        2 0.13510948E+00 0.19548000E+04</pdfrwt>
<pdfrwt beam="2">  1       -1 0.16735247E+00 0.19548000E+04</pdfrwt>
<totfact> 0.83099736E+00</totfact>
</mgrwt>
</event>
<event>
11    6  0.1663299E-008  0.1519493E+04  0.7818608E-02  0.8871593E-01
         -1   -1    0    0    0  501 -0.00000000000E+00  0.00000000000E+00  0.19698240911E+03  0.19698240911E+03  0.00000000000E+00 0.  1.
          2   -1    0    0  501    0  0.00000000000E+00 -0.00000000000E+00 -0.29302863957E+04  0.29302863957E+04  0.00000000000E+00 0. -1.
         24    2    1    2    0    0  0.38725860962E+03 -0.25770296439E+03 -0.11729446940E+04  0.12645554234E+04  0.83193239490E+02 0.  0.
        254    2    1    2    0    0 -0.38725860962E+03  0.25770296439E+03 -0.15603592926E+04  0.18627133814E+04  0.90476514671E+03 0.  0.
         23    2    4    4    0    0 -0.42549616427E+03 -0.22917664686E+03 -0.91213146012E+03  0.10361285125E+04  0.89496215719E+02 0.  0.
          4    1    3    3  502    0  0.14919191900E+03 -0.64199415987E+02 -0.48001847554E+03  0.50675194184E+03  0.00000000000E+00 0. -1.
         -3    1    3    3    0  502  0.23806669062E+03 -0.19350354840E+03 -0.69292621845E+03  0.75780348154E+03  0.00000000000E+00 0.  1.
         11    1    4    4    0    0 -0.30701483754E+02  0.13736522898E+02 -0.30293089711E+02  0.45265267593E+02  0.00000000000E+00 0. -1.
        -11    1    4    4    0    0  0.68939038406E+02  0.47314308835E+03 -0.61793474279E+03  0.78131960132E+03  0.00000000000E+00 0.  1.
          4    1    5    5  503    0 -0.11162284326E+03 -0.20111849312E+02 -0.23915478224E+03  0.26468690086E+03  0.00000000000E+00 0. -1.
         -4    1    5    5    0  503 -0.31387332101E+03 -0.20906479755E+03 -0.67297667789E+03  0.77144161166E+03  0.00000000000E+00 0.  1.
<mgrwt>
<rscale>  0 0.15194932E+04</rscale>
<asrwt>0</asrwt>
<pdfrwt beam="1">  1        2 0.45081330E+00 0.15194932E+04</pdfrwt>
<pdfrwt beam="2">  1       -1 0.30304985E-01 0.15194932E+04</pdfrwt>
<totfact> 0.21326190E+01</totfact>
</mgrwt>
</event>
<event>
12    6  0.1663299E-008  0.1759036E+04  0.7818608E-02  0.8728392E-01
          2   -1    0    0  501    0  0.00000000000E+00  0.00000000000E+00  0.90963604386E+03  0.90963604386E+03  0.00000000000E+00 0. -1.
         -1   -1    0    0    0  501 -0.00000000000E+00 -0.00000000000E+00 -0.85039704149E+03  0.85039704149E+03  0.00000000000E+00 0.  1.
         24    2    1    2    0    0 -0.62162078688E+03  0.11233581860E+03 -0.57906136902E+02  0.63950137357E+03  0.81099613408E+02 0.  0.
        254    2    1    2    0    0  0.62162078688E+03 -0.11233581860E+03  0.11714513927E+03  0.11205317118E+04  0.91806132400E+03 0.  0.
         23    2    4    4    0    0  0.77316797995E+03 -0.74147594125E+02 -0.15327928997E+03  0.79543385135E+03  0.77031683146E+02 0.  0.
         23    2    4    4    0    0 -0.15154719307E+03 -0.38188224479E+02  0.27042442923E+03  0.32509786043E+03  0.90190657559E+02 0.  0.
          4    1    3    3  502    0 -0.39943499182E+03  0.48978979808E+02 -0.68505368774E+02  0.40821592166E+03  0.00000000000E+00 0. -1.
         -3    1    3    3    0  502 -0.22218579506E+03  0.63356838795E+02  0.10599231872E+02  0.23128545191E+03  0.00000000000E+00 0.  1.
         11    1    5    5    0    0  0.44476192804E+02 -0.12630352946E+02 -0.26349337353E+02  0.53216023158E+02  0.00000000000E+00 0.  1.
        -11    1    5    5    0    0  0.72869178715E+03 -0.61517241179E+02 -0.12692995261E+03  0.74221782819E+03  0.00000000000E+00 0. -1.
          1    1    6    6  503    0 -0.94535195111E+02 -0.55717433679E+02  0.11660499872E+03  0.16011889725E+03  0.00000000000E+00 0. -1.
         -1    1    6    6    0  503 -0.57011997962E+02  0.17529209201E+02  0.15381943052E+03  0.16497896318E+03  0.00000000000E+00 0.  1.
<mgrwt>
<rscale>  0 0.17590359E+04</rscale>
<asrwt>0</asrwt>
<pdfrwt beam="1">  1        2 0.13994401E+00 0.17590359E+04</pdfrwt>
<pdfrwt beam="2">  1       -1 0.13083031E+00 0.17590359E+04</pdfrwt>
<totfact> 0.15582245E+01</totfact>
</mgrwt>
</event>
<event>
12    6  0.1663299E-008  0.1346150E+04  0.7818608E-02  0.8993747E-01
          2   -1    0    0  501    0  0.00000000000E+00  0.00000000000E+00  0.12597383488E+04  0.12597383488E+04  0.00000000000E+00 0. -1.
         -1   -1    0    0    0  501 -0.00000000000E+00 -0.00000000000E+00 -0.35962250001E+03  0.35962250001E+03  0.00000000000E+00 0.  1.
         24    2    1    2    0    0 -0.24634946223E+03  0.82856342365E+02 -0.59870394775E+02  0.27791138281E+03  0.78083554684E+02 0.  0.
        254    2    1    2    0    0  0.24634946223E+03 -0.82856342365E+02  0.95998624359E+03  0.13414494660E+04  0.90019989504E+03 0.  0.
         23    2    4    4    0    0 -0.15501964400E+03 -0.33798845961E+02 -0.86358722529E+02  0.21614910563E+03  0.11869774594E+03 0.  0.
         23    2    4    4    0    0  0.40136910623E+03 -0.49057496404E+02  0.10463449661E+04  0.11253003604E+04  0.89214996639E+02 0.  0.
          2    1    3    3  502    0 -0.48879662134E+02  0.51999044372E+02 -0.11652677901E+02  0.72311180935E+02  0.00000000000E+00 0. -1.
         -1    1    3    3    0  502 -0.19746980009E+03  0.30857297993E+02 -0.48217716874E+02  0.20560020187E+03  0.00000000000E+00 0.  1.
         11    1    5    5    0    0 -0.17432104242E+03 -0.36379756117E+02 -0.72607646925E+02  0.19231012162E+03  0.00000000000E+00 0.  1.
        -11    1    5    5    0    0  0.19301398417E+02  0.25809101566E+01 -0.13751075603E+02  0.23838984004E+02  0.00000000000E+00 0. -1.
          1    1    6    6  503    0  0.68139936074E+02 -0.31138592188E+02  0.12946003999E+03  0.14957461271E+03  0.00000000000E+00 0. -1.
         -1    1    6    6    0  503  0.33322917016E+03 -0.17918904216E+02  0.91688492612E+03  0.97572574770E+03  0.00000000000E+00 0.  1.
<mgrwt>
<rscale>  0 0.13461504E+04</rscale>
<asrwt>0</asrwt>
<pdfrwt beam="1">  1        2 0.19380590E+00 0.13461504E+04</pdfrwt>
<pdfrwt beam="2">  1       -1 0.55326539E-01 0.13461504E+04</pdfrwt>
<totfact> 0.64206232E+01</totfact>
</mgrwt>
</event>
<event>
12    6  0.1663299E-008  0.2736434E+04  0.7818608E-02  0.8323279E-01
          2   -1    0    0  501    0  0.00000000000E+00  0.00000000000E+00  0.85851982371E+03  0.85851982371E+03  0.00000000000E+00 0. -1.
         -1   -1    0    0    0  501 -0.00000000000E+00 -0.00000000000E+00 -0.21805179319E+04  0.21805179319E+04  0.00000000000E+00 0.  1.
         24    2    1    2    0    0 -0.97529492727E+03  0.51526405482E+03 -0.12185881727E+04  0.16454919798E+04  0.77391726495E+02 0.  0.
        254    2    1    2    0    0  0.97529492727E+03 -0.51526405482E+03 -0.10340993550E+03  0.13935457759E+04  0.84532773138E+03 0.  0.
         23    2    4    4    0    0  0.83895213767E+03 -0.11159433019E+03 -0.31875553762E+03  0.90760136198E+03  0.76427453602E+02 0.  0.
         23    2    4    4    0    0  0.13634278960E+03 -0.40366972463E+03  0.21534560212E+03  0.48594441393E+03  0.90717375500E+02 0.  0.
          4    1    3    3  502    0 -0.10544894145E+03  0.36494422587E+02 -0.14798769036E+03  0.18534205845E+03  0.00000000000E+00 0. -1.
         -3    1    3    3    0  502 -0.86984598582E+03  0.47876963223E+03 -0.10706004824E+04  0.14601499213E+04  0.00000000000E+00 0.  1.
         11    1    5    5    0    0  0.34874340949E+03 -0.60771887019E+02 -0.96155126592E+02  0.36682556656E+03  0.00000000000E+00 0.  1.
        -11    1    5    5    0    0  0.49020872819E+03 -0.50822443169E+02 -0.22260041103E+03  0.54077579542E+03  0.00000000000E+00 0. -1.
          4    1    6    6  503    0  0.11994904104E+03 -0.32733184675E+03  0.21152970690E+03  0.40777288684E+03  0.00000000000E+00 0. -1.
         -4    1    6    6    0  503  0.16393748565E+02 -0.76337877875E+02  0.38158952237E+01  0.78171527085E+02  0.00000000000E+00 0.  1.
<mgrwt>
<rscale>  0 0.27364341E+04</rscale>
<asrwt>0</asrwt>
<pdfrwt beam="1">  1        2 0.13207997E+00 0.27364341E+04</pdfrwt>
<pdfrwt beam="2">  1       -1 0.33546430E+00 0.27364341E+04</pdfrwt>
<totfact> 0.60512588E-01</totfact>
</mgrwt>
</event>
<event>
11    6  0.1923762E-008  0.1481711E+04  0.7818608E-02  0.8896707E-01
          2   -1    0    0  501    0  0.00000000000E+00  0.00000000000E+00  0.22451994550E+04  0.22451994550E+04  0.00000000000E+00 0. -1.
         -1   -1    0    0    0  501 -0.00000000000E+00 -0.00000000000E+00 -0.24446237115E+03  0.24446237115E+03  0.00000000000E+00 0.  1.
         24    2    1    2    0    0 -0.15805707550E+03  0.46467645234E+01  0.13297650466E+04  0.13415371424E+04  0.80269507600E+02 0.  0.
        254    2    1    2    0    0  0.15805707550E+03 -0.46467645234E+01  0.67097203729E+03  0.11481246837E+04  0.91814115639E+03 0.  0.
         23    2    4    4    0    0  0.30809260357E+03  0.21144208482E+03 -0.24035613705E+02  0.38471847587E+03  0.88327726911E+02 0.  0.
          2    1    3    3  502    0 -0.14428788881E+03  0.90164617793E+00  0.13050200292E+04  0.13129726137E+04  0.00000000000E+00 0. -1.
         -1    1    3    3    0  502 -0.13769186686E+02  0.37451183455E+01  0.24745017376E+02  0.28564528674E+02  0.00000000000E+00 0.  1.
         11    1    4    4    0    0  0.17076128938E+02  0.13098364653E+02  0.13956833841E+02  0.25650624689E+02  0.00000000000E+00 0.  1.
        -11    1    4    4    0    0 -0.16711165701E+03 -0.22918721400E+03  0.68105081715E+03  0.73775558318E+03  0.00000000000E+00 0. -1.
          3    1    5    5  503    0  0.31128135447E+03  0.21528386748E+03 -0.21416156920E+02  0.37908030418E+03  0.00000000000E+00 0. -1.
         -3    1    5    5    0  503 -0.31887508995E+01 -0.38417826513E+01 -0.26194567851E+01  0.56381716972E+01  0.00000000000E+00 0.  1.
<mgrwt>
<rscale>  0 0.14817109E+04</rscale>
<asrwt>0</asrwt>
<pdfrwt beam="1">  1        2 0.34541529E+00 0.14817109E+04</pdfrwt>
<pdfrwt beam="2">  1       -1 0.37609597E-01 0.14817109E+04</pdfrwt>
<totfact> 0.36620966E+01</totfact>
</mgrwt>
</event>
<event>
12    6  0.1663299E-008  0.3367077E+04  0.7818608E-02  0.8146034E-01
          2   -1    0    0  501    0  0.00000000000E+00  0.00000000000E+00  0.29616604275E+04  0.29616604275E+04  0.00000000000E+00 0. -1.
         -1   -1    0    0    0  501 -0.00000000000E+00 -0.00000000000E+00 -0.95699752516E+03  0.95699752516E+03  0.00000000000E+00 0.  1.
         24    2    1    2    0    0 -0.12689871509E+04  0.40176226940E+03  0.18844350824E+04  0.23084712218E+04  0.78755899118E+02 0.  0.
        254    2    1    2    0    0  0.12689871509E+04 -0.40176226940E+03  0.12022781990E+03  0.16101867309E+04  0.89805638435E+03 0.  0.
         23    2    4    4    0    0  0.67145572214E+03 -0.65738547247E+03  0.15171435781E+02  0.94570653528E+03  0.10546199413E+03 0.  0.
         23    2    4    4    0    0  0.59753142873E+03  0.25562320307E+03  0.10505638412E+03  0.66448019561E+03  0.90055850702E+02 0.  0.
          2    1    3    3  502    0 -0.78293182773E+03  0.20938691959E+03  0.11653561740E+04  0.14194647376E+04  0.00000000000E+00 0. -1.
         -1    1    3    3    0  502 -0.48605532313E+03  0.19237534981E+03  0.71907890839E+03  0.88900648415E+03  0.00000000000E+00 0.  1.
         11    1    5    5    0    0  0.67500114194E+03 -0.65690434479E+03  0.16047108201E+02  0.94202301963E+03  0.00000000000E+00 0. -1.
        -11    1    5    5    0    0 -0.35454198005E+01 -0.48112767878E+00 -0.87567241979E+00  0.36835156566E+01  0.00000000000E+00 0.  1.
          4    1    6    6  503    0  0.56583286083E+03  0.22330518805E+03  0.82399075197E+02  0.61385799742E+03  0.00000000000E+00 0. -1.
         -4    1    6    6    0  503  0.31698567895E+02  0.32318015014E+02  0.22657308926E+02  0.50622198182E+02  0.00000000000E+00 0.  1.
<mgrwt>
<rscale>  0 0.33670769E+04</rscale>
<asrwt>0</asrwt>
<pdfrwt beam="1">  1        2 0.45564006E+00 0.33670769E+04</pdfrwt>
<pdfrwt beam="2">  1       -1 0.14723039E+00 0.33670769E+04</pdfrwt>
<totfact> 0.63632690E-01</totfact>
</mgrwt>
</event>
<event>
11    6  0.1663299E-008  0.1764006E+04  0.7818608E-02  0.8725678E-01
         -1   -1    0    0    0  501 -0.00000000000E+00  0.00000000000E+00  0.33246939511E+03  0.33246939511E+03  0.00000000000E+00 0.  1.
          2   -1    0    0  501    0  0.00000000000E+00 -0.00000000000E+00 -0.23398535954E+04  0.23398535954E+04  0.00000000000E+00 0. -1.
         24    2    1    2    0    0 -0.12676839926E+03 -0.20354025094E+03  0.17101664050E+03  0.30497645926E+03  0.79152312500E+02 0.  0.
        254    2    1    2    0    0  0.12676839926E+03  0.20354025094E+03 -0.21784008408E+04  0.23673465313E+04  0.89520976038E+03 0.  0.
         23    2    4    4    0    0 -0.74435577792E+02  0.32660719338E+03 -0.28271240816E+03  0.44669409602E+03  0.86002300493E+02 0.  0.
          2    1    3    3  502    0 -0.11436161506E+02  0.14046592296E+01  0.26643089389E+02  0.29027798224E+02  0.00000000000E+00 0. -1.
         -1    1    3    3    0  502 -0.11533223776E+03 -0.20494491017E+03  0.14437355111E+03  0.27594866104E+03  0.00000000000E+00 0.  1.
         11    1    4    4    0    0  0.23393864955E+03 -0.13019787870E+03 -0.15134121031E+04  0.15369108540E+04  0.00000000000E+00 0.  1.
        -11    1    4    4    0    0 -0.32734672492E+02  0.71309362635E+01 -0.38227632957E+03  0.38374158125E+03  0.00000000000E+00 0. -1.
          3    1    5    5  503    0  0.87324794823E+01  0.64345233360E+02 -0.24594378294E+02  0.69436652409E+02  0.00000000000E+00 0. -1.
         -3    1    5    5    0  503 -0.83168057274E+02  0.26226196002E+03 -0.25811802987E+03  0.37725744362E+03  0.00000000000E+00 0.  1.
<mgrwt>
<rscale>  0 0.17640065E+04</rscale>
<asrwt>0</asrwt>
<pdfrwt beam="1">  1        2 0.35997747E+00 0.17640065E+04</pdfrwt>
<pdfrwt beam="2">  1       -1 0.51149139E-01 0.17640065E+04</pdfrwt>
<totfact> 0.17842721E+01</totfact>
</mgrwt>
</event>
<event>
12    6  0.1663299E-008  0.2080973E+04  0.7818608E-02  0.8569671E-01
         -1   -1    0    0    0  501 -0.00000000000E+00  0.00000000000E+00  0.49445488409E+03  0.49445488409E+03  0.00000000000E+00 0.  1.
          2   -1    0    0  501    0  0.00000000000E+00 -0.00000000000E+00 -0.21895070999E+04  0.21895070999E+04  0.00000000000E+00 0. -1.
         24    2    1    2    0    0  0.62096009090E+03 -0.45733697012E+03 -0.23580352262E+03  0.81048606467E+03  0.80844424726E+02 0.  0.
        254    2    1    2    0    0 -0.62096009090E+03  0.45733697012E+03 -0.14592486932E+04  0.18734759193E+04  0.88642920359E+03 0.  0.
         23    2    4    4    0    0 -0.26382959515E+02 -0.21300031686E+03 -0.49286589576E+03  0.55244432215E+03  0.12732926742E+03 0.  0.
         23    2    4    4    0    0 -0.59457713139E+03  0.67033728698E+03 -0.96638279742E+03  0.13210315972E+04  0.91404190640E+02 0.  0.
          4    1    3    3  502    0  0.28245469714E+03 -0.18801786981E+03 -0.65372817572E+02  0.34555025768E+03  0.00000000000E+00 0. -1.
         -3    1    3    3    0  502  0.33850539376E+03 -0.26931910031E+03 -0.17043070505E+03  0.46493580699E+03  0.00000000000E+00 0.  1.
         11    1    5    5    0    0  0.48218247088E+02 -0.12600767706E+03 -0.27127766768E+03  0.30297608323E+03  0.00000000000E+00 0.  1.
        -11    1    5    5    0    0 -0.74601206603E+02 -0.86992639806E+02 -0.22158822808E+03  0.24946823892E+03  0.00000000000E+00 0. -1.
          3    1    6    6  503    0 -0.34523579463E+02  0.46546376163E+02 -0.33988278942E+02  0.67183671961E+02  0.00000000000E+00 0. -1.
         -3    1    6    6    0  503 -0.56005355192E+03  0.62379091082E+03 -0.93239451847E+03  0.12538479252E+04  0.00000000000E+00 0.  1.
<mgrwt>
<rscale>  0 0.20809733E+04</rscale>
<asrwt>0</asrwt>
<pdfrwt beam="1">  1        2 0.33684724E+00 0.20809733E+04</pdfrwt>
<pdfrwt beam="2">  1       -1 0.76069984E-01 0.20809733E+04</pdfrwt>
<totfact> 0.95443468E+00</totfact>
</mgrwt>
</event>
<event>
11    6  0.1663299E-008  0.2295725E+04  0.7818608E-02  0.8479609E-01
         -1   -1    0    0    0  501 -0.00000000000E+00  0.00000000000E+00  0.12143715634E+04  0.12143715634E+04  0.00000000000E+00 0.  1.
          2   -1    0    0  501    0  0.00000000000E+00 -0.00000000000E+00 -0.10849962106E+04  0.10849962106E+04  0.00000000000E+00 0. -1.
         24    2    1    2    0    0  0.78663500556E+02 -0.19141312099E+03  0.10088567539E+04  0.10329117048E+04  0.79295087636E+02 0.  0.
        254    2    1    2    0    0 -0.78663500556E+02  0.19141312099E+03 -0.87948140100E+03  0.12664560692E+04  0.88746634371E+03 0.  0.
         23    2    4    4    0    0 -0.15799479180E+03  0.48589412458E+03 -0.70189527026E+03  0.87268102219E+03  0.88655183422E+02 0.  0.
          2    1    3    3  502    0  0.59285802877E+02 -0.50175406217E+02  0.30244958238E+03  0.31226291437E+03  0.00000000000E+00 0. -1.
         -3    1    3    3    0  502  0.19377697679E+02 -0.14123771477E+03  0.70640717149E+03  0.72064879044E+03  0.00000000000E+00 0.  1.
         11    1    4    4    0    0 -0.40637145464E+02 -0.93793227475E+02 -0.35106164498E+01  0.10227840212E+03  0.00000000000E+00 0. -1.
        -11    1    4    4    0    0  0.11996843671E+03 -0.20068777611E+03 -0.17407551429E+03  0.29149664486E+03  0.00000000000E+00 0.  1.
          4    1    5    5  503    0 -0.77971853046E+01  0.47731033499E+02 -0.31083736605E+02  0.57491271850E+02  0.00000000000E+00 0. -1.
         -4    1    5    5    0  503 -0.15019760650E+03  0.43816309108E+03 -0.67081153365E+03  0.81518975034E+03  0.00000000000E+00 0.  1.
<mgrwt>
<rscale>  0 0.22957252E+04</rscale>
<asrwt>0</asrwt>
<pdfrwt beam="1">  1        2 0.16692249E+00 0.22957252E+04</pdfrwt>
<pdfrwt beam="2">  1       -1 0.18682639E+00 0.22957252E+04</pdfrwt>
<totfact> 0.42818020E+00</totfact>
</mgrwt>
</event>
<event>
11    6  0.1663299E-008  0.1604591E+04  0.7818608E-02  0.8817733E-01
          2   -1    0    0  501    0  0.00000000000E+00  0.00000000000E+00  0.11417734761E+04  0.11417734761E+04  0.00000000000E+00 0. -1.
         -1   -1    0    0    0  501 -0.00000000000E+00 -0.00000000000E+00 -0.56375256314E+03  0.56375256314E+03  0.00000000000E+00 0.  1.
         24    2    1    2    0    0  0.41680973340E+03  0.30817922627E+03  0.38428208261E+03  0.65019469270E+03  0.79847542489E+02 0.  0.
        254    2    1    2    0    0 -0.41680973340E+03 -0.30817922627E+03  0.19373883040E+03  0.10553313466E+04  0.89860153980E+03 0.  0.
         23    2    4    4    0    0 -0.56209481236E+03 -0.47956468483E+03  0.21772274296E+03  0.77542753697E+03  0.89172906612E+02 0.  0.
          2    1    3    3  502    0  0.41368849890E+03  0.30915301934E+03  0.38746341261E+03  0.64563275909E+03  0.00000000000E+00 0. -1.
         -1    1    3    3    0  502  0.31212345013E+01 -0.97379306718E+00 -0.31813300043E+01  0.45619336192E+01  0.00000000000E+00 0.  1.
         11    1    4    4    0    0  0.45500813269E+02  0.26776766472E+02  0.64364039852E+02  0.83246914999E+02  0.00000000000E+00 0. -1.
        -11    1    4    4    0    0  0.99784265689E+02  0.14460869208E+03 -0.88347952410E+02  0.19665689462E+03  0.00000000000E+00 0.  1.
          1    1    5    5  503    0 -0.45004870908E+02 -0.42250404464E+02 -0.64601551024E+01  0.62066647137E+02  0.00000000000E+00 0. -1.
         -1    1    5    5    0  503 -0.51708994145E+03 -0.43731428037E+03  0.22418289806E+03  0.71336088984E+03  0.00000000000E+00 0.  1.
<mgrwt>
<rscale>  0 0.16045906E+04</rscale>
<asrwt>0</asrwt>
<pdfrwt beam="1">  1        2 0.17565746E+00 0.16045906E+04</pdfrwt>
<pdfrwt beam="2">  1       -1 0.86731164E-01 0.16045906E+04</pdfrwt>
<totfact> 0.29423126E+01</totfact>
</mgrwt>
</event>
<event>
12    6  0.1663299E-008  0.1468759E+04  0.7818608E-02  0.8905498E-01
         -3   -1    0    0    0  501 -0.00000000000E+00  0.00000000000E+00  0.17780855037E+04  0.17780855037E+04  0.00000000000E+00 0.  1.
          4   -1    0    0  501    0  0.00000000000E+00 -0.00000000000E+00 -0.30331125604E+03  0.30331125604E+03  0.00000000000E+00 0. -1.
         24    2    1    2    0    0 -0.15429861566E+02 -0.30125457117E+03  0.93383184545E+03  0.98454598682E+03  0.79350408329E+02 0.  0.
        254    2    1    2    0    0  0.15429861566E+02  0.30125457117E+03  0.54094240222E+03  0.10968507729E+04  0.90524612027E+03 0.  0.
         23    2    4    4    0    0  0.27012552879E+02  0.56842541020E+03  0.12168930152E+03  0.59119216314E+03  0.10422457809E+03 0.  0.
         23    2    4    4    0    0 -0.11582691313E+02 -0.26717083902E+03  0.41925310069E+03  0.50565860978E+03  0.91668158280E+02 0.  0.
          2    1    3    3  502    0 -0.28072691607E+02 -0.38429279114E+02  0.11442425792E+03  0.12392657628E+03  0.00000000000E+00 0. -1.
         -1    1    3    3    0  502  0.12642830041E+02 -0.26282529206E+03  0.81940758753E+03  0.86061941054E+03  0.00000000000E+00 0.  1.
         11    1    5    5    0    0  0.42334633551E+02  0.53731261424E+03  0.94671207988E+02  0.54722911494E+03  0.00000000000E+00 0. -1.
        -11    1    5    5    0    0 -0.15322080672E+02  0.31112795962E+02  0.27018093534E+02  0.43963048198E+02  0.00000000000E+00 0.  1.
          4    1    6    6  503    0 -0.35655244161E+02 -0.25048059376E+03  0.36707530172E+03  0.44582070546E+03  0.00000000000E+00 0. -1.
         -4    1    6    6    0  503  0.24072552849E+02 -0.16690245266E+02  0.52177798974E+02  0.59837904320E+02  0.00000000000E+00 0.  1.
<mgrwt>
<rscale>  0 0.14687591E+04</rscale>
<asrwt>0</asrwt>
<pdfrwt beam="1">  1        4 0.46663271E-01 0.14687591E+04</pdfrwt>
<pdfrwt beam="2">  1       -3 0.27355161E+00 0.14687591E+04</pdfrwt>
<totfact> 0.53130867E-01</totfact>
</mgrwt>
</event>
<event>
12    6  0.1663299E-008  0.1820549E+04  0.7818608E-02  0.8695447E-01
         -1   -1    0    0    0  501 -0.00000000000E+00  0.00000000000E+00  0.29166956191E+03  0.29166956191E+03  0.00000000000E+00 0.  1.
          2   -1    0    0  501    0  0.00000000000E+00 -0.00000000000E+00 -0.28408863863E+04  0.28408863863E+04  0.00000000000E+00 0. -1.
         24    2    1    2    0    0 -0.48083509461E+02 -0.44027038095E+03 -0.18460418011E+04  0.19001397222E+04  0.80688290817E+02 0.  0.
        254    2    1    2    0    0  0.48083509461E+02  0.44027038095E+03 -0.70317502333E+03  0.12324162260E+04  0.91007945177E+03 0.  0.
         23    2    4    4    0    0 -0.41867489872E+03  0.22267416473E+03 -0.25575560980E+03  0.54400660865E+03  0.75231667832E+02 0.  0.
         23    2    4    4    0    0  0.46675840818E+03  0.21759621622E+03 -0.44741941352E+03  0.68840961739E+03  0.92261285455E+02 0.  0.
          2    1    3    3  502    0  0.96324036053E+01 -0.27377589054E+03 -0.11149461826E+04  0.11481075784E+04  0.00000000000E+00 0. -1.
         -1    1    3    3    0  502 -0.57715913067E+02 -0.16649449041E+03 -0.73109561846E+03  0.75203214379E+03  0.00000000000E+00 0.  1.
         11    1    5    5    0    0 -0.36639378559E+03  0.21443791290E+03 -0.20812736597E+03  0.47280548334E+03  0.00000000000E+00 0. -1.
        -11    1    5    5    0    0 -0.52281113128E+02  0.82362518346E+01 -0.47628243835E+02  0.71201125307E+02  0.00000000000E+00 0.  1.
          1    1    6    6  503    0  0.38854347948E+03  0.17173600366E+03 -0.31916598434E+03  0.53134378322E+03  0.00000000000E+00 0. -1.
         -1    1    6    6    0  503  0.78214928698E+02  0.45860212557E+02 -0.12825342918E+03  0.15706583417E+03  0.00000000000E+00 0.  1.
<mgrwt>
<rscale>  0 0.18205495E+04</rscale>
<asrwt>0</asrwt>
<pdfrwt beam="1">  1        2 0.43705944E+00 0.18205495E+04</pdfrwt>
<pdfrwt beam="2">  1       -1 0.44872240E-01 0.18205495E+04</pdfrwt>
<totfact> 0.11568675E+01</totfact>
</mgrwt>
</event>
<event>
12    6  0.1663299E-008  0.1960799E+04  0.7818608E-02  0.8625171E-01
         -1   -1    0    0    0  501 -0.00000000000E+00  0.00000000000E+00  0.70469375906E+03  0.70469375906E+03  0.00000000000E+00 0.  1.
          2   -1    0    0  501    0  0.00000000000E+00 -0.00000000000E+00 -0.13639733348E+04  0.13639733348E+04  0.00000000000E+00 0. -1.
         24    2    1    2    0    0  0.44705046923E+03 -0.62126262319E+03 -0.17030613938E+03  0.78817697134E+03  0.79983673473E+02 0.  0.
        254    2    1    2    0    0 -0.44705046923E+03  0.62126262319E+03 -0.48897343633E+03  0.12804901225E+04  0.90262869628E+03 0.  0.
         23    2    4    4    0    0 -0.13270244387E+03  0.79231118393E+03 -0.36039901040E+03  0.88899069298E+03  0.12267866451E+03 0.  0.
         23    2    4    4    0    0 -0.31434802536E+03 -0.17104856073E+03 -0.12857442592E+03  0.39149942950E+03  0.93102787954E+02 0.  0.
          4    1    3    3  502    0  0.44099417588E+03 -0.58423848428E+03 -0.16004708335E+03  0.74928334998E+03  0.00000000000E+00 0. -1.
         -3    1    3    3    0  502  0.60562933490E+01 -0.37024138919E+02 -0.10259056021E+02  0.38893621357E+02  0.00000000000E+00 0.  1.
         11    1    5    5    0    0 -0.57839954851E+02  0.62229368556E+03 -0.25170081867E+03  0.67375677628E+03  0.00000000000E+00 0. -1.
        -11    1    5    5    0    0 -0.74862489019E+02  0.17001749837E+03 -0.10869819173E+03  0.21523391670E+03  0.00000000000E+00 0.  1.
          1    1    6    6  503    0 -0.30830675169E+03 -0.17179890075E+03 -0.13908099635E+03  0.37935661189E+03  0.00000000000E+00 0. -1.
         -1    1    6    6    0  503 -0.60412736680E+01  0.75034001539E+00  0.10506570423E+02  0.12142817619E+02  0.00000000000E+00 0.  1.
<mgrwt>
<rscale>  0 0.19607993E+04</rscale>
<asrwt>0</asrwt>
<pdfrwt beam="1">  1        2 0.20984205E+00 0.19607993E+04</pdfrwt>
<pdfrwt beam="2">  1       -1 0.10841442E+00 0.19607993E+04</pdfrwt>
<totfact> 0.12734026E+01</totfact>
</mgrwt>
</event>
<event>
12    6  0.1663299E-008  0.3017205E+04  0.7818608E-02  0.8238835E-01
         -1   -1    0    0    0  501 -0.00000000000E+00  0.00000000000E+00  0.20613222025E+04  0.20613222025E+04  0.00000000000E+00 0.  1.
          2   -1    0    0  501    0  0.00000000000E+00 -0.00000000000E+00 -0.11040879804E+04  0.11040879804E+04  0.00000000000E+00 0. -1.
         24    2    1    2    0    0  0.10034581328E+04 -0.66018412715E+03 -0.25312747680E+03  0.12300316490E+04  0.78313677015E+02 0.  0.
        254    2    1    2    0    0 -0.10034581328E+04  0.66018412715E+03  0.12103616989E+04  0.19353785339E+04  0.91539244113E+03 0.  0.
         23    2    4    4    0    0 -0.76781185125E+02  0.54628154156E+03  0.35624219915E+03  0.66661001998E+03  0.11463656153E+03 0.  0.
         23    2    4    4    0    0 -0.92667694766E+03  0.11390258559E+03  0.85411949975E+03  0.12687685139E+04  0.92463277649E+02 0.  0.
          4    1    3    3  502    0  0.92643538925E+03 -0.63277202831E+03 -0.23344461670E+03  0.11459403821E+04  0.00000000000E+00 0. -1.
         -3    1    3    3    0  502  0.77022743536E+02 -0.27412098834E+02 -0.19682860105E+02  0.84091266884E+02  0.00000000000E+00 0.  1.
         11    1    5    5    0    0  0.26403095552E+01  0.90350486743E+02  0.15039728502E+02  0.91631736438E+02  0.00000000000E+00 0. -1.
        -11    1    5    5    0    0 -0.79421494680E+02  0.45593105482E+03  0.34120247065E+03  0.57497828354E+03  0.00000000000E+00 0.  1.
          1    1    6    6  503    0 -0.20284799187E+03  0.63854174609E+02  0.19330951965E+03  0.28739038573E+03  0.00000000000E+00 0. -1.
         -1    1    6    6    0  503 -0.72382895579E+03  0.50048410979E+02  0.66080998009E+03  0.98137812818E+03  0.00000000000E+00 0.  1.
<mgrwt>
<rscale>  0 0.30172047E+04</rscale>
<asrwt>0</asrwt>
<pdfrwt beam="1">  1        2 0.16985969E+00 0.30172047E+04</pdfrwt>
<pdfrwt beam="2">  1       -1 0.31712649E+00 0.30172047E+04</pdfrwt>
<totfact> 0.53903870E-01</totfact>
</mgrwt>
</event>
<event>
12    6  0.1663299E-008  0.1565290E+04  0.7818608E-02  0.8842160E-01
          2   -1    0    0  501    0  0.00000000000E+00  0.00000000000E+00  0.14884094790E+04  0.14884094790E+04  0.00000000000E+00 0. -1.
         -1   -1    0    0    0  501 -0.00000000000E+00 -0.00000000000E+00 -0.41153519638E+03  0.41153519638E+03  0.00000000000E+00 0.  1.
         24    2    1    2    0    0 -0.14480976268E+03  0.18508146436E+03  0.91879763055E+03  0.95171599575E+03  0.79682086128E+02 0.  0.
        254    2    1    2    0    0  0.14480976268E+03 -0.18508146436E+03  0.15807665204E+03  0.94822867960E+03  0.90494440994E+03 0.  0.
         23    2    4    4    0    0  0.34644193959E+03 -0.28160064118E+03  0.40263932437E+03  0.60468675405E+03  0.64859127144E+02 0.  0.
         23    2    4    4    0    0 -0.20163217691E+03  0.96519176827E+02 -0.24456267233E+03  0.34354192555E+03  0.90767106671E+02 0.  0.
          2    1    3    3  502    0 -0.15149370814E+03  0.18663897221E+03  0.87651802887E+03  0.90888299824E+03  0.00000000000E+00 0. -1.
         -1    1    3    3    0  502  0.66839454657E+01 -0.15575078505E+01  0.42279601681E+02  0.42832997513E+02  0.00000000000E+00 0.  1.
         11    1    5    5    0    0  0.96922260876E+02 -0.56713790980E+02  0.13209496993E+03  0.17337664151E+03  0.00000000000E+00 0. -1.
        -11    1    5    5    0    0  0.24951967871E+03 -0.22488685020E+03  0.27054435444E+03  0.43131011254E+03  0.00000000000E+00 0.  1.
          1    1    6    6  503    0 -0.24907212888E+02  0.40189269336E+02 -0.91749272540E+02  0.10321567534E+03  0.00000000000E+00 0. -1.
         -1    1    6    6    0  503 -0.17672496402E+03  0.56329907491E+02 -0.15281339979E+03  0.24032625021E+03  0.00000000000E+00 0.  1.
<mgrwt>
<rscale>  0 0.15652896E+04</rscale>
<asrwt>0</asrwt>
<pdfrwt beam="1">  1        2 0.22898607E+00 0.15652896E+04</pdfrwt>
<pdfrwt beam="2">  1       -1 0.63313108E-01 0.15652896E+04</pdfrwt>
<totfact> 0.35722535E+01</totfact>
</mgrwt>
</event>
<event>
11    6  0.1663299E-008  0.1582768E+04  0.7818608E-02  0.8831205E-01
         -1   -1    0    0    0  501 -0.00000000000E+00  0.00000000000E+00  0.15258679690E+03  0.15258679690E+03  0.00000000000E+00 0.  1.
          2   -1    0    0  501    0  0.00000000000E+00 -0.00000000000E+00 -0.41044746828E+04  0.41044746828E+04  0.00000000000E+00 0. -1.
         24    2    1    2    0    0  0.16819399631E+03 -0.48018485718E+03 -0.87630477322E+03  0.10164833041E+04  0.80383670294E+02 0.  0.
        254    2    1    2    0    0 -0.16819399631E+03  0.48018485718E+03 -0.30755831127E+04  0.32405781756E+04  0.88502469559E+03 0.  0.
         23    2    4    4    0    0  0.93133956951E+01 -0.21971718875E+03 -0.71880035533E+03  0.75721456673E+03  0.91310278023E+02 0.  0.
          4    1    3    3  502    0 -0.25290343180E+01 -0.21999501052E+02 -0.70869578850E+02  0.74248712228E+02  0.00000000000E+00 0. -1.
         -3    1    3    3    0  502  0.17072303062E+03 -0.45818535613E+03 -0.80543519437E+03  0.94223459185E+03  0.00000000000E+00 0.  1.
         11    1    4    4    0    0 -0.57324664855E+02  0.55263843735E+03 -0.13688347834E+04  0.14772961869E+04  0.00000000000E+00 0. -1.
        -11    1    4    4    0    0 -0.12018272715E+03  0.14726360858E+03 -0.98794797389E+03  0.10060674219E+04  0.00000000000E+00 0.  1.
          4    1    5    5  503    0  0.28399988218E+02 -0.21695325473E+03 -0.65735762562E+03  0.69281622530E+03  0.00000000000E+00 0. -1.
         -4    1    5    5    0  503 -0.19086592522E+02 -0.27639340174E+01 -0.61442729712E+02  0.64398341437E+02  0.00000000000E+00 0.  1.
<mgrwt>
<rscale>  0 0.15827680E+04</rscale>
<asrwt>0</asrwt>
<pdfrwt beam="1">  1        2 0.63145765E+00 0.15827680E+04</pdfrwt>
<pdfrwt beam="2">  1       -1 0.23474892E-01 0.15827680E+04</pdfrwt>
<totfact> 0.48960263E+00</totfact>
</mgrwt>
</event>
<event>
12    6  0.1663299E-008  0.1174850E+04  0.7818608E-02  0.9135160E-01
         -1   -1    0    0    0  501 -0.00000000000E+00  0.00000000000E+00  0.57194680106E+03  0.57194680106E+03  0.00000000000E+00 0.  1.
          2   -1    0    0  501    0  0.00000000000E+00 -0.00000000000E+00 -0.60332174714E+03  0.60332174714E+03  0.00000000000E+00 0. -1.
         24    2    1    2    0    0 -0.75568889514E+02 -0.11683593549E+03 -0.24503901120E+03  0.29186178015E+03  0.76012425445E+02 0.  0.
        254    2    1    2    0    0  0.75568889514E+02  0.11683593549E+03  0.21366406513E+03  0.88340676805E+03  0.84580960755E+03 0.  0.
         23    2    4    4    0    0  0.14543767959E+03  0.18316147311E+03  0.50073084748E+03  0.56711246848E+03  0.12721999219E+03 0.  0.
         23    2    4    4    0    0 -0.69868790074E+02 -0.66325537621E+02 -0.28706678236E+03  0.31629429957E+03  0.91400337191E+02 0.  0.
          2    1    3    3  502    0 -0.32099426369E+02 -0.13854040201E+01 -0.76720744269E+02  0.83176710194E+02  0.00000000000E+00 0. -1.
         -1    1    3    3    0  502 -0.43469463145E+02 -0.11545053147E+03 -0.16831826693E+03  0.20868506996E+03  0.00000000000E+00 0.  1.
         11    1    5    5    0    0  0.10389567656E+03  0.12904117460E+03  0.45693216099E+03  0.48603799861E+03  0.00000000000E+00 0. -1.
        -11    1    5    5    0    0  0.41542003031E+02  0.54120298507E+02  0.43798686497E+02  0.81074469873E+02  0.00000000000E+00 0.  1.
          3    1    6    6  503    0 -0.61092732134E+02  0.25273224717E+01 -0.16362587374E+03  0.17467723331E+03  0.00000000000E+00 0. -1.
         -3    1    6    6    0  503 -0.87760579395E+01 -0.68852860093E+02 -0.12344090861E+03  0.14161706626E+03  0.00000000000E+00 0.  1.
<mgrwt>
<rscale>  0 0.11748497E+04</rscale>
<asrwt>0</asrwt>
<pdfrwt beam="1">  1        2 0.92818730E-01 0.11748497E+04</pdfrwt>
<pdfrwt beam="2">  1       -1 0.87991815E-01 0.11748497E+04</pdfrwt>
<totfact> 0.70679931E+01</totfact>
</mgrwt>
</event>
<event>
11    6  0.1663299E-008  0.1960058E+04  0.7818608E-02  0.8625526E-01
         -1   -1    0    0    0  501 -0.00000000000E+00  0.00000000000E+00  0.69833767716E+03  0.69833767716E+03  0.00000000000E+00 0.  1.
          2   -1    0    0  501    0  0.00000000000E+00 -0.00000000000E+00 -0.13753468298E+04  0.13753468298E+04  0.00000000000E+00 0. -1.
         24    2    1    2    0    0 -0.64610849981E+03 -0.40285879134E+03 -0.28493134807E+03  0.81717085294E+03  0.82649443366E+02 0.  0.
        254    2    1    2    0    0  0.64610849981E+03  0.40285879134E+03 -0.39207780453E+03  0.12565136540E+04  0.91942925695E+03 0.  0.
         23    2    4    4    0    0  0.61545568933E+03  0.63674559553E+03 -0.18731359171E+03  0.90964340579E+03  0.90189162899E+02 0.  0.
          2    1    3    3  502    0 -0.59786567816E+03 -0.35355767694E+03 -0.24013238672E+03  0.73492173951E+03  0.00000000000E+00 0. -1.
         -1    1    3    3    0  502 -0.48242821644E+02 -0.49301114398E+02 -0.44798961356E+02  0.82249113428E+02  0.00000000000E+00 0.  1.
         11    1    4    4    0    0 -0.27432875872E+01 -0.76586579771E+02  0.11372701458E+02  0.77474951864E+02  0.00000000000E+00 0. -1.
        -11    1    4    4    0    0  0.33396098066E+02 -0.15730022442E+03 -0.21613691427E+03  0.26939529632E+03  0.00000000000E+00 0.  1.
          2    1    5    5  503    0  0.59769562363E+02  0.96180721915E+02 -0.55233734361E+01  0.11337389253E+03  0.00000000000E+00 0. -1.
         -2    1    5    5    0  503  0.55568612697E+03  0.54056487362E+03 -0.18179021828E+03  0.79626951326E+03  0.00000000000E+00 0.  1.
<mgrwt>
<rscale>  0 0.19600577E+04</rscale>
<asrwt>0</asrwt>
<pdfrwt beam="1">  1        2 0.21159182E+00 0.19600577E+04</pdfrwt>
<pdfrwt beam="2">  1       -1 0.10743657E+00 0.19600577E+04</pdfrwt>
<totfact> 0.12814126E+01</totfact>
</mgrwt>
</event>
<event>
12    6  0.1663299E-008  0.2785435E+04  0.7818608E-02  0.8307804E-01
          2   -1    0    0  501    0  0.00000000000E+00  0.00000000000E+00  0.16068278335E+04  0.16068278335E+04  0.00000000000E+00 0. -1.
         -1   -1    0    0    0  501 -0.00000000000E+00 -0.00000000000E+00 -0.12071378279E+04  0.12071378279E+04  0.00000000000E+00 0.  1.
         24    2    1    2    0    0 -0.59856748468E+03  0.75444920231E+03 -0.61265584443E+03  0.11441288523E+04  0.78784606846E+02 0.  0.
        254    2    1    2    0    0  0.59856748468E+03 -0.75444920231E+03  0.10123458501E+04  0.16698368091E+04  0.91434906699E+03 0.  0.
         23    2    4    4    0    0  0.41675072416E+03 -0.82330133428E+03  0.38240920957E+03  0.10044049340E+04  0.10529109502E+03 0.  0.
         23    2    4    4    0    0  0.18181676052E+03  0.68852131972E+02  0.62993664054E+03  0.66543187517E+03  0.90451417392E+02 0.  0.
          4    1    3    3  502    0 -0.41864384148E+03  0.51021841947E+03 -0.46044802011E+03  0.80473466484E+03  0.00000000000E+00 0. -1.
         -3    1    3    3    0  502 -0.17992364320E+03  0.24423078284E+03 -0.15220782433E+03  0.33939418742E+03  0.00000000000E+00 0.  1.
         11    1    5    5    0    0  0.37886971669E+03 -0.76200181581E+03  0.32030806248E+03  0.90927789175E+03  0.00000000000E+00 0. -1.
        -11    1    5    5    0    0  0.37881007462E+02 -0.61299518467E+02  0.62101147089E+02  0.95127042214E+02  0.00000000000E+00 0.  1.
          1    1    6    6  503    0  0.16844359687E+03  0.51003494046E+02  0.61202347749E+03  0.63682598780E+03  0.00000000000E+00 0. -1.
         -1    1    6    6    0  503  0.13373163649E+02  0.17848637926E+02  0.17913163050E+02  0.28605887371E+02  0.00000000000E+00 0.  1.
<mgrwt>
<rscale>  0 0.27854354E+04</rscale>
<asrwt>0</asrwt>
<pdfrwt beam="1">  1        2 0.24720428E+00 0.27854354E+04</pdfrwt>
<pdfrwt beam="2">  1       -1 0.18571351E+00 0.27854354E+04</pdfrwt>
<totfact> 0.20773036E+00</totfact>
</mgrwt>
</event>
